# Forces      
# CofR        : (0.000000e+00 0.000000e+00 0.000000e+00)
# Time        forces(pressure viscous porous)	moments(pressure viscous porous)
0.005         	((1.568125e+00 3.088974e-09 2.211498e-20) (1.150832e-02 7.285689e-12 2.822977e-20) (0.000000e+00 0.000000e+00 0.000000e+00)) ((-1.655790e-18 -2.701705e-22 6.563663e-19) (2.964549e-20 2.181676e-20 -1.554620e-13) (0.000000e+00 0.000000e+00 0.000000e+00))
0.01          	((1.427767e-02 -7.589467e-09 1.501541e-21) (1.035588e-02 -1.349170e-11 -8.357309e-22) (0.000000e+00 0.000000e+00 0.000000e+00)) ((-1.893416e-20 9.596794e-23 -3.210766e-20) (1.080579e-22 -2.771606e-22 5.988769e-12) (0.000000e+00 0.000000e+00 0.000000e+00))
0.015         	((1.744926e-02 3.676678e-09 1.572603e-21) (9.671458e-03 2.676380e-12 -6.903900e-22) (0.000000e+00 0.000000e+00 0.000000e+00)) ((-1.916116e-20 9.188507e-23 1.145393e-21) (-4.756779e-24 -2.067450e-22 5.189969e-12) (0.000000e+00 0.000000e+00 0.000000e+00))
0.02          	((9.876117e-03 -9.300825e-10 1.452117e-21) (9.193430e-03 -5.127142e-13 -7.287888e-22) (0.000000e+00 0.000000e+00 0.000000e+00)) ((-1.102821e-20 1.110069e-22 6.168133e-20) (-1.671650e-22 -2.490205e-22 1.535285e-12) (0.000000e+00 0.000000e+00 0.000000e+00))
0.025         	((8.989574e-03 1.395348e-10 1.436012e-21) (8.774310e-03 -2.624724e-12 -7.550636e-22) (0.000000e+00 0.000000e+00 0.000000e+00)) ((-1.004718e-20 1.064640e-22 3.957396e-20) (-1.599592e-22 -2.399649e-22 -2.058223e-12) (0.000000e+00 0.000000e+00 0.000000e+00))
0.03          	((8.575241e-03 7.091250e-10 1.425672e-21) (8.395612e-03 -2.756979e-12 -7.807444e-22) (0.000000e+00 0.000000e+00 0.000000e+00)) ((-9.595605e-21 1.024373e-22 7.539384e-20) (-1.429579e-22 -2.285155e-22 -5.010870e-12) (0.000000e+00 0.000000e+00 0.000000e+00))
0.035         	((8.263023e-03 -1.538712e-10 1.416821e-21) (8.049067e-03 -4.987893e-12 -8.050331e-22) (0.000000e+00 0.000000e+00 0.000000e+00)) ((-9.269471e-21 9.910257e-23 6.210440e-20) (-1.255153e-22 -2.177024e-22 -7.426458e-12) (0.000000e+00 0.000000e+00 0.000000e+00))
0.04          	((7.982526e-03 2.304456e-10 1.407916e-21) (7.729526e-03 -5.834670e-12 -8.275317e-22) (0.000000e+00 0.000000e+00 0.000000e+00)) ((-8.960869e-21 9.625526e-23 6.041428e-20) (-1.099041e-22 -2.079483e-22 -9.413267e-12) (0.000000e+00 0.000000e+00 0.000000e+00))
0.045         	((7.717174e-03 5.855472e-10 1.399696e-21) (7.433372e-03 -5.714589e-12 -8.481369e-22) (0.000000e+00 0.000000e+00 0.000000e+00)) ((-8.659631e-21 9.377842e-23 1.803475e-20) (-9.612223e-23 -1.991261e-22 -1.105654e-11) (0.000000e+00 0.000000e+00 0.000000e+00))
0.05          	((7.464192e-03 2.398626e-10 1.390676e-21) (7.157857e-03 -6.334069e-12 -8.667608e-22) (0.000000e+00 0.000000e+00 0.000000e+00)) ((-8.364997e-21 9.154942e-23 4.987386e-20) (-8.396064e-23 -1.910309e-22 -1.241692e-11) (0.000000e+00 0.000000e+00 0.000000e+00))
0.055         	((7.223471e-03 2.903774e-10 1.382634e-21) (6.900803e-03 -6.697382e-12 -8.836465e-22) (0.000000e+00 0.000000e+00 0.000000e+00)) ((-8.084570e-21 8.955851e-23 2.163303e-20) (-7.298925e-23 -1.835319e-22 -1.353066e-11) (0.000000e+00 0.000000e+00 0.000000e+00))
0.06          	((6.995720e-03 2.239010e-10 1.374693e-21) (6.660419e-03 -7.131677e-12 -8.989332e-22) (0.000000e+00 0.000000e+00 0.000000e+00)) ((-7.820650e-21 8.776125e-23 2.096624e-20) (-6.296204e-23 -1.765129e-22 -1.443193e-11) (0.000000e+00 0.000000e+00 0.000000e+00))
0.065         	((6.781573e-03 1.859427e-10 1.367251e-21) (6.435187e-03 -7.559986e-12 -9.128150e-22) (0.000000e+00 0.000000e+00 0.000000e+00)) ((-7.573930e-21 8.613872e-23 1.222329e-20) (-5.364132e-23 -1.698812e-22 -1.516921e-11) (0.000000e+00 0.000000e+00 0.000000e+00))
0.07          	((6.580702e-03 1.926597e-10 1.359954e-21) (6.223809e-03 -7.906960e-12 -9.254673e-22) (0.000000e+00 0.000000e+00 0.000000e+00)) ((-7.346290e-21 8.466944e-23 3.524954e-20) (-4.488633e-23 -1.635621e-22 -1.576191e-11) (0.000000e+00 0.000000e+00 0.000000e+00))
0.075         	((6.392594e-03 1.923602e-10 1.353097e-21) (6.025157e-03 -8.222660e-12 -9.371080e-22) (0.000000e+00 0.000000e+00 0.000000e+00)) ((-7.136040e-21 8.333803e-23 5.985348e-20) (-3.668883e-23 -1.575121e-22 -1.623839e-11) (0.000000e+00 0.000000e+00 0.000000e+00))
0.08          	((6.216804e-03 1.939652e-10 1.346600e-21) (5.838235e-03 -8.469884e-12 -9.478663e-22) (0.000000e+00 0.000000e+00 0.000000e+00)) ((-6.942135e-21 8.212825e-23 -2.053375e-21) (-2.903369e-23 -1.517060e-22 -1.662157e-11) (0.000000e+00 0.000000e+00 0.000000e+00))
0.085         	((6.052611e-03 1.505414e-10 1.340647e-21) (5.662153e-03 -8.727034e-12 -9.579519e-22) (0.000000e+00 0.000000e+00 0.000000e+00)) ((-6.762310e-21 8.102168e-23 2.895793e-20) (-2.193033e-23 -1.461319e-22 -1.692162e-11) (0.000000e+00 0.000000e+00 0.000000e+00))
0.09          	((5.899752e-03 1.780607e-10 1.334908e-21) (5.496108e-03 -8.880666e-12 -9.673691e-22) (0.000000e+00 0.000000e+00 0.000000e+00)) ((-6.597396e-21 8.000823e-23 6.762181e-20) (-1.531601e-23 -1.407790e-22 -1.714313e-11) (0.000000e+00 0.000000e+00 0.000000e+00))
0.095         	((5.756613e-03 1.831480e-10 1.329702e-21) (5.339390e-03 -9.022573e-12 -9.762529e-22) (0.000000e+00 0.000000e+00 0.000000e+00)) ((-6.440030e-21 7.907500e-23 6.282446e-20) (-9.286181e-24 -1.356484e-22 -1.731122e-11) (0.000000e+00 0.000000e+00 0.000000e+00))
0.1           	((5.623395e-03 -5.592793e-11 1.324846e-21) (5.191335e-03 -1.042296e-11 -9.846377e-22) (0.000000e+00 0.000000e+00 0.000000e+00)) ((-6.295216e-21 7.820919e-23 1.817202e-20) (-3.660179e-24 -1.307328e-22 -1.757277e-11) (0.000000e+00 0.000000e+00 0.000000e+00))
0.105         	((5.499203e-03 -9.955178e-11 1.320405e-21) (5.051340e-03 -1.172568e-11 -9.926238e-22) (0.000000e+00 0.000000e+00 0.000000e+00)) ((-6.160201e-21 7.739675e-23 7.259500e-20) (1.532059e-24 -1.260306e-22 -1.773149e-11) (0.000000e+00 0.000000e+00 0.000000e+00))
0.11          	((5.383468e-03 -1.049054e-10 1.316072e-21) (4.918868e-03 -1.274361e-11 -1.000204e-21) (0.000000e+00 0.000000e+00 0.000000e+00)) ((-6.033379e-21 7.663756e-23 3.541531e-20) (6.313126e-24 -1.215245e-22 -1.781046e-11) (0.000000e+00 0.000000e+00 0.000000e+00))
0.115         	((5.275476e-03 -1.324427e-10 1.312088e-21) (4.793424e-03 -1.349834e-11 -1.007501e-21) (0.000000e+00 0.000000e+00 0.000000e+00)) ((-5.915221e-21 7.591941e-23 3.642851e-20) (1.073659e-23 -1.172172e-22 -1.780752e-11) (0.000000e+00 0.000000e+00 0.000000e+00))
0.12          	((5.174990e-03 -1.303631e-10 1.308161e-21) (4.674547e-03 -1.419253e-11 -1.014401e-21) (0.000000e+00 0.000000e+00 0.000000e+00)) ((-5.804427e-21 7.524187e-23 3.484558e-20) (1.481645e-23 -1.131000e-22 -1.772906e-11) (0.000000e+00 0.000000e+00 0.000000e+00))
0.125         	((5.080942e-03 -1.948334e-10 1.304641e-21) (4.561815e-03 -1.472913e-11 -1.021062e-21) (0.000000e+00 0.000000e+00 0.000000e+00)) ((-5.700353e-21 7.459890e-23 4.217762e-20) (1.858693e-23 -1.091709e-22 -1.757837e-11) (0.000000e+00 0.000000e+00 0.000000e+00))
0.13          	((4.992780e-03 -1.918482e-10 1.301268e-21) (4.454843e-03 -1.537186e-11 -1.027437e-21) (0.000000e+00 0.000000e+00 0.000000e+00)) ((-5.602704e-21 7.399144e-23 7.089829e-21) (2.208095e-23 -1.054195e-22 -1.737150e-11) (0.000000e+00 0.000000e+00 0.000000e+00))
0.135         	((4.911209e-03 -1.721496e-10 1.297839e-21) (4.353263e-03 -1.583539e-11 -1.033425e-21) (0.000000e+00 0.000000e+00 0.000000e+00)) ((-5.513684e-21 7.340122e-23 4.645679e-20) (2.528526e-23 -1.018439e-22 -1.712330e-11) (0.000000e+00 0.000000e+00 0.000000e+00))
0.14          	((4.834802e-03 -3.303935e-10 1.294657e-21) (4.256735e-03 -1.625709e-11 -1.039179e-21) (0.000000e+00 0.000000e+00 0.000000e+00)) ((-5.426763e-21 7.283567e-23 2.721595e-20) (2.818736e-23 -9.843966e-23 -1.683412e-11) (0.000000e+00 0.000000e+00 0.000000e+00))
0.145         	((4.762600e-03 -2.344894e-10 1.291571e-21) (4.164963e-03 -1.643500e-11 -1.044709e-21) (0.000000e+00 0.000000e+00 0.000000e+00)) ((-5.346865e-21 7.230031e-23 2.107772e-20) (3.086191e-23 -9.518465e-23 -1.647195e-11) (0.000000e+00 0.000000e+00 0.000000e+00))
0.15          	((4.695014e-03 -2.321266e-10 1.288574e-21) (4.077655e-03 -1.657577e-11 -1.049965e-21) (0.000000e+00 0.000000e+00 0.000000e+00)) ((-5.270057e-21 7.178418e-23 2.768115e-20) (3.327317e-23 -9.208987e-23 -1.608379e-11) (0.000000e+00 0.000000e+00 0.000000e+00))
0.155         	((4.631771e-03 -2.641681e-10 1.285517e-21) (3.994545e-03 -1.661827e-11 -1.054895e-21) (0.000000e+00 0.000000e+00 0.000000e+00)) ((-5.199044e-21 7.128823e-23 6.557237e-21) (3.544893e-23 -8.913899e-23 -1.567278e-11) (0.000000e+00 0.000000e+00 0.000000e+00))
0.16          	((4.572403e-03 -6.572967e-10 1.282687e-21) (3.915371e-03 -1.853804e-11 -1.059616e-21) (0.000000e+00 0.000000e+00 0.000000e+00)) ((-5.129421e-21 7.079726e-23 5.314683e-20) (3.742757e-23 -8.633661e-23 -1.829281e-11) (0.000000e+00 0.000000e+00 0.000000e+00))
0.165         	((4.516736e-03 -6.120473e-10 1.279702e-21) (3.839916e-03 -2.010956e-11 -1.064003e-21) (0.000000e+00 0.000000e+00 0.000000e+00)) ((-5.065937e-21 7.033842e-23 2.733822e-20) (3.923216e-23 -8.365158e-23 -2.062300e-11) (0.000000e+00 0.000000e+00 0.000000e+00))
0.17          	((4.464625e-03 -7.074834e-10 1.276952e-21) (3.767949e-03 -2.179002e-11 -1.068255e-21) (0.000000e+00 0.000000e+00 0.000000e+00)) ((-5.006093e-21 6.987599e-23 3.449516e-20) (4.087705e-23 -8.109882e-23 -2.268624e-11) (0.000000e+00 0.000000e+00 0.000000e+00))
0.175         	((4.415295e-03 -8.140213e-10 1.274346e-21) (3.699271e-03 -2.370601e-11 -1.072369e-21) (0.000000e+00 0.000000e+00 0.000000e+00)) ((-4.948796e-21 6.943073e-23 2.978944e-20) (4.233737e-23 -7.866870e-23 -2.448402e-11) (0.000000e+00 0.000000e+00 0.000000e+00))
0.18          	((4.369132e-03 -7.254886e-10 1.271759e-21) (3.633688e-03 -2.555530e-11 -1.076271e-21) (0.000000e+00 0.000000e+00 0.000000e+00)) ((-4.895155e-21 6.899022e-23 6.436062e-21) (4.364417e-23 -7.635539e-23 -2.603897e-11) (0.000000e+00 0.000000e+00 0.000000e+00))
0.185         	((4.325582e-03 -8.506690e-10 1.269261e-21) (3.571023e-03 -2.728816e-11 -1.080000e-21) (0.000000e+00 0.000000e+00 0.000000e+00)) ((-4.843591e-21 6.856259e-23 9.042782e-21) (4.477386e-23 -7.415006e-23 -2.738191e-11) (0.000000e+00 0.000000e+00 0.000000e+00))
0.19          	((4.284595e-03 -8.824738e-10 1.266736e-21) (3.511115e-03 -2.902888e-11 -1.083526e-21) (0.000000e+00 0.000000e+00 0.000000e+00)) ((-4.794137e-21 6.814869e-23 5.596790e-20) (4.575014e-23 -7.204343e-23 -2.851173e-11) (0.000000e+00 0.000000e+00 0.000000e+00))
0.195         	((4.246516e-03 -9.175662e-10 1.264253e-21) (3.453808e-03 -3.067870e-11 -1.086854e-21) (0.000000e+00 0.000000e+00 0.000000e+00)) ((-4.747600e-21 6.773519e-23 5.358812e-20) (4.666034e-23 -7.003411e-23 -2.944398e-11) (0.000000e+00 0.000000e+00 0.000000e+00))
0.2           	((4.210652e-03 -9.510438e-10 1.261761e-21) (3.398957e-03 -3.226912e-11 -1.090007e-21) (0.000000e+00 0.000000e+00 0.000000e+00)) ((-4.703535e-21 6.733323e-23 3.909464e-20) (4.746019e-23 -6.811257e-23 -3.019671e-11) (0.000000e+00 0.000000e+00 0.000000e+00))
0.205         	((4.176811e-03 -9.946792e-10 1.259363e-21) (3.346427e-03 -3.387264e-11 -1.093028e-21) (0.000000e+00 0.000000e+00 0.000000e+00)) ((-4.661517e-21 6.693973e-23 5.898486e-20) (4.815418e-23 -6.627557e-23 -3.078307e-11) (0.000000e+00 0.000000e+00 0.000000e+00))
0.21          	((4.145805e-03 -1.012695e-09 1.257008e-21) (3.296069e-03 -3.542194e-11 -1.095911e-21) (0.000000e+00 0.000000e+00 0.000000e+00)) ((-4.624433e-21 6.654085e-23 8.516903e-20) (4.883871e-23 -6.451531e-23 -3.121486e-11) (0.000000e+00 0.000000e+00 0.000000e+00))
0.215         	((4.116045e-03 -1.053838e-09 1.254695e-21) (3.247782e-03 -3.683500e-11 -1.098717e-21) (0.000000e+00 0.000000e+00 0.000000e+00)) ((-4.586224e-21 6.615894e-23 2.363778e-20) (4.937794e-23 -6.284157e-23 -3.150758e-11) (0.000000e+00 0.000000e+00 0.000000e+00))
0.22          	((4.088355e-03 -1.079952e-09 1.252449e-21) (3.201447e-03 -3.820005e-11 -1.101396e-21) (0.000000e+00 0.000000e+00 0.000000e+00)) ((-4.550727e-21 6.577826e-23 3.872330e-20) (4.985091e-23 -6.123569e-23 -3.166972e-11) (0.000000e+00 0.000000e+00 0.000000e+00))
0.225         	((4.062787e-03 -1.092847e-09 1.250191e-21) (3.156963e-03 -3.944710e-11 -1.103924e-21) (0.000000e+00 0.000000e+00 0.000000e+00)) ((-4.516847e-21 6.539893e-23 1.310766e-20) (5.027782e-23 -5.969792e-23 -3.171372e-11) (0.000000e+00 0.000000e+00 0.000000e+00))
0.23          	((4.038542e-03 -9.835367e-10 1.247988e-21) (3.114230e-03 -4.039507e-11 -1.106352e-21) (0.000000e+00 0.000000e+00 0.000000e+00)) ((-4.484860e-21 6.502947e-23 6.464628e-20) (5.063657e-23 -5.821827e-23 -3.165267e-11) (0.000000e+00 0.000000e+00 0.000000e+00))
0.235         	((4.016394e-03 2.208176e-10 1.245819e-21) (3.073154e-03 -3.826630e-11 -1.108641e-21) (0.000000e+00 0.000000e+00 0.000000e+00)) ((-4.454620e-21 6.465785e-23 4.617823e-20) (5.098258e-23 -5.680073e-23 -3.149939e-11) (0.000000e+00 0.000000e+00 0.000000e+00))
0.24          	((3.995576e-03 -1.074853e-09 1.243641e-21) (3.033649e-03 -3.969430e-11 -1.110839e-21) (0.000000e+00 0.000000e+00 0.000000e+00)) ((-4.426010e-21 6.429196e-23 3.703710e-20) (5.125060e-23 -5.543558e-23 -3.124620e-11) (0.000000e+00 0.000000e+00 0.000000e+00))
0.245         	((3.976653e-03 -1.170376e-09 1.241476e-21) (2.995622e-03 -4.134239e-11 -1.112922e-21) (0.000000e+00 0.000000e+00 0.000000e+00)) ((-4.400157e-21 6.392651e-23 4.204399e-20) (5.152460e-23 -5.412008e-23 -3.091215e-11) (0.000000e+00 0.000000e+00 0.000000e+00))
0.25          	((3.958595e-03 -1.202479e-09 1.239351e-21) (2.959008e-03 -4.299227e-11 -1.114960e-21) (0.000000e+00 0.000000e+00 0.000000e+00)) ((-4.373395e-21 6.356562e-23 3.213100e-20) (5.168165e-23 -5.286082e-23 -3.050857e-11) (0.000000e+00 0.000000e+00 0.000000e+00))
0.255         	((3.942346e-03 -1.191031e-09 1.237220e-21) (2.923725e-03 -4.456645e-11 -1.116868e-21) (0.000000e+00 0.000000e+00 0.000000e+00)) ((-4.349059e-21 6.319789e-23 2.746258e-20) (5.182554e-23 -5.163925e-23 -3.004193e-11) (0.000000e+00 0.000000e+00 0.000000e+00))
0.26          	((3.927890e-03 -1.215364e-09 1.235178e-21) (2.889689e-03 -4.617976e-11 -1.118758e-21) (0.000000e+00 0.000000e+00 0.000000e+00)) ((-4.325906e-21 6.280931e-23 7.118473e-20) (5.193732e-23 -5.046168e-23 -2.952002e-11) (0.000000e+00 0.000000e+00 0.000000e+00))
0.265         	((3.913233e-03 -1.234762e-09 1.233202e-21) (2.856875e-03 -4.776088e-11 -1.120598e-21) (0.000000e+00 0.000000e+00 0.000000e+00)) ((-4.303756e-21 6.249798e-23 -4.344232e-21) (5.202889e-23 -4.932600e-23 -2.894950e-11) (0.000000e+00 0.000000e+00 0.000000e+00))
0.27          	((3.898478e-03 -1.214082e-09 1.231131e-21) (2.825263e-03 -4.924987e-11 -1.122317e-21) (0.000000e+00 0.000000e+00 0.000000e+00)) ((-4.282429e-21 6.224138e-23 5.178710e-20) (5.209006e-23 -4.822306e-23 -2.833656e-11) (0.000000e+00 0.000000e+00 0.000000e+00))
0.275         	((3.884822e-03 -1.325246e-09 1.229165e-21) (2.794785e-03 -5.089116e-11 -1.124077e-21) (0.000000e+00 0.000000e+00 0.000000e+00)) ((-4.261368e-21 6.194301e-23 4.223414e-20) (5.206789e-23 -4.715008e-23 -2.768845e-11) (0.000000e+00 0.000000e+00 0.000000e+00))
0.28          	((3.873229e-03 -1.248993e-09 1.227172e-21) (2.765375e-03 -5.240735e-11 -1.125741e-21) (0.000000e+00 0.000000e+00 0.000000e+00)) ((-4.242527e-21 6.160320e-23 6.152198e-21) (5.207719e-23 -4.609771e-23 -2.700545e-11) (0.000000e+00 0.000000e+00 0.000000e+00))
0.285         	((3.863446e-03 -1.239007e-09 1.225135e-21) (2.736967e-03 -5.384258e-11 -1.127317e-21) (0.000000e+00 0.000000e+00 0.000000e+00)) ((-4.224895e-21 6.126019e-23 3.075359e-20) (5.206255e-23 -4.507025e-23 -2.629877e-11) (0.000000e+00 0.000000e+00 0.000000e+00))
0.29          	((3.854230e-03 -8.955138e-10 1.223192e-21) (2.709512e-03 -5.428519e-11 -1.128928e-21) (0.000000e+00 0.000000e+00 0.000000e+00)) ((-4.207510e-21 6.092668e-23 2.111292e-20) (5.200637e-23 -4.406862e-23 -2.557635e-11) (0.000000e+00 0.000000e+00 0.000000e+00))
0.295         	((3.846453e-03 -1.481805e-09 1.221207e-21) (2.682960e-03 -5.647539e-11 -1.130460e-21) (0.000000e+00 0.000000e+00 0.000000e+00)) ((-4.191730e-21 6.058327e-23 6.632572e-20) (5.195808e-23 -4.309110e-23 -2.482025e-11) (0.000000e+00 0.000000e+00 0.000000e+00))
0.3           	((3.839618e-03 -1.465894e-09 1.219244e-21) (2.657263e-03 -5.854805e-11 -1.131988e-21) (0.000000e+00 0.000000e+00 0.000000e+00)) ((-4.176686e-21 6.024263e-23 4.374375e-20) (5.187913e-23 -4.213717e-23 -2.405381e-11) (0.000000e+00 0.000000e+00 0.000000e+00))
0.305         	((3.833280e-03 -1.405640e-09 1.217289e-21) (2.632391e-03 -6.022160e-11 -1.133472e-21) (0.000000e+00 0.000000e+00 0.000000e+00)) ((-4.162284e-21 5.990970e-23 5.990139e-20) (5.177911e-23 -4.120155e-23 -2.328492e-11) (0.000000e+00 0.000000e+00 0.000000e+00))
0.31          	((3.828183e-03 -1.425541e-09 1.215343e-21) (2.608295e-03 -6.183277e-11 -1.134924e-21) (0.000000e+00 0.000000e+00 0.000000e+00)) ((-4.148978e-21 5.957234e-23 7.902792e-20) (5.167186e-23 -4.028514e-23 -2.250611e-11) (0.000000e+00 0.000000e+00 0.000000e+00))
0.315         	((3.823897e-03 -1.431136e-09 1.213405e-21) (2.584938e-03 -6.339209e-11 -1.136341e-21) (0.000000e+00 0.000000e+00 0.000000e+00)) ((-4.136358e-21 5.923549e-23 4.863947e-20) (5.155197e-23 -3.938582e-23 -2.171917e-11) (0.000000e+00 0.000000e+00 0.000000e+00))
0.32          	((3.820049e-03 -1.436865e-09 1.211472e-21) (2.562295e-03 -6.487590e-11 -1.137734e-21) (0.000000e+00 0.000000e+00 0.000000e+00)) ((-4.124754e-21 5.891287e-23 1.116245e-20) (5.142093e-23 -3.849856e-23 -2.092646e-11) (0.000000e+00 0.000000e+00 0.000000e+00))
0.325         	((3.817450e-03 -1.474643e-09 1.209516e-21) (2.540326e-03 -6.637867e-11 -1.139047e-21) (0.000000e+00 0.000000e+00 0.000000e+00)) ((-4.113831e-21 5.857504e-23 6.052914e-20) (5.129760e-23 -3.763155e-23 -2.012989e-11) (0.000000e+00 0.000000e+00 0.000000e+00))
0.33          	((3.815409e-03 -1.448451e-09 1.207539e-21) (2.519004e-03 -6.774362e-11 -1.140327e-21) (0.000000e+00 0.000000e+00 0.000000e+00)) ((-4.103772e-21 5.824646e-23 8.952992e-20) (5.116511e-23 -3.677539e-23 -1.933250e-11) (0.000000e+00 0.000000e+00 0.000000e+00))
0.335         	((3.813641e-03 -1.484499e-09 1.205761e-21) (2.498299e-03 -6.910926e-11 -1.141733e-21) (0.000000e+00 0.000000e+00 0.000000e+00)) ((-4.093651e-21 5.791366e-23 5.523820e-20) (5.099994e-23 -3.594370e-23 -1.853625e-11) (0.000000e+00 0.000000e+00 0.000000e+00))
0.34          	((3.812579e-03 -1.489381e-09 1.203922e-21) (2.478186e-03 -7.041982e-11 -1.143062e-21) (0.000000e+00 0.000000e+00 0.000000e+00)) ((-4.084355e-21 5.758416e-23 2.064427e-20) (5.084195e-23 -3.512149e-23 -1.774101e-11) (0.000000e+00 0.000000e+00 0.000000e+00))
0.345         	((3.812160e-03 -1.497879e-09 1.202012e-21) (2.458639e-03 -7.174198e-11 -1.144306e-21) (0.000000e+00 0.000000e+00 0.000000e+00)) ((-4.075974e-21 5.726239e-23 -5.360070e-21) (5.068442e-23 -3.431153e-23 -1.694870e-11) (0.000000e+00 0.000000e+00 0.000000e+00))
0.35          	((3.812279e-03 -1.512121e-09 1.200096e-21) (2.439637e-03 -7.304574e-11 -1.145521e-21) (0.000000e+00 0.000000e+00 0.000000e+00)) ((-4.068342e-21 5.694508e-23 5.690474e-20) (5.052662e-23 -3.351447e-23 -1.616078e-11) (0.000000e+00 0.000000e+00 0.000000e+00))
0.355         	((3.812652e-03 -1.510715e-09 1.198189e-21) (2.421162e-03 -7.421691e-11 -1.146724e-21) (0.000000e+00 0.000000e+00 0.000000e+00)) ((-4.060724e-21 5.663480e-23 2.442727e-20) (5.034690e-23 -3.272947e-23 -1.537928e-11) (0.000000e+00 0.000000e+00 0.000000e+00))
0.36          	((3.814489e-03 -1.570954e-09 1.196356e-21) (2.403177e-03 -7.544607e-11 -1.147931e-21) (0.000000e+00 0.000000e+00 0.000000e+00)) ((-4.055024e-21 5.629940e-23 6.834574e-20) (5.014866e-23 -3.195572e-23 -1.460253e-11) (0.000000e+00 0.000000e+00 0.000000e+00))
0.365         	((3.816390e-03 -1.553454e-09 1.194513e-21) (2.385670e-03 -7.657407e-11 -1.149128e-21) (0.000000e+00 0.000000e+00 0.000000e+00)) ((-4.049091e-21 5.597575e-23 4.159037e-20) (4.994903e-23 -3.119603e-23 -1.383501e-11) (0.000000e+00 0.000000e+00 0.000000e+00))
0.37          	((3.818744e-03 -1.492458e-09 1.192620e-21) (2.368626e-03 -7.757777e-11 -1.150276e-21) (0.000000e+00 0.000000e+00 0.000000e+00)) ((-4.043460e-21 5.565648e-23 1.120905e-20) (4.973848e-23 -3.044715e-23 -1.307349e-11) (0.000000e+00 0.000000e+00 0.000000e+00))
0.375         	((3.821720e-03 -1.434991e-09 1.190736e-21) (2.352027e-03 -7.835250e-11 -1.151411e-21) (0.000000e+00 0.000000e+00 0.000000e+00)) ((-4.038352e-21 5.533162e-23 2.791573e-20) (4.952670e-23 -2.971129e-23 -1.232659e-11) (0.000000e+00 0.000000e+00 0.000000e+00))
0.38          	((3.825559e-03 -1.499671e-09 1.188859e-21) (2.335859e-03 -7.929424e-11 -1.152533e-21) (0.000000e+00 0.000000e+00 0.000000e+00)) ((-4.033818e-21 5.499265e-23 2.380886e-20) (4.931221e-23 -2.898681e-23 -1.158958e-11) (0.000000e+00 0.000000e+00 0.000000e+00))
0.385         	((3.830759e-03 -1.535705e-09 1.186991e-21) (2.320111e-03 -8.009124e-11 -1.153646e-21) (0.000000e+00 0.000000e+00 0.000000e+00)) ((-4.030082e-21 5.462259e-23 3.871025e-20) (4.910041e-23 -2.827517e-23 -1.086326e-11) (0.000000e+00 0.000000e+00 0.000000e+00))
0.39          	((3.833396e-03 -1.315709e-09 1.185111e-21) (2.304742e-03 -8.050188e-11 -1.154697e-21) (0.000000e+00 0.000000e+00 0.000000e+00)) ((-4.026393e-21 5.438271e-23 7.696667e-20) (4.887911e-23 -2.757473e-23 -1.014054e-11) (0.000000e+00 0.000000e+00 0.000000e+00))
0.395         	((3.835678e-03 -1.326581e-09 1.183237e-21) (2.289738e-03 -8.113017e-11 -1.155747e-21) (0.000000e+00 0.000000e+00 0.000000e+00)) ((-4.021645e-21 5.414630e-23 6.303037e-20) (4.861922e-23 -2.688058e-23 -9.426126e-12) (0.000000e+00 0.000000e+00 0.000000e+00))
0.4           	((3.839235e-03 -1.476189e-09 1.181376e-21) (2.275089e-03 -8.207217e-11 -1.156793e-21) (0.000000e+00 0.000000e+00 0.000000e+00)) ((-4.018075e-21 5.386931e-23 8.454858e-20) (4.838622e-23 -2.618983e-23 -8.738815e-12) (0.000000e+00 0.000000e+00 0.000000e+00))
0.405         	((3.843600e-03 -1.842613e-09 1.179458e-21) (2.260785e-03 -8.368724e-11 -1.157772e-21) (0.000000e+00 0.000000e+00 0.000000e+00)) ((-4.014686e-21 5.357865e-23 4.899191e-20) (4.814670e-23 -2.550611e-23 -8.063485e-12) (0.000000e+00 0.000000e+00 0.000000e+00))
0.41          	((3.849281e-03 -1.571905e-09 1.177585e-21) (2.246813e-03 -8.467482e-11 -1.158783e-21) (0.000000e+00 0.000000e+00 0.000000e+00)) ((-4.012272e-21 5.326443e-23 7.686559e-20) (4.792502e-23 -2.483199e-23 -7.385213e-12) (0.000000e+00 0.000000e+00 0.000000e+00))
0.415         	((3.854212e-03 -1.720928e-09 1.175720e-21) (2.233159e-03 -8.595713e-11 -1.159780e-21) (0.000000e+00 0.000000e+00 0.000000e+00)) ((-4.009431e-21 5.297004e-23 8.156747e-20) (4.769337e-23 -2.416517e-23 -6.719868e-12) (0.000000e+00 0.000000e+00 0.000000e+00))
0.42          	((3.860860e-03 -1.722503e-09 1.173848e-21) (2.219813e-03 -8.719654e-11 -1.160764e-21) (0.000000e+00 0.000000e+00 0.000000e+00)) ((-4.007836e-21 5.265057e-23 2.829043e-20) (4.748172e-23 -2.350735e-23 -6.068913e-12) (0.000000e+00 0.000000e+00 0.000000e+00))
0.425         	((3.867437e-03 -1.645621e-09 1.172000e-21) (2.206766e-03 -8.809247e-11 -1.161739e-21) (0.000000e+00 0.000000e+00 0.000000e+00)) ((-4.006320e-21 5.233805e-23 1.747718e-20) (4.726256e-23 -2.285773e-23 -5.438554e-12) (0.000000e+00 0.000000e+00 0.000000e+00))
0.43          	((3.873601e-03 -1.667212e-09 1.170157e-21) (2.194005e-03 -8.881684e-11 -1.162672e-21) (0.000000e+00 0.000000e+00 0.000000e+00)) ((-4.005114e-21 5.204183e-23 5.787372e-21) (4.702117e-23 -2.220970e-23 -4.825950e-12) (0.000000e+00 0.000000e+00 0.000000e+00))
0.435         	((3.880768e-03 -1.728742e-09 1.168313e-21) (2.181521e-03 -8.945167e-11 -1.163644e-21) (0.000000e+00 0.000000e+00 0.000000e+00)) ((-4.003666e-21 5.172871e-23 5.127559e-20) (4.681119e-23 -2.158047e-23 -4.221327e-12) (0.000000e+00 0.000000e+00 0.000000e+00))
0.44          	((3.889198e-03 -1.747386e-09 1.166446e-21) (2.169300e-03 -9.013462e-11 -1.164550e-21) (0.000000e+00 0.000000e+00 0.000000e+00)) ((-4.003754e-21 5.140287e-23 4.614320e-21) (4.659586e-23 -2.095241e-23 -3.628774e-12) (0.000000e+00 0.000000e+00 0.000000e+00))
0.445         	((3.896071e-03 -1.747826e-09 1.164588e-21) (2.157334e-03 -9.043394e-11 -1.165452e-21) (0.000000e+00 0.000000e+00 0.000000e+00)) ((-4.002351e-21 5.111174e-23 2.218372e-20) (4.638047e-23 -2.033492e-23 -3.050013e-12) (0.000000e+00 0.000000e+00 0.000000e+00))
0.45          	((3.904303e-03 -1.765973e-09 1.162724e-21) (2.145610e-03 -9.120185e-11 -1.166325e-21) (0.000000e+00 0.000000e+00 0.000000e+00)) ((-4.002229e-21 5.080072e-23 2.769314e-20) (4.617671e-23 -1.972103e-23 -2.483148e-12) (0.000000e+00 0.000000e+00 0.000000e+00))
0.455         	((3.912570e-03 -1.779667e-09 1.160868e-21) (2.134128e-03 -9.174369e-11 -1.167197e-21) (0.000000e+00 0.000000e+00 0.000000e+00)) ((-4.002101e-21 5.049024e-23 2.238242e-20) (4.598543e-23 -1.911566e-23 -1.929188e-12) (0.000000e+00 0.000000e+00 0.000000e+00))
0.46          	((3.921204e-03 -1.763582e-09 1.159010e-21) (2.122880e-03 -9.214985e-11 -1.168040e-21) (0.000000e+00 0.000000e+00 0.000000e+00)) ((-4.002414e-21 5.017731e-23 4.829963e-20) (4.579762e-23 -1.851752e-23 -1.386986e-12) (0.000000e+00 0.000000e+00 0.000000e+00))
0.465         	((3.930484e-03 -1.804778e-09 1.157152e-21) (2.111860e-03 -9.269072e-11 -1.168886e-21) (0.000000e+00 0.000000e+00 0.000000e+00)) ((-4.003009e-21 4.985799e-23 1.453886e-20) (4.561207e-23 -1.792370e-23 -8.503225e-13) (0.000000e+00 0.000000e+00 0.000000e+00))
0.47          	((3.938801e-03 -1.784610e-09 1.155290e-21) (2.101057e-03 -9.312528e-11 -1.169687e-21) (0.000000e+00 0.000000e+00 0.000000e+00)) ((-4.003082e-21 4.956644e-23 3.091456e-20) (4.541221e-23 -1.733502e-23 -3.267879e-13) (0.000000e+00 0.000000e+00 0.000000e+00))
0.475         	((3.948157e-03 -1.818916e-09 1.153445e-21) (2.090466e-03 -9.362267e-11 -1.170510e-21) (0.000000e+00 0.000000e+00 0.000000e+00)) ((-4.003837e-21 4.925219e-23 1.153053e-20) (4.522993e-23 -1.675341e-23 1.836549e-13) (0.000000e+00 0.000000e+00 0.000000e+00))
0.48          	((3.957822e-03 -9.818929e-10 1.151604e-21) (2.080082e-03 -9.215591e-11 -1.171318e-21) (0.000000e+00 0.000000e+00 0.000000e+00)) ((-4.004744e-21 4.893593e-23 5.138129e-20) (4.504869e-23 -1.617803e-23 6.818700e-13) (0.000000e+00 0.000000e+00 0.000000e+00))
0.485         	((3.968345e-03 -1.863449e-09 1.149743e-21) (2.069899e-03 -9.312573e-11 -1.172100e-21) (0.000000e+00 0.000000e+00 0.000000e+00)) ((-4.006467e-21 4.860248e-23 2.053302e-20) (4.489400e-23 -1.560800e-23 1.159284e-12) (0.000000e+00 0.000000e+00 0.000000e+00))
0.49          	((3.980451e-03 -2.593978e-09 1.147904e-21) (2.059913e-03 -9.542327e-11 -1.172873e-21) (0.000000e+00 0.000000e+00 0.000000e+00)) ((-4.009555e-21 4.823180e-23 5.090990e-20) (4.473101e-23 -1.503871e-23 1.620586e-12) (0.000000e+00 0.000000e+00 0.000000e+00))
0.495         	((3.988872e-03 -9.419047e-10 1.146022e-21) (2.050110e-03 -9.377188e-11 -1.173538e-21) (0.000000e+00 0.000000e+00 0.000000e+00)) ((-4.010826e-21 4.798656e-23 1.261075e-20) (4.453998e-23 -1.447810e-23 2.083381e-12) (0.000000e+00 0.000000e+00 0.000000e+00))
0.5           	((3.997407e-03 -2.670296e-09 1.144128e-21) (2.040484e-03 -9.641339e-11 -1.174206e-21) (0.000000e+00 0.000000e+00 0.000000e+00)) ((-4.012060e-21 4.773946e-23 7.397608e-20) (4.436280e-23 -1.391630e-23 2.528035e-12) (0.000000e+00 0.000000e+00 0.000000e+00))
0.505         	((4.006199e-03 -1.884170e-09 1.142265e-21) (2.031031e-03 -9.691213e-11 -1.174885e-21) (0.000000e+00 0.000000e+00 0.000000e+00)) ((-4.013035e-21 4.748018e-23 7.402607e-20) (4.416709e-23 -1.336518e-23 2.965917e-12) (0.000000e+00 0.000000e+00 0.000000e+00))
0.51          	((4.016924e-03 -1.877724e-09 1.140420e-21) (2.021750e-03 -9.742437e-11 -1.175607e-21) (0.000000e+00 0.000000e+00 0.000000e+00)) ((-4.015134e-21 4.717165e-23 5.649859e-20) (4.399734e-23 -1.281526e-23 3.393111e-12) (0.000000e+00 0.000000e+00 0.000000e+00))
0.515         	((4.025906e-03 -1.839343e-09 1.138562e-21) (2.012633e-03 -9.790021e-11 -1.176271e-21) (0.000000e+00 0.000000e+00 0.000000e+00)) ((-4.016233e-21 4.691188e-23 3.638859e-20) (4.380753e-23 -1.226919e-23 3.810186e-12) (0.000000e+00 0.000000e+00 0.000000e+00))
0.52          	((4.037175e-03 -1.921054e-09 1.136719e-21) (2.003679e-03 -9.849572e-11 -1.176972e-21) (0.000000e+00 0.000000e+00 0.000000e+00)) ((-4.018761e-21 4.659886e-23 3.206695e-20) (4.364536e-23 -1.172592e-23 4.215652e-12) (0.000000e+00 0.000000e+00 0.000000e+00))
0.525         	((4.048421e-03 -1.884610e-09 1.134875e-21) (1.994884e-03 -9.899606e-11 -1.177649e-21) (0.000000e+00 0.000000e+00 0.000000e+00)) ((-4.021412e-21 4.629161e-23 2.703888e-20) (4.348699e-23 -1.118722e-23 4.612619e-12) (0.000000e+00 0.000000e+00 0.000000e+00))
0.53          	((4.058057e-03 -1.857070e-09 1.133029e-21) (1.986237e-03 -9.949585e-11 -1.178287e-21) (0.000000e+00 0.000000e+00 0.000000e+00)) ((-4.023199e-21 4.602588e-23 4.576609e-20) (4.331249e-23 -1.065259e-23 4.999251e-12) (0.000000e+00 0.000000e+00 0.000000e+00))
0.535         	((4.069365e-03 -1.943437e-09 1.131193e-21) (1.977742e-03 -1.000994e-10 -1.178950e-21) (0.000000e+00 0.000000e+00 0.000000e+00)) ((-4.025813e-21 4.572186e-23 4.199274e-20) (4.314756e-23 -1.012256e-23 5.374421e-12) (0.000000e+00 0.000000e+00 0.000000e+00))
0.54          	((4.081050e-03 -1.851940e-09 1.129357e-21) (1.969393e-03 -1.006227e-10 -1.179600e-21) (0.000000e+00 0.000000e+00 0.000000e+00)) ((-4.028729e-21 4.541574e-23 5.104395e-20) (4.300186e-23 -9.592977e-24 5.742447e-12) (0.000000e+00 0.000000e+00 0.000000e+00))
0.545         	((4.092906e-03 -1.943877e-09 1.127525e-21) (1.961187e-03 -1.012654e-10 -1.180238e-21) (0.000000e+00 0.000000e+00 0.000000e+00)) ((-4.031787e-21 4.510726e-23 2.026380e-20) (4.284311e-23 -9.070432e-24 6.090439e-12) (0.000000e+00 0.000000e+00 0.000000e+00))
0.55          	((4.103701e-03 -1.898985e-09 1.125687e-21) (1.953119e-03 -1.018235e-10 -1.180829e-21) (0.000000e+00 0.000000e+00 0.000000e+00)) ((-4.034218e-21 4.482688e-23 5.863507e-20) (4.266809e-23 -8.552301e-24 6.430764e-12) (0.000000e+00 0.000000e+00 0.000000e+00))