/*--------------------------------*- C++ -*----------------------------------*\
  =========                 |
  \\      /  F ield         | OpenFOAM: The Open Source CFD Toolbox
   \\    /   O peration     | Website:  https://openfoam.org
    \\  /    A nd           | Version:  7
     \\/     M anipulation  |
\*---------------------------------------------------------------------------*/
FoamFile
{
    version     2.0;
    format      ascii;
    class       volScalarField;
    location    "14.9985";
    object      p;
}
// * * * * * * * * * * * * * * * * * * * * * * * * * * * * * * * * * * * * * //

dimensions      [0 2 -2 0 0 0 0];

internalField   nonuniform List<scalar> 
18750
(
-0.0421475
-0.0543084
-0.0757689
-0.106968
-0.145819
-0.191231
-0.241866
-0.296705
-0.35481
-0.415487
-0.478082
-0.541898
-0.606059
-0.669544
-0.731297
-0.046726
-0.0585682
-0.0797381
-0.110685
-0.149322
-0.194555
-0.245036
-0.299735
-0.357706
-0.418257
-0.480752
-0.544512
-0.608637
-0.672036
-0.733608
-0.0556873
-0.0669093
-0.0875074
-0.117955
-0.156169
-0.201041
-0.251212
-0.305626
-0.36332
-0.423606
-0.485882
-0.549503
-0.613537
-0.676771
-0.738018
-0.0686432
-0.0789778
-0.0987414
-0.128458
-0.166046
-0.210379
-0.260075
-0.314051
-0.371317
-0.431184
-0.493093
-0.55645
-0.620306
-0.683308
-0.74414
-0.0850446
-0.0942675
-0.112962
-0.141742
-0.178517
-0.222136
-0.271195
-0.324575
-0.381253
-0.440536
-0.501908
-0.564844
-0.628407
-0.691118
-0.751499
-0.104219
-0.112139
-0.129575
-0.157255
-0.193056
-0.235802
-0.284064
-0.336691
-0.392627
-0.451161
-0.511819
-0.574157
-0.637294
-0.699665
-0.75961
-0.125429
-0.131835
-0.147908
-0.174383
-0.209084
-0.250818
-0.298139
-0.349868
-0.404917
-0.462556
-0.522335
-0.583901
-0.64647
-0.708457
-0.768016
-0.147845
-0.152568
-0.167261
-0.192483
-0.226
-0.266616
-0.312874
-0.36358
-0.417621
-0.474242
-0.533007
-0.593646
-0.655508
-0.717069
-0.776311
-0.17058
-0.173553
-0.186947
-0.210924
-0.243214
-0.282643
-0.327749
-0.377333
-0.430271
-0.485786
-0.543441
-0.60303
-0.664058
-0.72514
-0.784143
-0.192756
-0.194037
-0.206319
-0.229106
-0.26017
-0.298383
-0.342284
-0.390678
-0.442449
-0.496805
-0.553296
-0.611757
-0.671837
-0.732371
-0.791205
-0.213545
-0.213344
-0.224796
-0.24648
-0.276362
-0.313374
-0.356055
-0.403224
-0.45379
-0.506964
-0.562279
-0.619574
-0.678619
-0.738503
-0.797213
-0.232206
-0.230935
-0.24186
-0.262559
-0.291351
-0.327216
-0.368695
-0.414636
-0.463984
-0.515976
-0.570128
-0.626264
-0.684215
-0.74332
-0.801891
-0.248126
-0.246459
-0.257056
-0.276931
-0.304768
-0.339574
-0.379897
-0.424633
-0.472773
-0.52359
-0.576609
-0.631621
-0.688461
-0.746645
-0.804957
-0.260933
-0.259636
-0.269985
-0.28928
-0.316323
-0.35018
-0.38941
-0.432983
-0.479939
-0.529598
-0.581504
-0.635439
-0.691202
-0.748355
-0.806118
-0.270639
-0.270137
-0.280364
-0.299388
-0.325804
-0.35883
-0.397035
-0.439498
-0.485306
-0.533824
-0.584627
-0.637511
-0.692267
-0.748385
-0.805086
-0.277332
-0.277744
-0.288261
-0.307121
-0.333085
-0.365373
-0.402623
-0.44403
-0.488723
-0.536123
-0.585822
-0.637646
-0.691439
-0.74668
-0.801878
-0.281251
-0.282603
-0.293655
-0.312544
-0.338156
-0.369709
-0.406079
-0.446468
-0.490069
-0.536367
-0.584968
-0.635699
-0.68851
-0.742952
-0.796834
-0.282888
-0.285116
-0.296675
-0.31566
-0.340968
-0.371849
-0.407365
-0.446745
-0.489256
-0.534444
-0.581963
-0.631568
-0.683305
-0.737063
-0.789749
-0.282965
-0.285812
-0.29756
-0.316536
-0.34154
-0.371793
-0.406453
-0.444816
-0.486221
-0.530268
-0.576708
-0.625202
-0.675691
-0.72889
-0.780273
-0.282315
-0.285221
-0.296581
-0.315319
-0.339965
-0.369571
-0.403339
-0.440651
-0.48092
-0.523765
-0.569087
-0.616565
-0.665583
-0.718338
-0.768279
-0.281652
-0.283721
-0.29399
-0.312221
-0.336389
-0.365259
-0.398054
-0.43424
-0.473322
-0.514888
-0.558957
-0.605614
-0.652941
-0.705329
-0.753788
-0.281246
-0.281372
-0.29002
-0.307502
-0.330993
-0.358967
-0.390665
-0.425597
-0.463399
-0.503642
-0.546177
-0.592266
-0.637754
-0.68982
-0.736815
-0.280736
-0.277893
-0.284967
-0.30147
-0.323975
-0.350837
-0.38128
-0.414777
-0.451103
-0.490059
-0.530647
-0.576377
-0.619999
-0.671787
-0.717531
-0.279364
-0.273155
-0.279315
-0.294457
-0.315556
-0.341045
-0.370038
-0.401891
-0.436378
-0.47415
-0.512357
-0.557767
-0.599603
-0.65101
-0.69615
-0.27666
-0.26795
-0.273674
-0.286799
-0.306014
-0.329838
-0.357105
-0.387127
-0.419197
-0.455837
-0.491382
-0.536287
-0.576605
-0.627194
-0.672416
-0.272714
-0.263864
-0.268459
-0.278862
-0.295753
-0.317578
-0.34268
-0.370703
-0.399673
-0.434957
-0.467809
-0.511738
-0.551201
-0.600513
-0.645966
-0.268296
-0.26163
-0.263694
-0.271133
-0.285339
-0.304765
-0.327041
-0.352795
-0.378098
-0.411369
-0.441815
-0.483837
-0.523325
-0.571422
-0.61702
-0.264368
-0.260507
-0.259459
-0.264321
-0.27546
-0.29202
-0.31064
-0.333544
-0.354905
-0.384971
-0.413775
-0.452594
-0.492655
-0.54005
-0.586084
-0.261428
-0.259464
-0.256387
-0.259178
-0.266826
-0.280036
-0.294182
-0.313136
-0.33067
-0.355784
-0.38394
-0.418281
-0.459394
-0.505912
-0.554424
-0.259535
-0.258167
-0.255062
-0.255931
-0.260071
-0.269482
-0.278664
-0.291998
-0.30596
-0.324205
-0.352725
-0.380927
-0.424882
-0.467043
-0.521843
-0.258406
-0.257199
-0.254949
-0.254325
-0.255676
-0.260996
-0.265137
-0.271061
-0.281459
-0.291142
-0.320512
-0.34209
-0.389863
-0.424874
-0.483547
-0.257801
-0.256719
-0.255216
-0.254092
-0.253776
-0.255093
-0.2545
-0.251678
-0.257628
-0.259277
-0.28679
-0.305858
-0.354208
-0.387314
-0.446724
-0.257486
-0.256644
-0.255761
-0.254949
-0.253979
-0.251971
-0.246891
-0.23614
-0.234548
-0.231597
-0.251132
-0.273522
-0.317913
-0.355542
-0.417155
-0.257257
-0.256783
-0.2566
-0.256458
-0.255506
-0.251317
-0.241897
-0.225577
-0.213969
-0.208683
-0.218883
-0.244806
-0.283792
-0.327983
-0.38903
-0.256946
-0.256937
-0.257543
-0.258195
-0.257524
-0.252232
-0.239283
-0.219432
-0.198799
-0.190249
-0.195467
-0.221332
-0.257704
-0.306196
-0.359561
-0.256426
-0.256934
-0.258289
-0.259704
-0.259439
-0.25382
-0.238696
-0.216502
-0.189561
-0.177274
-0.180462
-0.205153
-0.239711
-0.289049
-0.336999
-0.255643
-0.256662
-0.258622
-0.260732
-0.260947
-0.255536
-0.239769
-0.216111
-0.185976
-0.170925
-0.173028
-0.195972
-0.228609
-0.274999
-0.32106
-0.254634
-0.256085
-0.258443
-0.261149
-0.262014
-0.257432
-0.242661
-0.218302
-0.188149
-0.171405
-0.172114
-0.192484
-0.223326
-0.265088
-0.308775
-0.25356
-0.255308
-0.25786
-0.260984
-0.262813
-0.260227
-0.248638
-0.225422
-0.19552
-0.177868
-0.176813
-0.194062
-0.222444
-0.258963
-0.298825
-0.2527
-0.254611
-0.25723
-0.260804
-0.264038
-0.264865
-0.258757
-0.238182
-0.207438
-0.188683
-0.185708
-0.199419
-0.22414
-0.255469
-0.290594
-0.252355
-0.254343
-0.257061
-0.261233
-0.26632
-0.271413
-0.2717
-0.252886
-0.221938
-0.201455
-0.196526
-0.206603
-0.227106
-0.253409
-0.283597
-0.25271
-0.254734
-0.257632
-0.262508
-0.269601
-0.279145
-0.283034
-0.266896
-0.235882
-0.21427
-0.207435
-0.214098
-0.2304
-0.252002
-0.277491
-0.253728
-0.255744
-0.258864
-0.26439
-0.273114
-0.286754
-0.289699
-0.277089
-0.247622
-0.225751
-0.217277
-0.220921
-0.233421
-0.250751
-0.271972
-0.255189
-0.257116
-0.260385
-0.266222
-0.275934
-0.291512
-0.293613
-0.282174
-0.256022
-0.235049
-0.225461
-0.2266
-0.235787
-0.24935
-0.266816
-0.25679
-0.258509
-0.261741
-0.267261
-0.277921
-0.290677
-0.294699
-0.283561
-0.261066
-0.24186
-0.231769
-0.230926
-0.23732
-0.24766
-0.26186
-0.258264
-0.259634
-0.262557
-0.267096
-0.278354
-0.286271
-0.292139
-0.28221
-0.263221
-0.246218
-0.236179
-0.233901
-0.237973
-0.245573
-0.256984
-0.259445
-0.260343
-0.262526
-0.266015
-0.275814
-0.281794
-0.286965
-0.278892
-0.263192
-0.248468
-0.238867
-0.235604
-0.237765
-0.24309
-0.252107
-0.26029
-0.260665
-0.261755
-0.264664
-0.269372
-0.27775
-0.2812
-0.274515
-0.26164
-0.249015
-0.240033
-0.236147
-0.236764
-0.240191
-0.247169
-0.260855
-0.260709
-0.260495
-0.263485
-0.26187
-0.27289
-0.275466
-0.269746
-0.259102
-0.24826
-0.23995
-0.235677
-0.23504
-0.236921
-0.242137
-0.261259
-0.260576
-0.259399
-0.261338
-0.258367
-0.267666
-0.269858
-0.264982
-0.256004
-0.246566
-0.238851
-0.234326
-0.232684
-0.233293
-0.236976
-0.261698
-0.260372
-0.259569
-0.256823
-0.258556
-0.263627
-0.264684
-0.260362
-0.25259
-0.244193
-0.236955
-0.232239
-0.229768
-0.229342
-0.231679
-0.262315
-0.260205
-0.261374
-0.251257
-0.258158
-0.260772
-0.26027
-0.256021
-0.249022
-0.241347
-0.234439
-0.229536
-0.226381
-0.225091
-0.226221
-0.263087
-0.260783
-0.262883
-0.250668
-0.256747
-0.258307
-0.256574
-0.25202
-0.245391
-0.238148
-0.231432
-0.226328
-0.222584
-0.220566
-0.22061
-0.264115
-0.262842
-0.262332
-0.256055
-0.256655
-0.256181
-0.253337
-0.248316
-0.24175
-0.234697
-0.228042
-0.222701
-0.218443
-0.215792
-0.214836
-0.265466
-0.266657
-0.259746
-0.261351
-0.258032
-0.254676
-0.250466
-0.244841
-0.238115
-0.231049
-0.224333
-0.218725
-0.213998
-0.210782
-0.208922
-0.267111
-0.271424
-0.257187
-0.263127
-0.25914
-0.253694
-0.247975
-0.241559
-0.234484
-0.227243
-0.220364
-0.214448
-0.209286
-0.20556
-0.202877
-0.269284
-0.275373
-0.259061
-0.262841
-0.25929
-0.252806
-0.245774
-0.238444
-0.230851
-0.223295
-0.216158
-0.209904
-0.20433
-0.20013
-0.196723
-0.272349
-0.277362
-0.26602
-0.263671
-0.258907
-0.251708
-0.24366
-0.235422
-0.227198
-0.219214
-0.211743
-0.205117
-0.199149
-0.194514
-0.190473
-0.276616
-0.277238
-0.274359
-0.266659
-0.258884
-0.25045
-0.241473
-0.232386
-0.223484
-0.214991
-0.20712
-0.200101
-0.193754
-0.188715
-0.184138
-0.28249
-0.275897
-0.280878
-0.270612
-0.259588
-0.24926
-0.239172
-0.22924
-0.219647
-0.210603
-0.202292
-0.194861
-0.188149
-0.182743
-0.177722
-0.290252
-0.276094
-0.28486
-0.274277
-0.260733
-0.248253
-0.236788
-0.225929
-0.215628
-0.206018
-0.197241
-0.189394
-0.182334
-0.176599
-0.171209
-0.299706
-0.280932
-0.287336
-0.276986
-0.261781
-0.247311
-0.23432
-0.222425
-0.211382
-0.201197
-0.191951
-0.183692
-0.176305
-0.170276
-0.164577
-0.309947
-0.291089
-0.290035
-0.278618
-0.262258
-0.246169
-0.231696
-0.218704
-0.206879
-0.196109
-0.186397
-0.177741
-0.170052
-0.163757
-0.157787
-0.319651
-0.304077
-0.293922
-0.279488
-0.261923
-0.244557
-0.228786
-0.214716
-0.20209
-0.190727
-0.180557
-0.171525
-0.163556
-0.157023
-0.150815
-0.327307
-0.31598
-0.29858
-0.279965
-0.260772
-0.242308
-0.225453
-0.210397
-0.196985
-0.185032
-0.174411
-0.16502
-0.156795
-0.150053
-0.14365
-0.331911
-0.324403
-0.302481
-0.280068
-0.25894
-0.239383
-0.221601
-0.205678
-0.19153
-0.179002
-0.167941
-0.158207
-0.149741
-0.142824
-0.136288
-0.333457
-0.328986
-0.30476
-0.279557
-0.256527
-0.235826
-0.217192
-0.200504
-0.185685
-0.172615
-0.16113
-0.151064
-0.14237
-0.135307
-0.128703
-0.333209
-0.330498
-0.305283
-0.278221
-0.253544
-0.231688
-0.21222
-0.194839
-0.179417
-0.165847
-0.153962
-0.143577
-0.134663
-0.127468
-0.120833
-0.332395
-0.330024
-0.304252
-0.275964
-0.249947
-0.226986
-0.206694
-0.188663
-0.172697
-0.158675
-0.146419
-0.135739
-0.126621
-0.119292
-0.112565
-0.331827
-0.328486
-0.301992
-0.272788
-0.245682
-0.221708
-0.200614
-0.181964
-0.165502
-0.151073
-0.138484
-0.127545
-0.11826
-0.11081
-0.103762
-0.331831
-0.326413
-0.29878
-0.26874
-0.240707
-0.215821
-0.193967
-0.17473
-0.157812
-0.143021
-0.13014
-0.118987
-0.109601
-0.102091
-0.0943309
-0.332354
-0.324054
-0.294817
-0.263873
-0.234994
-0.209286
-0.186727
-0.166942
-0.14961
-0.134503
-0.121377
-0.110066
-0.100654
-0.0931828
-0.0843494
-0.333097
-0.321481
-0.29021
-0.258218
-0.228512
-0.202055
-0.178856
-0.158575
-0.140881
-0.125513
-0.112199
-0.100795
-0.091431
-0.0839944
-0.074138
-0.33362
-0.318645
-0.284987
-0.251774
-0.221228
-0.194081
-0.170313
-0.149603
-0.131618
-0.116056
-0.10262
-0.0912016
-0.081955
-0.0742867
-0.0640335
-0.333479
-0.315315
-0.279077
-0.244507
-0.213098
-0.18532
-0.161063
-0.14001
-0.121821
-0.106143
-0.0926569
-0.081317
-0.0721966
-0.0640855
-0.0540038
-0.332325
-0.311062
-0.272333
-0.236354
-0.204082
-0.175736
-0.151089
-0.129793
-0.111502
-0.0957788
-0.0823187
-0.071119
-0.0620732
-0.0535498
-0.043947
-0.329816
-0.305548
-0.264575
-0.227233
-0.194139
-0.165314
-0.140397
-0.11897
-0.100665
-0.0849441
-0.0715931
-0.0605764
-0.0515553
-0.0428015
-0.033788
-0.325683
-0.298542
-0.255631
-0.217062
-0.183243
-0.154062
-0.129009
-0.107565
-0.0892603
-0.0736346
-0.0604732
-0.0496692
-0.0406659
-0.0318898
-0.0234974
-0.319715
-0.289881
-0.245356
-0.205768
-0.171391
-0.142008
-0.116927
-0.0955145
-0.0772951
-0.061856
-0.0489567
-0.0383964
-0.0294588
-0.0208104
-0.0130752
-0.311768
-0.279478
-0.233642
-0.193301
-0.158609
-0.129151
-0.104096
-0.0828102
-0.0647813
-0.0496182
-0.037048
-0.0267702
-0.017971
-0.00955177
-0.00252725
-0.301761
-0.267321
-0.220409
-0.179651
-0.144896
-0.115426
-0.0905092
-0.0694592
-0.0517314
-0.0369353
-0.0247599
-0.0148079
-0.00621599
0.00189393
0.00814317
-0.289665
-0.253477
-0.205613
-0.164849
-0.130143
-0.100827
-0.0761777
-0.0554778
-0.0381608
-0.0238242
-0.0121094
-0.00252644
0.00580124
0.0135317
0.0189193
-0.27549
-0.238029
-0.189279
-0.14879
-0.114354
-0.0853706
-0.0611216
-0.0408879
-0.0240894
-0.0103034
0.000886908
0.0100591
0.018068
0.0253435
0.0297592
-0.259281
-0.220961
-0.17153
-0.131436
-0.0975431
-0.0690795
-0.0453683
-0.0257163
-0.00954038
0.00360948
0.0142181
0.0229369
0.0305522
0.0372584
0.0406097
-0.241123
-0.202039
-0.152542
-0.112902
-0.079746
-0.0519844
-0.0289506
-0.00999475
0.00546071
0.0178998
0.0278809
0.0360988
0.0432037
0.0491445
0.0513759
-0.221153
-0.180941
-0.132543
-0.0933479
-0.0610282
-0.0341245
-0.0119056
0.00624178
0.0208867
0.0325551
0.0418755
0.0495347
0.0559645
0.0608387
0.061763
-0.199504
-0.157938
-0.111351
-0.0728812
-0.0414749
-0.0155517
0.00572434
0.0229553
0.0367097
0.0475614
0.0561936
0.0632161
0.0687679
0.0721713
0.0712263
-0.176201
-0.133482
-0.0889109
-0.0515503
-0.0211702
0.00367046
0.0238901
0.0401054
0.0528999
0.0628973
0.0708038
0.0770789
0.0815167
0.0830065
0.0795704
-0.151171
-0.108076
-0.0653338
-0.0293806
-0.000184364
0.0234726
0.0425365
0.0576494
0.0694248
0.0785287
0.0856417
0.0910157
0.0940947
0.0934539
0.0878664
-0.124542
-0.0818926
-0.0407954
-0.00642514
0.0214179
0.0437845
0.0616038
0.0755406
0.0862453
0.0944064
0.100621
0.104908
0.10645
0.104072
0.0983338
-0.0965486
-0.0549207
-0.0154563
0.0172242
0.0435667
0.0645357
0.0810298
0.0937281
0.103313
0.110468
0.115659
0.118695
0.118687
0.115169
0.112888
-0.0674197
-0.0271868
0.0105518
0.041456
0.0661811
0.085654
0.10075
0.112155
0.120571
0.126643
0.130698
0.13241
0.13104
0.127012
0.127058
-0.0373587
0.00122767
0.0371117
0.0661556
0.089171
0.107064
0.120697
0.13076
0.137954
0.142866
0.145708
0.146123
0.14366
0.139546
0.140428
-0.00655543
0.0302024
0.064108
0.0912106
0.112441
0.128685
0.140801
0.149475
0.155395
0.159083
0.160678
0.159864
0.156483
0.152294
0.153077
0.0248106
0.0595984
0.0914214
0.11651
0.135894
0.150434
0.160987
0.168231
0.172831
0.175253
0.175599
0.173641
0.169468
0.165068
0.165209
0.0565647
0.0892688
0.118928
0.141943
0.159431
0.172225
0.181179
0.18696
0.190204
0.191334
0.190445
0.18739
0.18244
0.177649
0.177002
0.0885363
0.119066
0.146502
0.167399
0.182954
0.193972
0.201299
0.20559
0.207455
0.207286
0.205184
0.201076
0.195348
0.190011
0.188495
0.120558
0.148845
0.174016
0.192767
0.206364
0.215586
0.22127
0.224055
0.224528
0.22306
0.219758
0.214606
0.208073
0.202121
0.199732
0.152466
0.178461
0.201344
0.217936
0.229563
0.236981
0.241014
0.242287
0.241367
0.238609
0.234129
0.227948
0.220588
0.213952
0.210679
0.184101
0.207774
0.228362
0.242796
0.252455
0.25807
0.260455
0.260219
0.257912
0.253874
0.248225
0.241021
0.232835
0.225505
0.221334
0.215307
0.236649
0.254949
0.267241
0.274944
0.278768
0.279517
0.277785
0.274106
0.268808
0.262011
0.253798
0.244776
0.236722
0.231657
0.245932
0.264954
0.280988
0.291165
0.296936
0.298993
0.298127
0.294919
0.289888
0.283348
0.275421
0.266221
0.256385
0.247607
0.241626
0.275832
0.29256
0.306365
0.314466
0.318341
0.318664
0.316214
0.31156
0.305205
0.297451
0.288421
0.278253
0.267607
0.258097
0.251211
0.304866
0.319345
0.330969
0.337047
0.339072
0.337703
0.333707
0.327642
0.319996
0.311058
0.300958
0.289858
0.27843
0.268185
0.260385
0.332901
0.345191
0.354696
0.358812
0.359043
0.356034
0.350541
0.343108
0.334212
0.324128
0.312992
0.300989
0.288798
0.277827
0.269123
0.359808
0.369987
0.377444
0.379673
0.378175
0.373585
0.366649
0.357899
0.347797
0.336611
0.324484
0.311621
0.298695
0.287
0.2774
0.385467
0.393625
0.39912
0.399543
0.39639
0.390289
0.381972
0.371961
0.360705
0.348465
0.335391
0.321708
0.308078
0.295677
0.285197
0.409763
0.416006
0.419633
0.418342
0.413617
0.406079
0.39645
0.385241
0.372889
0.35965
0.345683
0.331226
0.316922
0.303829
0.292494
0.43259
0.437035
0.438898
0.435994
0.429788
0.420896
0.41003
0.397692
0.384306
0.370125
0.355319
0.340139
0.325198
0.311438
0.299272
0.453848
0.456627
0.456839
0.452429
0.444839
0.434683
0.422661
0.409267
0.394916
0.379857
0.364272
0.348419
0.332879
0.318478
0.305518
0.473445
0.4747
0.473383
0.467582
0.458713
0.447387
0.434296
0.419925
0.40468
0.388811
0.37251
0.356039
0.339942
0.324932
0.311219
0.491295
0.491184
0.488466
0.481395
0.471356
0.45896
0.444893
0.429628
0.413566
0.396958
0.380005
0.362973
0.346362
0.330782
0.316362
0.507323
0.506015
0.502031
0.493813
0.482719
0.469359
0.45441
0.43834
0.421542
0.40427
0.386734
0.369199
0.352121
0.336012
0.32094
0.521464
0.519138
0.514025
0.504788
0.492759
0.478544
0.462815
0.446031
0.428581
0.410722
0.392673
0.374696
0.3572
0.340609
0.324945
0.533676
0.530489
0.524398
0.514277
0.501437
0.486481
0.470076
0.452674
0.43466
0.416293
0.397802
0.379444
0.361583
0.344563
0.328372
0.543928
0.540012
0.533106
0.522241
0.50872
0.493141
0.476167
0.458245
0.439756
0.420964
0.402104
0.383428
0.365256
0.347863
0.33122
0.552182
0.547671
0.540113
0.528649
0.514579
0.498499
0.481066
0.462725
0.443854
0.424719
0.405563
0.386632
0.368207
0.350505
0.333491
0.558404
0.553438
0.545391
0.533476
0.518992
0.502534
0.484756
0.466098
0.446939
0.427547
0.408169
0.389045
0.370427
0.352486
0.335188
0.562567
0.557294
0.548921
0.536704
0.521944
0.505232
0.487223
0.468354
0.449001
0.429437
0.409911
0.390659
0.371909
0.353805
0.336316
0.564653
0.559225
0.550688
0.538321
0.523422
0.506584
0.488459
0.469483
0.450034
0.430383
0.410784
0.391467
0.372651
0.354463
0.336878
0.564653
0.559224
0.550688
0.538321
0.523422
0.506583
0.488458
0.469483
0.450033
0.430383
0.410783
0.391467
0.372651
0.354463
0.336878
0.562566
0.557292
0.548919
0.536703
0.521943
0.505231
0.487222
0.468353
0.449
0.429436
0.40991
0.390658
0.371908
0.353804
0.336315
0.558402
0.553436
0.545389
0.533474
0.51899
0.502532
0.484754
0.466097
0.446937
0.427545
0.408167
0.389044
0.370425
0.352484
0.335187
0.552179
0.547668
0.54011
0.528646
0.514576
0.498496
0.481064
0.462723
0.443852
0.424717
0.405561
0.38663
0.368205
0.350503
0.333489
0.543924
0.540008
0.533102
0.522237
0.508716
0.493138
0.476164
0.458242
0.439753
0.420961
0.402101
0.383425
0.365254
0.347861
0.331218
0.53367
0.530483
0.524393
0.514272
0.501433
0.486477
0.470072
0.45267
0.434656
0.41629
0.397799
0.379441
0.361581
0.34456
0.328369
0.521457
0.519131
0.514019
0.504783
0.492754
0.478539
0.46281
0.446027
0.428577
0.410718
0.392669
0.374692
0.357197
0.340606
0.324942
0.507315
0.506008
0.502024
0.493807
0.482713
0.469353
0.454405
0.438335
0.421538
0.404266
0.38673
0.369195
0.352118
0.336008
0.320936
0.491287
0.491175
0.488459
0.481388
0.471349
0.458954
0.444887
0.429622
0.413561
0.396953
0.38
0.362969
0.346358
0.330778
0.316358
0.473435
0.474691
0.473375
0.467574
0.458706
0.44738
0.43429
0.419919
0.404674
0.388806
0.372505
0.356034
0.339937
0.324927
0.311215
0.453837
0.456616
0.45683
0.45242
0.444831
0.434675
0.422654
0.409261
0.394909
0.379851
0.364266
0.348413
0.332874
0.318473
0.305514
0.432578
0.437024
0.438888
0.435984
0.429779
0.420888
0.410023
0.397685
0.384299
0.370118
0.355313
0.340133
0.325193
0.311432
0.299267
0.40975
0.415994
0.419621
0.418331
0.413608
0.40607
0.396441
0.385233
0.372882
0.359643
0.345676
0.33122
0.316916
0.303824
0.292488
0.385452
0.393612
0.399108
0.399532
0.39638
0.390279
0.381962
0.371953
0.360697
0.348457
0.335384
0.321701
0.308071
0.29567
0.285191
0.359793
0.369973
0.377431
0.379661
0.378163
0.373574
0.366639
0.35789
0.347788
0.336603
0.324476
0.311614
0.298687
0.286993
0.277394
0.332884
0.345176
0.354682
0.3588
0.359031
0.356022
0.35053
0.343098
0.334203
0.324119
0.312983
0.300981
0.288791
0.27782
0.269116
0.304849
0.319329
0.330954
0.337033
0.339059
0.337691
0.333696
0.327631
0.319986
0.311048
0.300949
0.28985
0.278422
0.268177
0.260378
0.275814
0.292543
0.306349
0.314452
0.318328
0.318652
0.316202
0.311548
0.305195
0.297441
0.288411
0.278244
0.267599
0.258089
0.251204
0.245913
0.264936
0.280972
0.291149
0.296922
0.29898
0.298115
0.294907
0.289877
0.283337
0.275411
0.266212
0.256376
0.247598
0.241618
0.215286
0.236631
0.254932
0.267225
0.274929
0.278754
0.279504
0.277772
0.274094
0.268797
0.262
0.253788
0.244766
0.236713
0.231648
0.18408
0.207755
0.228344
0.242779
0.252439
0.258055
0.260441
0.260205
0.257899
0.253862
0.248214
0.241011
0.232825
0.225496
0.221325
0.152444
0.17844
0.201325
0.217918
0.229547
0.236966
0.241
0.242273
0.241354
0.238597
0.234117
0.227937
0.220578
0.213942
0.210669
0.120535
0.148823
0.173996
0.192749
0.206347
0.21557
0.221255
0.224041
0.224515
0.223047
0.219746
0.214594
0.208062
0.202111
0.199722
0.0885127
0.119044
0.146481
0.16738
0.182936
0.193955
0.201284
0.205576
0.207441
0.207273
0.205171
0.201064
0.195336
0.19
0.188485
0.0565402
0.089246
0.118907
0.141923
0.159413
0.172208
0.181163
0.186944
0.190189
0.19132
0.190432
0.187377
0.182428
0.177638
0.176992
0.0247852
0.0595748
0.0913995
0.11649
0.135875
0.150416
0.16097
0.168216
0.172816
0.175239
0.175586
0.173628
0.169456
0.165056
0.165197
-0.00658163
0.0301781
0.0640854
0.0911895
0.112421
0.128666
0.140783
0.149458
0.155379
0.159069
0.160664
0.159851
0.156471
0.152282
0.153065
-0.0373857
0.00120261
0.0370883
0.0661339
0.0891507
0.107044
0.120679
0.130743
0.137938
0.14285
0.145693
0.146109
0.143647
0.139533
0.140416
-0.0674474
-0.0272126
0.0105278
0.0414336
0.0661601
0.0856343
0.100731
0.112138
0.120555
0.126627
0.130683
0.132396
0.131027
0.126999
0.127045
-0.096577
-0.0549472
-0.0154809
0.0172012
0.0435452
0.0645154
0.0810107
0.09371
0.103296
0.110451
0.115643
0.118681
0.118673
0.115156
0.112874
-0.124571
-0.0819198
-0.0408207
-0.00644877
0.0213957
0.0437637
0.0615842
0.0755221
0.0862277
0.0943897
0.100605
0.104893
0.106435
0.104058
0.0983198
-0.151201
-0.108104
-0.0653597
-0.0294049
-0.00020705
0.0234513
0.0425163
0.0576303
0.0694067
0.0785116
0.0856254
0.0910001
0.0940798
0.0934394
0.087852
-0.176231
-0.13351
-0.0889374
-0.0515751
-0.0211934
0.0036486
0.0238695
0.0400859
0.0528814
0.0628797
0.070787
0.0770629
0.0815014
0.0829917
0.0795558
-0.199535
-0.157967
-0.111378
-0.0729065
-0.0414987
-0.015574
0.00570322
0.0229353
0.0366907
0.0475433
0.0561763
0.0631997
0.0687522
0.0721561
0.0712116
-0.221185
-0.180971
-0.13257
-0.0933737
-0.0610525
-0.0341473
-0.0119272
0.00622132
0.0208673
0.0325366
0.0418579
0.0495178
0.0559484
0.0608233
0.0617481
-0.241155
-0.202069
-0.15257
-0.112929
-0.0797707
-0.0520077
-0.0289727
-0.0100156
0.00544085
0.0178809
0.0278629
0.0360816
0.0431872
0.0491287
0.0513607
-0.259313
-0.220992
-0.171558
-0.131462
-0.0975683
-0.0691032
-0.0453908
-0.0257377
-0.00956066
0.00359015
0.0141997
0.0229192
0.0305353
0.0372423
0.0405942
-0.275523
-0.238061
-0.189308
-0.148817
-0.11438
-0.0853948
-0.0611445
-0.0409096
-0.0241101
-0.0103232
0.000868064
0.010041
0.0180507
0.0253271
0.0297434
-0.289698
-0.253508
-0.205642
-0.164877
-0.130169
-0.100852
-0.0762011
-0.0555
-0.0381819
-0.0238443
-0.0121286
-0.00254483
0.00578364
0.0135148
0.0189031
-0.301795
-0.267353
-0.220439
-0.179679
-0.144923
-0.115451
-0.090533
-0.0694817
-0.0517529
-0.0369558
-0.0247795
-0.0148267
-0.00623395
0.00187673
0.00812666
-0.311802
-0.27951
-0.233672
-0.193329
-0.158636
-0.129177
-0.10412
-0.0828331
-0.0648031
-0.0496391
-0.037068
-0.0267893
-0.0179893
-0.00956932
-0.00254408
-0.319749
-0.289913
-0.245386
-0.205797
-0.171418
-0.142033
-0.116951
-0.0955378
-0.0773173
-0.0618772
-0.048977
-0.0384159
-0.0294775
-0.0208283
-0.0130923
-0.325717
-0.298574
-0.255661
-0.217091
-0.183271
-0.154088
-0.129033
-0.107588
-0.0892828
-0.0736562
-0.0604939
-0.049689
-0.0406849
-0.031908
-0.0235149
-0.32985
-0.305581
-0.264606
-0.227262
-0.194167
-0.16534
-0.140422
-0.118994
-0.100688
-0.0849661
-0.0716141
-0.0605966
-0.0515746
-0.0428201
-0.0338058
-0.332359
-0.311095
-0.272364
-0.236383
-0.20411
-0.175763
-0.151115
-0.129817
-0.111525
-0.095801
-0.08234
-0.0711394
-0.0620929
-0.0535687
-0.0439651
-0.333514
-0.315348
-0.279108
-0.244537
-0.213127
-0.185347
-0.161089
-0.140034
-0.121845
-0.106166
-0.0926785
-0.0813378
-0.0722165
-0.0641047
-0.0540222
-0.333655
-0.318678
-0.285018
-0.251804
-0.221256
-0.194109
-0.170339
-0.149628
-0.131642
-0.116079
-0.102642
-0.0912227
-0.0819752
-0.0743062
-0.0640521
-0.333131
-0.321515
-0.290242
-0.258248
-0.228541
-0.202083
-0.178882
-0.1586
-0.140906
-0.125536
-0.112221
-0.100816
-0.0914516
-0.0840142
-0.0741569
-0.332388
-0.324087
-0.294849
-0.263904
-0.235023
-0.209314
-0.186754
-0.166968
-0.149635
-0.134526
-0.1214
-0.110088
-0.100675
-0.0932029
-0.0843686
-0.331865
-0.326447
-0.298813
-0.268771
-0.240737
-0.215849
-0.193994
-0.174756
-0.157837
-0.143045
-0.130163
-0.119009
-0.109622
-0.102111
-0.0943505
-0.331861
-0.32852
-0.302025
-0.27282
-0.245711
-0.221736
-0.200642
-0.18199
-0.165527
-0.151097
-0.138508
-0.127567
-0.118282
-0.11083
-0.103782
-0.332429
-0.330058
-0.304285
-0.275995
-0.249977
-0.227015
-0.206722
-0.188689
-0.172722
-0.158699
-0.146443
-0.135762
-0.126643
-0.119313
-0.112585
-0.333243
-0.330532
-0.305316
-0.278253
-0.253574
-0.231717
-0.212248
-0.194865
-0.179443
-0.165872
-0.153986
-0.1436
-0.134685
-0.127489
-0.120853
-0.333491
-0.329021
-0.304794
-0.279588
-0.256557
-0.235856
-0.21722
-0.200531
-0.185711
-0.17264
-0.161154
-0.151087
-0.142392
-0.135328
-0.128724
-0.331946
-0.324439
-0.302514
-0.2801
-0.258971
-0.239413
-0.22163
-0.205705
-0.191556
-0.179027
-0.167965
-0.15823
-0.149764
-0.142846
-0.136309
-0.327342
-0.316016
-0.298614
-0.279997
-0.260803
-0.242338
-0.225481
-0.210424
-0.197012
-0.185058
-0.174435
-0.165044
-0.156817
-0.150075
-0.143671
-0.319686
-0.304113
-0.293955
-0.27952
-0.261954
-0.244587
-0.228814
-0.214743
-0.202116
-0.190753
-0.180582
-0.171549
-0.163579
-0.157045
-0.150836
-0.309983
-0.291124
-0.290068
-0.278651
-0.262289
-0.246199
-0.231725
-0.218731
-0.206906
-0.196134
-0.186422
-0.177765
-0.170075
-0.16378
-0.157808
-0.299741
-0.280965
-0.287369
-0.277019
-0.261812
-0.247342
-0.234349
-0.222453
-0.211409
-0.201223
-0.191977
-0.183717
-0.176329
-0.170299
-0.164599
-0.290287
-0.276126
-0.284893
-0.27431
-0.260765
-0.248284
-0.236817
-0.225957
-0.215655
-0.206044
-0.197267
-0.189418
-0.182358
-0.176621
-0.171231
-0.282524
-0.275929
-0.280911
-0.270645
-0.25962
-0.249291
-0.239201
-0.229269
-0.219674
-0.21063
-0.202317
-0.194886
-0.188173
-0.182766
-0.177744
-0.276649
-0.277271
-0.274393
-0.266692
-0.258915
-0.25048
-0.241503
-0.232415
-0.223512
-0.215017
-0.207146
-0.200126
-0.193778
-0.188738
-0.18416
-0.272382
-0.277395
-0.266054
-0.263704
-0.258938
-0.251739
-0.24369
-0.23545
-0.227226
-0.219241
-0.211769
-0.205143
-0.199174
-0.194537
-0.190496
-0.269317
-0.275407
-0.259093
-0.262873
-0.259322
-0.252836
-0.245804
-0.238473
-0.230879
-0.223322
-0.216185
-0.209929
-0.204354
-0.200154
-0.196746
-0.267144
-0.271458
-0.257219
-0.263159
-0.259172
-0.253725
-0.248005
-0.241588
-0.234512
-0.22727
-0.22039
-0.214474
-0.209311
-0.205584
-0.2029
-0.265498
-0.26669
-0.259777
-0.261384
-0.258064
-0.254707
-0.250495
-0.24487
-0.238143
-0.231076
-0.22436
-0.218751
-0.214023
-0.210806
-0.208945
-0.264147
-0.262875
-0.262364
-0.256088
-0.256687
-0.256212
-0.253367
-0.248346
-0.241779
-0.234725
-0.228069
-0.222728
-0.218468
-0.215816
-0.21486
-0.263119
-0.260815
-0.262915
-0.250699
-0.256778
-0.258338
-0.256604
-0.25205
-0.24542
-0.238176
-0.23146
-0.226354
-0.222609
-0.22059
-0.220634
-0.262347
-0.260237
-0.261407
-0.251287
-0.258189
-0.260802
-0.2603
-0.256051
-0.249052
-0.241375
-0.234467
-0.229563
-0.226406
-0.225116
-0.226245
-0.26173
-0.260403
-0.259601
-0.256853
-0.258587
-0.263657
-0.264714
-0.260393
-0.25262
-0.244222
-0.236983
-0.232267
-0.229794
-0.229367
-0.231703
-0.261291
-0.260608
-0.25943
-0.261369
-0.258397
-0.267696
-0.269888
-0.265013
-0.256034
-0.246596
-0.238879
-0.234353
-0.23271
-0.233318
-0.237
-0.260886
-0.260741
-0.260526
-0.263516
-0.261899
-0.272921
-0.275497
-0.269777
-0.259133
-0.24829
-0.239979
-0.235704
-0.235067
-0.236947
-0.242162
-0.260322
-0.260696
-0.261787
-0.264695
-0.269402
-0.277781
-0.281231
-0.274547
-0.261672
-0.249045
-0.240063
-0.236175
-0.23679
-0.240216
-0.247193
-0.259477
-0.260375
-0.262558
-0.266046
-0.275845
-0.281825
-0.286998
-0.278925
-0.263225
-0.2485
-0.238897
-0.235632
-0.237792
-0.243115
-0.252132
-0.258296
-0.259666
-0.262589
-0.267128
-0.278386
-0.286302
-0.292172
-0.282245
-0.263255
-0.246251
-0.236209
-0.23393
-0.238
-0.245599
-0.257008
-0.256823
-0.258541
-0.261774
-0.267294
-0.277954
-0.290708
-0.294734
-0.283597
-0.261101
-0.241893
-0.231799
-0.230955
-0.237347
-0.247685
-0.261885
-0.255221
-0.257148
-0.260418
-0.266255
-0.275968
-0.291551
-0.293652
-0.282212
-0.256057
-0.235082
-0.225492
-0.226628
-0.235814
-0.249376
-0.266841
-0.25376
-0.255776
-0.258897
-0.264424
-0.273149
-0.286793
-0.289738
-0.277129
-0.247658
-0.225784
-0.217307
-0.220949
-0.233448
-0.250776
-0.271996
-0.252741
-0.254766
-0.257664
-0.262541
-0.269637
-0.279184
-0.283075
-0.266936
-0.235919
-0.214303
-0.207465
-0.214126
-0.230426
-0.252027
-0.277516
-0.252387
-0.254375
-0.257094
-0.261266
-0.266355
-0.271451
-0.271741
-0.252927
-0.221974
-0.201488
-0.196556
-0.206631
-0.227132
-0.253434
-0.283621
-0.252731
-0.254643
-0.257263
-0.260838
-0.264073
-0.264902
-0.258797
-0.238221
-0.207472
-0.188713
-0.185736
-0.199445
-0.224165
-0.255493
-0.290618
-0.253592
-0.25534
-0.257893
-0.261018
-0.262848
-0.260263
-0.248676
-0.225458
-0.195552