/*--------------------------------*- C++ -*----------------------------------*\
  =========                 |
  \\      /  F ield         | OpenFOAM: The Open Source CFD Toolbox
   \\    /   O peration     | Website:  https://openfoam.org
    \\  /    A nd           | Version:  7
     \\/     M anipulation  |
\*---------------------------------------------------------------------------*/
FoamFile
{
    version     2.0;
    format      ascii;
    class       volScalarField;
    location    "23.001";
    object      p;
}
// * * * * * * * * * * * * * * * * * * * * * * * * * * * * * * * * * * * * * //

dimensions      [0 2 -2 0 0 0 0];

internalField   nonuniform List<scalar> 
18750
(
-0.0187866
-0.028946
-0.0467621
-0.072983
-0.10596
-0.144882
-0.188643
-0.236327
-0.287016
-0.339956
-0.394437
-0.44978
-0.50527
-0.560216
-0.614022
-0.0226267
-0.0325188
-0.0500874
-0.0760904
-0.108883
-0.147651
-0.191282
-0.23885
-0.289426
-0.342255
-0.396633
-0.451891
-0.507295
-0.562106
-0.615704
-0.0302128
-0.0395828
-0.0566639
-0.0822368
-0.114664
-0.153123
-0.196493
-0.243826
-0.294172
-0.346768
-0.400927
-0.455994
-0.511213
-0.565762
-0.618972
-0.0412355
-0.049857
-0.0662275
-0.091172
-0.123061
-0.161061
-0.204035
-0.251008
-0.301
-0.353232
-0.407035
-0.461784
-0.516705
-0.570882
-0.623572
-0.0552538
-0.0629373
-0.0783988
-0.10254
-0.133733
-0.171129
-0.213573
-0.260058
-0.309567
-0.361297
-0.414594
-0.468873
-0.523367
-0.577081
-0.629175
-0.0717233
-0.0783103
-0.0927022
-0.115899
-0.146261
-0.182922
-0.224705
-0.270575
-0.319471
-0.370562
-0.423199
-0.476846
-0.530778
-0.583952
-0.635423
-0.0900406
-0.0953658
-0.108592
-0.130752
-0.160177
-0.195988
-0.236993
-0.282126
-0.330289
-0.380612
-0.432445
-0.485302
-0.538534
-0.591104
-0.641964
-0.109529
-0.113457
-0.125491
-0.146571
-0.174988
-0.20986
-0.249984
-0.294273
-0.341597
-0.391044
-0.44195
-0.493879
-0.546283
-0.598192
-0.648482
-0.12946
-0.131935
-0.142825
-0.162828
-0.190199
-0.22407
-0.263237
-0.306595
-0.352992
-0.401479
-0.45137
-0.502263
-0.553726
-0.604919
-0.654694
-0.149103
-0.150166
-0.160045
-0.179014
-0.205334
-0.238177
-0.276336
-0.3187
-0.364104
-0.411575
-0.460399
-0.510187
-0.56062
-0.611038
-0.660351
-0.167765
-0.167571
-0.176648
-0.194653
-0.219955
-0.251773
-0.288902
-0.330233
-0.374604
-0.421029
-0.468766
-0.517422
-0.566764
-0.616343
-0.665226
-0.184816
-0.183664
-0.192184
-0.20932
-0.233668
-0.264495
-0.3006
-0.340887
-0.384207
-0.429575
-0.476234
-0.52377
-0.571994
-0.620657
-0.669106
-0.199728
-0.198118
-0.206257
-0.222642
-0.246137
-0.276034
-0.311142
-0.350396
-0.392666
-0.436982
-0.482587
-0.529048
-0.576168
-0.623837
-0.671781
-0.21211
-0.210696
-0.218516
-0.23432
-0.25709
-0.286135
-0.320289
-0.358536
-0.399775
-0.443056
-0.487635
-0.533079
-0.579162
-0.625784
-0.673028
-0.221956
-0.221039
-0.228694
-0.244133
-0.266321
-0.294595
-0.327847
-0.365127
-0.405362
-0.447633
-0.491212
-0.535688
-0.580831
-0.626445
-0.672612
-0.229297
-0.228967
-0.236737
-0.251949
-0.273689
-0.301268
-0.333672
-0.370024
-0.409285
-0.450573
-0.493179
-0.53671
-0.580995
-0.62576
-0.670511
-0.234262
-0.234549
-0.242627
-0.257776
-0.279118
-0.30606
-0.33767
-0.373123
-0.411427
-0.451758
-0.493423
-0.536022
-0.579459
-0.623554
-0.666949
-0.237162
-0.238037
-0.246425
-0.261581
-0.282606
-0.308959
-0.339809
-0.374351
-0.411698
-0.451086
-0.491846
-0.533536
-0.576117
-0.619588
-0.661967
-0.238476
-0.239769
-0.248284
-0.263406
-0.284153
-0.309945
-0.340036
-0.373678
-0.410059
-0.448494
-0.488371
-0.529183
-0.570853
-0.61384
-0.655264
-0.238763
-0.240097
-0.248398
-0.263368
-0.283821
-0.309045
-0.338353
-0.37108
-0.406482
-0.443932
-0.48292
-0.522911
-0.563577
-0.606243
-0.646645
-0.238521
-0.239301
-0.246969
-0.261636
-0.281728
-0.306334
-0.334808
-0.36657
-0.400954
-0.43736
-0.475404
-0.514678
-0.554213
-0.596682
-0.63605
-0.238012
-0.237499
-0.244205
-0.258418
-0.27803
-0.301927
-0.329488
-0.360198
-0.393488
-0.428772
-0.465734
-0.504438
-0.542713
-0.585061
-0.623457
-0.23715
-0.234646
-0.240365
-0.253962
-0.272903
-0.295963
-0.322511
-0.352046
-0.384119
-0.418218
-0.453842
-0.49213
-0.529058
-0.571342
-0.608855
-0.235591
-0.230753
-0.235814
-0.248537
-0.26654
-0.28861
-0.314023
-0.342227
-0.372887
-0.405786
-0.439715
-0.477686
-0.513229
-0.555512
-0.592332
-0.233063
-0.226277
-0.230994
-0.242416
-0.259169
-0.280076
-0.304203
-0.330903
-0.359832
-0.391553
-0.42342
-0.46105
-0.495229
-0.537467
-0.574057
-0.229578
-0.222188
-0.22627
-0.235889
-0.251094
-0.270637
-0.293253
-0.318288
-0.345035
-0.375556
-0.405104
-0.442193
-0.475158
-0.517068
-0.554007
-0.225576
-0.219246
-0.221801
-0.229306
-0.24272
-0.260639
-0.281403
-0.304624
-0.328659
-0.357786
-0.384956
-0.421059
-0.453355
-0.494385
-0.532093
-0.22171
-0.217354
-0.217677
-0.223149
-0.234535
-0.250519
-0.26893
-0.290119
-0.311018
-0.33821
-0.363254
-0.397425
-0.430089
-0.469727
-0.508505
-0.218497
-0.215863
-0.214242
-0.217987
-0.227052
-0.240764
-0.256233
-0.274961
-0.292504
-0.316843
-0.340415
-0.371244
-0.40525
-0.443074
-0.483964
-0.216083
-0.214393
-0.212003
-0.214198
-0.22073
-0.231902
-0.243838
-0.259356
-0.273642
-0.293709
-0.31685
-0.342752
-0.379162
-0.413164
-0.459657
-0.214383
-0.213007
-0.210962
-0.211782
-0.215939
-0.224384
-0.232467
-0.243601
-0.254902
-0.269253
-0.292665
-0.312971
-0.351811
-0.380848
-0.429764
-0.21322
-0.211977
-0.210556
-0.210566
-0.212919
-0.218543
-0.222776
-0.228441
-0.236583
-0.24446
-0.267728
-0.283764
-0.323012
-0.350633
-0.398526
-0.212388
-0.211334
-0.210432
-0.210338
-0.211637
-0.214557
-0.215193
-0.21468
-0.219151
-0.220545
-0.2423
-0.25611
-0.296741
-0.322618
-0.372722
-0.211735
-0.210941
-0.21054
-0.210783
-0.211675
-0.212338
-0.209718
-0.203399
-0.202766
-0.199523
-0.215906
-0.231565
-0.268235
-0.298987
-0.352239
-0.211099
-0.21064
-0.210799
-0.211553
-0.212358
-0.21147
-0.205866
-0.195289
-0.187964
-0.18212
-0.191078
-0.209962
-0.241928
-0.279224
-0.330524
-0.210344
-0.210276
-0.211001
-0.212245
-0.213053
-0.211282
-0.203149
-0.189958
-0.176213
-0.168048
-0.172581
-0.191844
-0.222002
-0.264487
-0.308221
-0.209376
-0.20972
-0.210923
-0.212572
-0.213351
-0.211092
-0.201203
-0.18643
-0.168007
-0.157403
-0.160159
-0.179372
-0.208066
-0.251821
-0.291862
-0.208161
-0.208892
-0.210415
-0.212319
-0.213023
-0.210439
-0.199697
-0.183799
-0.163068
-0.150661
-0.152516
-0.172093
-0.199719
-0.240635
-0.280136
-0.206752
-0.207794
-0.20945
-0.211436
-0.212065
-0.209137
-0.19849
-0.181747
-0.160982
-0.148206
-0.149615
-0.168446
-0.195623
-0.232261
-0.270439
-0.205304
-0.206544
-0.20816
-0.210068
-0.210564
-0.207656
-0.197984
-0.181327
-0.161324
-0.149744
-0.151223
-0.168194
-0.194115
-0.22652
-0.261963
-0.204061
-0.205394
-0.206873
-0.208577
-0.209156
-0.206903
-0.199489
-0.184158
-0.164443
-0.154459
-0.156058
-0.170721
-0.194103
-0.222606
-0.254509
-0.203284
-0.204647
-0.206012
-0.207731
-0.208618
-0.207484
-0.203178
-0.189489
-0.170498
-0.160915
-0.162389
-0.174708
-0.194985
-0.219758
-0.247865
-0.203145
-0.204511
-0.205876
-0.207754
-0.209219
-0.209387
-0.207628
-0.195027
-0.177765
-0.16816
-0.169031
-0.179137
-0.196247
-0.217411
-0.241876
-0.203664
-0.205012
-0.206451
-0.208572
-0.210726
-0.21227
-0.209672
-0.200273
-0.18471
-0.175373
-0.17537
-0.183324
-0.197471
-0.215288
-0.236373
-0.204711
-0.20601
-0.207533
-0.209843
-0.212535
-0.215436
-0.210721
-0.203642
-0.190468
-0.181831
-0.180938
-0.186908
-0.198402
-0.213168
-0.231209
-0.20609
-0.207291
-0.208822
-0.211166
-0.214533
-0.216384
-0.212457
-0.205469
-0.194656
-0.187054
-0.1855
-0.189743
-0.198874
-0.210939
-0.226279
-0.207596
-0.208649
-0.210061
-0.212215
-0.216707
-0.215326
-0.213564
-0.20659
-0.197453
-0.190894
-0.188918
-0.191744
-0.198829
-0.208527
-0.221479
-0.209072
-0.209937
-0.211059
-0.213133
-0.21759
-0.215197
-0.213441
-0.20696
-0.19911
-0.193409
-0.191186
-0.192913
-0.198236
-0.205888
-0.216751
-0.210426
-0.211081
-0.211667
-0.214375
-0.215176
-0.215752
-0.212892
-0.206748
-0.19987
-0.194798
-0.192402
-0.193265
-0.1971
-0.203013
-0.212026
-0.211636
-0.212007
-0.211976
-0.21568
-0.212189
-0.215057
-0.211964
-0.206108
-0.19992
-0.195255
-0.192697
-0.192867
-0.195444
-0.199887
-0.207268
-0.212761
-0.212672
-0.21256
-0.215251
-0.212039
-0.213592
-0.210593
-0.205129
-0.199416
-0.194969
-0.192225
-0.191794
-0.193297
-0.196514
-0.202435
-0.213875
-0.213133
-0.214043
-0.212109
-0.213325
-0.212541
-0.20905
-0.203852
-0.198452
-0.194079
-0.191108
-0.19013
-0.190707
-0.192886
-0.197493
-0.215003
-0.213512
-0.216278
-0.208346
-0.213073
-0.211565
-0.207524
-0.202368
-0.197111
-0.192695
-0.189462
-0.187957
-0.187718
-0.18901
-0.192422
-0.21612
-0.214437
-0.217373
-0.208705
-0.211931
-0.210349
-0.206031
-0.20075
-0.195459
-0.190897
-0.187361
-0.185346
-0.184379
-0.184892
-0.187197
-0.217284
-0.216599
-0.216247
-0.213151
-0.211961
-0.209133
-0.204465
-0.198988
-0.193542
-0.188747
-0.184876
-0.182355
-0.18073
-0.180541
-0.181821
-0.21858
-0.220107
-0.213334
-0.216562
-0.212921
-0.208239
-0.202893
-0.197097
-0.191393
-0.186292
-0.182049
-0.179026
-0.1768
-0.175969
-0.176298
-0.220088
-0.224155
-0.211087
-0.217039
-0.213468
-0.20761
-0.201399
-0.195103
-0.189033
-0.183561
-0.178917
-0.175395
-0.172611
-0.171186
-0.170651
-0.222111
-0.227238
-0.213211
-0.216377
-0.213232
-0.206922
-0.199951
-0.193037
-0.186488
-0.18058
-0.175501
-0.171481
-0.168176
-0.166201
-0.1649
-0.225031
-0.228586
-0.219709
-0.217145
-0.212722
-0.206007
-0.198424
-0.190868
-0.183762
-0.177359
-0.171817
-0.167301
-0.163505
-0.161022
-0.159061
-0.229182
-0.228258
-0.226924
-0.219918
-0.212721
-0.204963
-0.196723
-0.188536
-0.180839
-0.173901
-0.167872
-0.162861
-0.158603
-0.155657
-0.153137
-0.235009
-0.227107
-0.232494
-0.223488
-0.213437
-0.204005
-0.194851
-0.185984
-0.177682
-0.170192
-0.163662
-0.158165
-0.153473
-0.150108
-0.147115
-0.24255
-0.228162
-0.235994
-0.226765
-0.214531
-0.203198
-0.192847
-0.183189
-0.174256
-0.166211
-0.159181
-0.153209
-0.148113
-0.144369
-0.140971
-0.251444
-0.233751
-0.238465
-0.229187
-0.215489
-0.202408
-0.190712
-0.18014
-0.170534
-0.161932
-0.154411
-0.147987
-0.142516
-0.138428
-0.134673
-0.260901
-0.243818
-0.24133
-0.230687
-0.215896
-0.20138
-0.188374
-0.176821
-0.1665
-0.157335
-0.149337
-0.142486
-0.13667
-0.132269
-0.128195
-0.269601
-0.255775
-0.245223
-0.231555
-0.215556
-0.199881
-0.185716
-0.173194
-0.162136
-0.152404
-0.143942
-0.136689
-0.130556
-0.125876
-0.121526
-0.276279
-0.266249
-0.249584
-0.23208
-0.214482
-0.197768
-0.182618
-0.169203
-0.15742
-0.147124
-0.13821
-0.130577
-0.124154
-0.119229
-0.114663
-0.280192
-0.273443
-0.253064
-0.232213
-0.212785
-0.195018
-0.179002
-0.16479
-0.152323
-0.14148
-0.132127
-0.124131
-0.117437
-0.112307
-0.107594
-0.28155
-0.277286
-0.255006
-0.231717
-0.210532
-0.191666
-0.174835
-0.159909
-0.146816
-0.135456
-0.125681
-0.117337
-0.110387
-0.105078
-0.10028
-0.281525
-0.278565
-0.255355
-0.23041
-0.207712
-0.187745
-0.170115
-0.15453
-0.14087
-0.129031
-0.11886
-0.110187
-0.102992
-0.0975154
-0.0926382
-0.281124
-0.278202
-0.25431
-0.228215
-0.204273
-0.183263
-0.164843
-0.148638
-0.134462
-0.122188
-0.111651
-0.102677
-0.0952615
-0.0896176
-0.084539
-0.280952
-0.276922
-0.252148
-0.225137
-0.200164
-0.178198
-0.159016
-0.142221
-0.127572
-0.114906
-0.104041
-0.0948044
-0.0872145
-0.0814268
-0.0758487
-0.281205
-0.275119
-0.249091
-0.221212
-0.195345
-0.172517
-0.152615
-0.135264
-0.120184
-0.107171
-0.0960181
-0.0865676
-0.0788688
-0.0730113
-0.06653
-0.281769
-0.272973
-0.245293
-0.216481
-0.189786
-0.166179
-0.145613
-0.127749
-0.112283
-0.0989712
-0.0875807
-0.0779722
-0.0702375
-0.0643853
-0.0567622
-0.282335
-0.270519
-0.24083
-0.21096
-0.183458
-0.159141
-0.137976
-0.119655
-0.103858
-0.0903057
-0.078738
-0.0690388
-0.0613454
-0.0554206
-0.0469688
-0.282496
-0.267676
-0.235701
-0.204637
-0.176323
-0.151359
-0.129671
-0.110963
-0.0949037
-0.08118
-0.0695085
-0.059799
-0.0522251
-0.0459356
-0.0373069
-0.281873
-0.264177
-0.229821
-0.197472
-0.168344
-0.142797
-0.120672
-0.101664
-0.085423
-0.0716051
-0.0599087
-0.0502819
-0.0427885
-0.0360368
-0.0276947
-0.280151
-0.259647
-0.223047
-0.1894
-0.15948
-0.133426
-0.11097
-0.0917671
-0.0754275
-0.0615885
-0.0499328
-0.0404506
-0.0329803
-0.0258738
-0.0180374
-0.277032
-0.253813
-0.21522
-0.180349
-0.149699
-0.12324
-0.100576
-0.0812829
-0.0649201
-0.0511064
-0.0395773
-0.030274
-0.0227964
-0.0155376
-0.00828073
-0.272288
-0.246487
-0.206194
-0.170251
-0.138982
-0.112255
-0.0895071
-0.0701954
-0.0538717
-0.0401674
-0.0288389
-0.0197395
-0.012274
-0.00505109
0.00159308
-0.265741
-0.237546
-0.195849
-0.159056
-0.127338
-0.100492
-0.0777305
-0.0584801
-0.0422845
-0.0287812
-0.0177191
-0.00885358
-0.00146222
0.00560147
0.0115873
-0.25728
-0.226935
-0.184087
-0.146738
-0.114796
-0.0879118
-0.065225
-0.0461375
-0.0301693
-0.0169587
-0.0062267
0.00236804
0.00961635
0.0164346
0.0217026
-0.246848
-0.214669
-0.170834
-0.133295
-0.101326
-0.0744925
-0.0519939
-0.0331785
-0.0175413
-0.00471414
0.00562447
0.0139083
0.0209542
0.0274572
0.0319294
-0.234431
-0.200815
-0.156083
-0.118698
-0.0868756
-0.0602437
-0.0380535
-0.0196207
-0.00441882
0.00793634
0.0178198
0.0257528
0.0325414
0.038657
0.0422335
-0.220047
-0.18541
-0.139952
-0.102858
-0.0714342
-0.0451841
-0.0234284
-0.00548831
0.00917696
0.0209764
0.0303489
0.037891
0.0443522
0.0499733
0.0525613
-0.203754
-0.168357
-0.122559
-0.0858294
-0.0550201
-0.0293379
-0.0081487
0.00918967
0.0232222
0.0343918
0.0432078
0.0503153
0.0563425
0.0612871
0.0628132
-0.185657
-0.14941
-0.104071
-0.0677442
-0.0376839
-0.0127368
0.00775149
0.0243802
0.0376914
0.04817
0.0563952
0.0630146
0.0684561
0.0724434
0.0727164
-0.165897
-0.128525
-0.0845087
-0.0487286
-0.0195013
0.00457511
0.0242336
0.0400476
0.0525579
0.0622975
0.0699027
0.0759593
0.0806229
0.0832739
0.0817901
-0.144569
-0.105998
-0.0637752
-0.0288606
-0.00055602
0.0225414
0.0412535
0.0561543
0.0677941
0.0767547
0.0837013
0.0890868
0.0927431
0.0936383
0.0898716
-0.121648
-0.0822899
-0.0419018
-0.008179
0.0190756
0.0410972
0.0587608
0.0726603
0.0833692
0.0915108
0.097733
0.102297
0.104704
0.103624
0.097922
-0.0971025
-0.0577979
-0.0190323
0.0132779
0.0393275
0.0601744
0.0767
0.0895225
0.0992473
0.106521
0.111919
0.115484
0.116462
0.113748
0.107895
-0.0711506
-0.0325543
0.00467255
0.0354387
0.0601339
0.0797047
0.095012
0.106693
0.115384
0.121727
0.126183
0.128593
0.12812
0.124297
0.121545
-0.0440123
-0.00656121
0.029075
0.0582043
0.0814211
0.0996186
0.113635
0.124118
0.131724
0.137065
0.140471
0.14165
0.139895
0.135545
0.134877
-0.0158982
0.020122
0.0540569
0.0814659
0.103106
0.119844
0.132505
0.14174
0.148209
0.152473
0.154753
0.154721
0.151927
0.147452
0.147539
0.013006
0.0473945
0.0795058
0.105114
0.125098
0.140305
0.151554
0.159494
0.164774
0.167899
0.169016
0.167831
0.164158
0.159583
0.159606
0.0425211
0.0751267
0.105307
0.129041
0.147304
0.160922
0.170711
0.177314
0.18136
0.183302
0.18325
0.180985
0.176551
0.171766
0.171232
0.0724772
0.10318
0.131343
0.15314
0.169629
0.181613
0.189903
0.195133
0.197908
0.19864
0.197428
0.194125
0.188948
0.183801
0.182564
0.102706
0.13141
0.157491
0.177302
0.191977
0.202293
0.209055
0.212884
0.214364
0.213874
0.21152
0.207218
0.201301
0.195653
0.193626
0.133045
0.159674
0.183627
0.201419
0.214252
0.222877
0.228091
0.230502
0.23067
0.228957
0.225469
0.220178
0.213499
0.207286
0.204454
0.163333
0.187833
0.209629
0.225384
0.236359
0.243281
0.246936
0.247919
0.246772
0.243842
0.239238
0.232971
0.225513
0.218667
0.215015
0.193413
0.215748
0.235375
0.249089
0.258203
0.263419
0.265514
0.26507
0.262612
0.258471
0.25276
0.245524
0.237284
0.229793
0.225305
0.223131
0.243286
0.260746
0.272429
0.279689
0.283209
0.283753
0.281891
0.278134
0.272797
0.265998
0.257804
0.248775
0.240609
0.235284
0.25234
0.270315
0.285626
0.295301
0.300727
0.302569
0.30158
0.298317
0.293277
0.286761
0.278889
0.269758
0.259958
0.251113
0.24493
0.280894
0.296711
0.309902
0.317603
0.321226
0.321419
0.318924
0.314286
0.307988
0.300319
0.291399
0.281347
0.270781
0.261248
0.254213
0.308655
0.32235
0.333466
0.339239
0.3411
0.339682
0.335716
0.329735
0.322208
0.313413
0.303474
0.292535
0.281226
0.271001
0.263104
0.33549
0.347118
0.356212
0.360115
0.360265
0.357283
0.351889
0.344606
0.335888
0.326001
0.315075
0.303276
0.291244
0.280333
0.27158
0.361273
0.370901
0.378042
0.380142
0.378641
0.37415
0.36738
0.35884
0.348971
0.338035
0.326163
0.313544
0.300812
0.289217
0.279616
0.385882
0.393594
0.39886
0.399234
0.396153
0.390217
0.382127
0.372384
0.361414
0.34947
0.336695
0.323294
0.309892
0.297628
0.28719
0.409205
0.415099
0.418577
0.417311
0.412726
0.405416
0.396073
0.385183
0.373167
0.360269
0.34664
0.3325
0.318456
0.305536
0.294283
0.431135
0.435319
0.437109
0.434298
0.428295
0.419689
0.409162
0.397192
0.384187
0.370389
0.355958
0.341126
0.326477
0.312921
0.300877
0.451571
0.45417
0.454378
0.450123
0.442795
0.432977
0.421344
0.408364
0.394434
0.379797
0.36462
0.349145
0.333924
0.319759
0.306956
0.470422
0.47157
0.470311
0.464723
0.456168
0.44523
0.432572
0.418655
0.40387
0.388457
0.372594
0.356528
0.340775
0.32603
0.312506
0.487603
0.487448
0.484846
0.478038
0.46836
0.456396
0.442802
0.428029
0.412462
0.39634
0.379853
0.36325
0.347007
0.331717
0.317516
0.503037
0.501742
0.497922
0.490014
0.479324
0.466434
0.451994
0.43645
0.420177
0.403418
0.386372
0.369288
0.352599
0.336803
0.321975
0.516659
0.514393
0.509489
0.500602
0.489014
0.475304
0.460115
0.443886
0.426988
0.409666
0.392127
0.37462
0.357532
0.341275
0.325878
0.528429
0.525339
0.519495
0.509758
0.497391
0.48297
0.467132
0.45031
0.43287
0.415062
0.397099
0.379227
0.36179
0.345121
0.329218
0.538312
0.534524
0.527897
0.517444
0.504423
0.489404
0.47302
0.455698
0.437803
0.419586
0.401269
0.383092
0.365359
0.348333
0.331994
0.546269
0.54191
0.534656
0.523629
0.51008
0.494579
0.477755
0.460031
0.441769
0.423223
0.404623
0.386201
0.368225
0.350903
0.334206
0.552267
0.547471
0.539748
0.528286
0.51434
0.498476
0.48132
0.463293
0.444754
0.425961
0.407147
0.388542
0.370381
0.352828
0.335858
0.556277
0.551187
0.54315
0.531399
0.517187
0.50108
0.483702
0.465471
0.446747
0.427789
0.408834
0.390105
0.371819
0.354109
0.336954
0.558282
0.553044
0.54485
0.532954
0.518609
0.502381
0.484892
0.466559
0.447743
0.428701
0.409676
0.390886
0.372536
0.354746
0.337498
0.558272
0.553034
0.544841
0.532946
0.518602
0.502373
0.484885
0.466553
0.447736
0.428695
0.409669
0.39088
0.37253
0.354741
0.337492
0.556248
0.55116
0.543124
0.531375
0.517164
0.501058
0.483681
0.465451
0.446728
0.42777
0.408815
0.390088
0.371802
0.354092
0.336938
0.552219
0.547426
0.539704
0.528246
0.514301
0.498439
0.481285
0.463259
0.444721
0.425929
0.407117
0.388512
0.370352
0.3528
0.335832
0.546202
0.541846
0.534596
0.523571
0.510025
0.494527
0.477705
0.459983
0.441723
0.423179
0.40458
0.386159
0.368185
0.350864
0.334169
0.538226
0.534442
0.527819
0.517371
0.504353
0.489337
0.472956
0.455637
0.437744
0.419529
0.401214
0.383039
0.365307
0.348283
0.331947
0.528323
0.525239
0.519401
0.509668
0.497306
0.482889
0.467054
0.450235
0.432798
0.414992
0.397032
0.379161
0.361727
0.34506
0.32916
0.516534
0.514275
0.509377
0.500496
0.488913
0.475207
0.460022
0.443797
0.426902
0.409584
0.392048
0.374542
0.357457
0.341203
0.32581
0.502892
0.501605
0.497793
0.489891
0.479207
0.466323
0.451887
0.436347
0.420078
0.403323
0.38628
0.369198
0.352512
0.336719
0.321896
0.487439
0.487293
0.484699
0.477899
0.468228
0.45627
0.44268
0.427913
0.41235
0.396232
0.379749
0.363149
0.346909
0.331622
0.317426
0.470239
0.471396
0.470147
0.464568
0.456019
0.445088
0.432436
0.418525
0.403745
0.388336
0.372477
0.356415
0.340665
0.325924
0.312405
0.451368
0.453978
0.454196
0.449951
0.44263
0.432821
0.421194
0.408219
0.394296
0.379663
0.364491
0.349019
0.333802
0.319642
0.306844
0.430912
0.435109
0.43691
0.434109
0.428115
0.419517
0.408997
0.397034
0.384035
0.370242
0.355816
0.340989
0.326343
0.312793
0.300755
0.408962
0.414869
0.418361
0.417106
0.41253
0.405229
0.395893
0.385011
0.373001
0.36011
0.346486
0.332351
0.318312
0.305396
0.29415
0.38562
0.393347
0.398626
0.399012
0.395941
0.390015
0.381934
0.372198
0.361235
0.349298
0.336529
0.323133
0.309736
0.297477
0.287046
0.36099
0.370634
0.37779
0.379903
0.378414
0.373933
0.367172
0.35864
0.348779
0.337849
0.325985
0.313371
0.300644
0.289055
0.279461
0.335187
0.346832
0.355942
0.359859
0.360021
0.35705
0.351667
0.344392
0.335682
0.325803
0.314884
0.303091
0.291064
0.280159
0.271414
0.308332
0.322046
0.333178
0.338966
0.34084
0.339434
0.335478
0.329507
0.321989
0.313202
0.30327
0.292338
0.281035
0.270816
0.262927
0.280551
0.296388
0.309597
0.317313
0.32095
0.321155
0.318672
0.314044
0.307755
0.300095
0.291182
0.281138
0.270578
0.261051
0.254025
0.251977
0.269973
0.285303
0.294994
0.300435
0.30229
0.301313
0.298061
0.29303
0.286524
0.278661
0.269537
0.259743
0.250905
0.244732
0.222748
0.242925
0.260405
0.272105
0.279381
0.282915
0.283472
0.281621
0.277874
0.272547
0.265757
0.257571
0.248549
0.24039
0.235074
0.19301
0.215368
0.235016
0.248748
0.257878
0.263109
0.265218
0.264786
0.262339
0.258207
0.252506
0.245278
0.237046
0.229563
0.225085
0.162909
0.187434
0.209251
0.225026
0.236018
0.242956
0.246624
0.24762
0.246485
0.243565
0.238972
0.232714
0.225263
0.218425
0.214784
0.132601
0.159256
0.183231
0.201044
0.213895
0.222537
0.227765
0.230189
0.230369
0.228668
0.22519
0.219908
0.213238
0.207033
0.204212
0.102242
0.130972
0.157077
0.176909
0.191604
0.201937
0.208714
0.212558
0.214049
0.213572
0.211228
0.206936
0.201028
0.195389
0.193373
0.0719918
0.102723
0.130911
0.15273
0.169239
0.181241
0.189547
0.194792
0.197581
0.198325
0.197124
0.193831
0.188664
0.183525
0.182301
0.0420153
0.0746504
0.104857
0.128614
0.146898
0.160535
0.17034
0.176958
0.181019
0.182973
0.182934
0.180679
0.176255
0.171479
0.170958
0.0124798
0.046899
0.0790373
0.10467
0.124676
0.139902
0.151168
0.159124
0.164419
0.167558
0.168687
0.167513
0.16385
0.159284
0.159321
-0.0164449
0.0196073
0.0535703
0.0810047
0.102667
0.119426
0.132105
0.141356
0.14784
0.152119
0.154412
0.154391
0.151608
0.147141
0.147242
-0.0445794
-0.00709486
0.0285703
0.0577259
0.0809662
0.0991848
0.11322
0.123721
0.131342
0.136698
0.140117
0.141309
0.139564
0.135222
0.134565
-0.0717381
-0.0331068
0.00414977
0.0349432
0.0596628
0.0792555
0.0945824
0.106281
0.114988
0.121347
0.125816
0.128239
0.127778
0.123963
0.121218
-0.0977104
-0.058369
-0.0195731
0.0127654
0.0388404
0.0597099
0.0762558
0.0890966
0.0988381
0.106127
0.11154
0.115119
0.116109
0.113402
0.107551
-0.122276
-0.0828793
-0.0424608
-0.00870841
0.0185725
0.0406175
0.058302
0.0722205
0.0829466
0.0911041
0.0973412
0.10192
0.10434
0.103268
0.0975679
-0.145217
-0.106606
-0.0643522
-0.0294066
-0.0010749
0.0220466
0.0407803
0.0557007
0.0673582
0.0763352
0.083297
0.088697
0.0923667
0.0932725
0.0895113
-0.166563
-0.129153
-0.0851036
-0.0492908
-0.0200358
0.00406522
0.0237461
0.0395803
0.052109
0.0618653
0.069486
0.0755575
0.0802352
0.0828985
0.0814235
-0.186342
-0.150058
-0.104683
-0.0683226
-0.0382341
-0.0132616
0.00724976
0.0238993
0.0372294
0.0477252
0.0559665
0.062601
0.0680573
0.0720583
0.072342
-0.204458
-0.169024
-0.123187
-0.0864238
-0.0555857
-0.0298773
-0.00866443
0.00869536
0.0227473
0.0339347
0.0427671
0.0498902
0.0559327
0.060892
0.0624299
-0.220769
-0.186096
-0.140596
-0.103468
-0.0720151
-0.045738
-0.023958
-0.0059959
0.00868939
0.0205071
0.0298965
0.0374546
0.0439314
0.0495678
0.0521686
-0.235169
-0.201517
-0.156743
-0.119325
-0.0874713
-0.0608117
-0.0385967
-0.0201414
-0.00491898
0.007455
0.0173558
0.0253053
0.0321097
0.038241
0.0418312
-0.247603
-0.215387
-0.171511
-0.133936
-0.101936
-0.0750744
-0.0525505
-0.0337121
-0.0180539
-0.00520741
0.00514903
0.0134496
0.0205117
0.0270307
0.0315173
-0.258051
-0.227669
-0.184779
-0.147394
-0.11542
-0.0885073
-0.0657948
-0.0466839
-0.0306942
-0.0174638
-0.00671352
0.00189828
0.00916311
0.0159977
0.0212808
-0.266527
-0.238296
-0.196556
-0.159726
-0.127975
-0.101101
-0.0783133
-0.059039
-0.0428214
-0.0292979
-0.0182172
-0.00933428
-0.0019261
0.00515425
0.0111556
-0.273087
-0.247251
-0.206915
-0.170935
-0.139633
-0.112876
-0.0901024
-0.0707665
-0.0544205
-0.0406955
-0.0293481
-0.020231
-0.0127484
-0.00550848
0.00115158
-0.277844
-0.25459
-0.215955
-0.181046
-0.150363
-0.123874
-0.101183
-0.081866
-0.0654806
-0.0516458
-0.0400975
-0.0307762
-0.0232813
-0.016005
-0.0087319
-0.280973
-0.260437
-0.223794
-0.19011
-0.160157
-0.134073
-0.111589
-0.0923618
-0.0759995
-0.062139
-0.0504639
-0.0409635
-0.0334755
-0.0263512
-0.018498
-0.282704
-0.264977
-0.230579
-0.198193
-0.169032
-0.143455
-0.121303
-0.102271
-0.0860061
-0.0721665
-0.0604505
-0.0508051
-0.0432939
-0.0365243
-0.0281641
-0.283334
-0.268485
-0.236469
-0.20537
-0.177024
-0.15203
-0.130314
-0.11158
-0.0954977
-0.0817523
-0.0700607
-0.0603324
-0.0527404
-0.0464336
-0.0377846
-0.283178
-0.271335
-0.241608
-0.211703
-0.184169
-0.159823
-0.13863
-0.120283
-0.104463
-0.0908887
-0.0793004
-0.069582
-0.0618705
-0.0559294
-0.047454
-0.282614
-0.273795
-0.24608
-0.217236
-0.190509
-0.166872
-0.146278
-0.128388
-0.112899
-0.0995646
-0.0881533
-0.0785253
-0.0707727
-0.0649046
-0.0572553
-0.282052
-0.275949
-0.249888
-0.221977
-0.196078
-0.17322
-0.15329
-0.135914
-0.120809
-0.107774
-0.0966007
-0.0871306
-0.0794138
-0.0735401
-0.0670341
-0.281801
-0.277759
-0.252956
-0.225913
-0.200908
-0.178912
-0.159701
-0.142881
-0.128208
-0.11552
-0.104633
-0.0953772
-0.087769
-0.0819645
-0.0763647
-0.281975
-0.27905
-0.25513
-0.229001
-0.205027
-0.183986
-0.165539
-0.149308
-0.135108
-0.122811
-0.112253
-0.103259
-0.0958251
-0.0901642
-0.0850661
-0.28238
-0.279425
-0.256187
-0.231207
-0.208475
-0.188478
-0.17082
-0.15521
-0.141526
-0.129664
-0.119472
-0.110779
-0.103565
-0.0980707
-0.0931754
-0.282415
-0.278164
-0.255851
-0.232524
-0.211304
-0.192408
-0.17555
-0.160598
-0.147482
-0.136098
-0.126302
-0.117938
-0.110968
-0.105642
-0.100826
-0.281073
-0.274341
-0.253923
-0.233029
-0.213566
-0.195769
-0.179726
-0.165488
-0.152998
-0.142131
-0.132757
-0.124741
-0.118028
-0.112879
-0.108148
-0.27718
-0.267169
-0.250452
-0.232903
-0.215272
-0.198529
-0.183351
-0.16991
-0.158103
-0.147784
-0.138849
-0.131196
-0.124753
-0.11981
-0.115226
-0.270516
-0.256708
-0.246093
-0.232384
-0.216355
-0.20065
-0.186457
-0.17391
-0.162827
-0.153073
-0.14459
-0.137317
-0.131164
-0.126465
-0.122097
-0.261822
-0.244744
-0.242195
-0.231523
-0.216705
-0.202159
-0.189123
-0.177545
-0.167199
-0.158013
-0.149994
-0.143122
-0.137286
-0.132866
-0.128773
-0.252362
-0.23465
-0.239327
-0.230031
-0.216306
-0.203193
-0.191468
-0.180871
-0.171242
-0.162617
-0.155076
-0.148632
-0.143141
-0.139034
-0.135259
-0.243458
-0.229027
-0.23686
-0.227618
-0.215353
-0.203988
-0.193609
-0.183927
-0.174971
-0.166905
-0.159854
-0.153862
-0.148746
-0.144982
-0.141565
-0.235904
-0.227949
-0.233373
-0.224347
-0.214261
-0.204798
-0.195619
-0.186729
-0.178405
-0.170894
-0.164343
-0.158826
-0.154114
-0.150729
-0.147717
-0.230063
-0.229102
-0.227818
-0.220777
-0.213544
-0.20576
-0.197497
-0.189288
-0.181569
-0.174611
-0.168561
-0.16353
-0.159252
-0.156287
-0.153747
-0.225902
-0.22944
-0.220607
-0.217994
-0.213544
-0.206809
-0.199204
-0.191626
-0.184499
-0.178076
-0.172514
-0.167978
-0.164162
-0.16166
-0.159678
-0.222975
-0.228105
-0.214087
-0.217214
-0.214057
-0.20773
-0.200737
-0.193802
-0.187232
-0.181304
-0.176206
-0.172167
-0.168841
-0.166847
-0.165524
-0.220947
-0.225032
-0.211928
-0.217878
-0.214301
-0.208423
-0.20219
-0.195874
-0.189784
-0.184293
-0.17963
-0.176089
-0.173285
-0.17184
-0.171283
-0.219436
-0.220984
-0.214156
-0.217421
-0.213761
-0.209055
-0.203687
-0.197872
-0.19215
-0.187031
-0.182771
-0.179729
-0.177483
-0.176632
-0.176939
-0.218139
-0.217466
-0.217079
-0.214028
-0.212802
-0.209949
-0.205264
-0.199769
-0.194306
-0.189494
-0.185606
-0.183066
-0.181421
-0.181212
-0.18247
-0.216974
-0.215292
-0.218221
-0.209567
-0.212764
-0.211168
-0.206834
-0.201537
-0.19623
-0.191652
-0.1881
-0.186066
-0.18508
-0.185572
-0.187856
-0.215857
-0.214359
-0.21714
-0.209173
-0.213905
-0.212389
-0.208332
-0.203161
-0.19789
-0.193459
-0.190209
-0.188687
-0.188428
-0.1897
-0.193089
-0.214728
-0.213979
-0.214903
-0.212921
-0.214174
-0.213369
-0.20986
-0.204649
-0.199238
-0.194851
-0.191866
-0.19087
-0.191428
-0.193586
-0.19817
-0.213613
-0.213519
-0.213411
-0.216082
-0.212892
-0.214418
-0.211407
-0.205933
-0.200209
-0.19575
-0.192992
-0.192545
-0.194028
-0.197224
-0.203122
-0.212489
-0.212856
-0.212821
-0.216531
-0.213016
-0.215884
-0.212784
-0.206919
-0.200721
-0.196045
-0.193475
-0.19363
-0.196187
-0.200609
-0.207966
-0.211279
-0.211932
-0.212512
-0.215228
-0.215992
-0.216593
-0.213719
-0.207565
-0.200679
-0.195599
-0.193192
-0.19404
-0.197857
-0.203747
-0.212735
-0.209926
-0.210789
-0.211907
-0.213983
-0.218427
-0.216045
-0.214273
-0.207782
-0.199927
-0.194221
-0.191989
-0.193702
-0.199006
-0.206634
-0.217471
-0.20845
-0.209502
-0.210911
-0.213064
-0.217567
-0.216162
-0.214403
-0.207417
-0.198278
-0.191719
-0.189735
-0.192548
-0.199614
-0.209287
-0.222212
-0.206945
-0.208145
-0.209674
-0.212017
-0.215391
-0.217222
-0.213303
-0.206299
-0.19549
-0.187891
-0.186332
-0.190563
-0.199675
-0.211714
-0.227025
-0.205566
-0.206863
-0.208385
-0.210694
-0.21339
-0.216292
-0.211558
-0.204475
-0.191312
-0.18268
-0.181784
-0.187744
-0.19922
-0.213959
-0.231968
-0.204516
-0.205863
-0.207302
-0.209422
-0.211577
-0.213128
-0.2105
-0.201117
-0.185563
-0.176231
-0.176229
-0.184176
-0.198306
-0.216096
-0.237146
-0.203996
-0.20536
-0.206723
-0.2086
-0.210065
-0.210235
-0.208469
-0.195874
-0.178621
-0.169022
-0.169902
-0.180007
-0.197102
-0.218236
-0.242664
-0.204132
-0.205493
-0.206855
-0.208571
-0.209456
-0.208321
-0.204022
-0.190326
-0.171349
-0.161775
-0.16327
-0.175593
-0.195857
-0.220601
-0.248667
-0.204905
-0.206237
-0.207713
-0.209411
-0.209985
-0.207727
-0.200314
-0.184988
-0.165271
-0.155313
-0.156945
-0.171617
-0.194992
-0.223466
-0.255327
-0.206147
-0.207385
-0.208998
-0.2109
-0.211389
-0.20847
-0.198788
-0.182123
-0.162125
-0.150588
-0.152108
-0.169092
-0.195019
-0.227393
-0.262796
-0.207595
-0.208636
-0.210288
-0.212269
-0.212889
-0.209948
-0.19928