/*--------------------------------*- C++ -*----------------------------------*\
  =========                 |
  \\      /  F ield         | OpenFOAM: The Open Source CFD Toolbox
   \\    /   O peration     | Website:  https://openfoam.org
    \\  /    A nd           | Version:  7
     \\/     M anipulation  |
\*---------------------------------------------------------------------------*/
FoamFile
{
    version     2.0;
    format      ascii;
    class       surfaceScalarField;
    location    "13.9986";
    object      phi;
}
// * * * * * * * * * * * * * * * * * * * * * * * * * * * * * * * * * * * * * //

dimensions      [0 3 -1 0 0 0 0];

internalField   nonuniform List<scalar> 
37105
(
-1.28383e-05
1.28296e-05
8.691e-09
-2.95968e-05
1.67473e-05
1.11687e-08
-4.69255e-05
1.73172e-05
1.14686e-08
-6.50761e-05
1.81389e-05
1.16605e-08
-8.4151e-05
1.90632e-05
1.16655e-08
-0.000104231
2.00682e-05
1.14668e-08
-0.000125359
2.11169e-05
1.10505e-08
-0.00014754
2.21708e-05
1.04091e-08
-0.000170757
2.32076e-05
9.55423e-09
-0.000194969
2.42032e-05
8.50404e-09
-0.00022012
2.51437e-05
7.28487e-09
-0.000246114
2.59879e-05
5.91317e-09
-0.000272805
2.66868e-05
4.4038e-09
-0.000300025
2.72174e-05
2.78539e-09
2.76762e-05
1.11445e-09
-0.000327702
-1.26267e-05
2.54563e-05
-2.91788e-05
3.32994e-05
-4.62972e-05
3.44356e-05
-6.42085e-05
3.60502e-05
-8.30073e-05
3.7862e-05
-0.000102762
3.98226e-05
-0.000123503
4.18586e-05
-0.000145225
4.38922e-05
-0.000167895
4.58776e-05
-0.000191457
4.77651e-05
-0.000215841
4.95282e-05
-0.000240946
5.10932e-05
-0.000266635
5.23754e-05
-0.000292746
5.33282e-05
5.41212e-05
-0.000319191
-1.22083e-05
3.76646e-05
-2.83531e-05
4.94442e-05
-4.5058e-05
5.11406e-05
-6.25021e-05
5.34943e-05
-8.07655e-05
5.61255e-05
-9.98947e-05
5.89517e-05
-0.000119901
6.18651e-05
-0.000140757
6.47477e-05
-0.000162409
6.75298e-05
-0.000184779
7.01351e-05
-0.000207779
7.25278e-05
-0.000231303
7.46173e-05
-0.000255232
7.63051e-05
-0.000279424
7.75203e-05
7.845e-05
-0.000303753
-1.15931e-05
4.92576e-05
-2.71395e-05
6.49906e-05
-4.32404e-05
6.72415e-05
-6.00096e-05
7.02635e-05
-7.75087e-05
7.36245e-05
-9.57557e-05
7.71988e-05
-0.000114738
8.08478e-05
-0.000134407
8.44157e-05
-0.000154687
8.78103e-05
-0.000175481
9.09292e-05
-0.000196687
9.37337e-05
-0.000218204
9.61346e-05
-0.000239945
9.8046e-05
-0.000261798
9.93729e-05
0.000100265
-0.000283612
-1.07993e-05
6.00569e-05
-2.5565e-05
7.97563e-05
-4.08877e-05
8.25643e-05
-5.68015e-05
8.61773e-05
-7.3344e-05
9.0167e-05
-9.05026e-05
9.43574e-05
-0.000108241
9.85866e-05
-0.000126491
0.000102665
-0.000145163
0.000106483
-0.000164149
0.000109915
-0.000183344
0.000112928
-0.000202661
0.000115452
-0.000222053
0.000117438
-0.000241459
0.000118779
0.000119552
-0.000260746
-9.86784e-06
6.99247e-05
-2.36595e-05
9.3548e-05
-3.80498e-05
9.69546e-05
-5.29582e-05
0.000101086
-6.83914e-05
0.0001056
-8.43059e-05
0.000110272
-0.000100645
0.000114926
-0.000117326
0.000119346
-0.000134254
0.000123411
-0.00015132
0.000126981
-0.000168427
0.000130035
-0.00018551
0.000132535
-0.000202569
0.000134497
-0.000219611
0.00013582
0.000136498
-0.000236557
-8.7596e-06
7.86843e-05
-2.1439e-05
0.000106227
-3.47788e-05
0.000110294
-4.85648e-05
0.000114872
-6.27736e-05
0.000119809
-7.73348e-05
0.000124833
-9.2175e-05
0.000129766
-0.000107203
0.000134373
-0.000122325
0.000138533
-0.000137442
0.000142098
-0.000152473
0.000145066
-0.00016738
0.000147442
-0.000182205
0.000149322
-0.000197029
0.000150645
0.000151311
-0.000211842
-7.48648e-06
8.61708e-05
-1.8928e-05
0.000117669
-3.11279e-05
0.000122494
-4.37055e-05
0.000127449
-5.6609e-05
0.000132712
-6.97475e-05
0.000137972
-8.30344e-05
0.000143053
-9.63741e-05
0.000147713
-0.00010968
0.000151839
-0.00012287
0.000155288
-0.000135883
0.00015808
-0.000148705
0.000160264
-0.000161408
0.000162026
-0.000174134
0.00016337
0.000164097
-0.00018692
-6.0705e-06
9.22413e-05
-1.61576e-05
0.000127756
-2.7151e-05
0.000133488
-3.84606e-05
0.000138759
-5.00074e-05
0.000144259
-6.16864e-05
0.000149651
-7.3401e-05
0.000154768
-8.50534e-05
0.000159365
-9.65664e-05
0.000163352
-0.000107876
0.000166597
-0.000118945
0.000169149
-0.000129775
0.000171094
-0.000140445
0.000172695
-0.000151115
0.00017404
0.000174845
-0.000161863
-4.52557e-06
9.67669e-05
-1.31614e-05
0.000136392
-2.2903e-05
0.000143229
-3.29051e-05
0.000148761
-4.30675e-05
0.000154422
-5.32768e-05
0.00015986
-6.34263e-05
0.000164917
-7.34162e-05
0.000169355
-8.31774e-05
0.000173114
-9.26641e-05
0.000176084
-0.000101861
0.000178345
-0.000110777
0.000180011
-0.000119473
0.000181391
-0.000128081
0.000182648
0.000183466
-0.000136703
-2.85442e-06
9.96213e-05
-9.97833e-06
0.000143516
-1.8434e-05
0.000151685
-2.71045e-05
0.000157431
-3.58766e-05
0.000163194
-4.46271e-05
0.00016861
-5.32376e-05
0.000173528
-6.1606e-05
0.000177724
-6.96684e-05
0.000181176
-7.73931e-05
0.000183808
-8.47811e-05
0.000185733
-9.18458e-05
0.000187075
-9.86095e-05
0.000188155
-0.000105125
0.000189163
0.000189847
-0.000111506
-1.03086e-06
0.000100652
-6.65841e-06
0.000149143
-1.37889e-05
0.000158815
-2.11183e-05
0.000164761
-2.85118e-05
0.000170587
-3.58301e-05
0.000175929
-4.29414e-05
0.000180639
-4.97398e-05
0.000184522
-5.61625e-05
0.000187599
-6.21843e-05
0.00018983
-6.78143e-05
0.000191363
-7.30673e-05
0.000192328
-7.79302e-05
0.000193018
-8.23319e-05
0.000193565
0.00019389
-8.63745e-05
7.79649e-07
9.98725e-05
-3.25866e-06
0.000153182
-8.99705e-06
0.000164554
-1.49967e-05
0.000170761
-2.1041e-05
0.000176632
-2.69651e-05
0.000181853
-3.26259e-05
0.0001863
-3.79125e-05
0.000189809
-4.27579e-05
0.000192444
-4.71358e-05
0.000194208
-5.10533e-05
0.000195281
-5.45237e-05
0.000195799
-5.75197e-05
0.000196014
-5.98303e-05
0.000195876
0.000195391
-6.13311e-05
2.49765e-06
9.73749e-05
1.34675e-07
0.000155545
-4.09516e-06
0.000168784
-8.79532e-06
0.000175461
-1.35251e-05
0.000181361
-1.80992e-05
0.000186427
-2.23659e-05
0.000190566
-2.6203e-05
0.000193646
-2.95346e-05
0.000195776
-3.2328e-05
0.000197002
-3.4575e-05
0.000197528
-3.62698e-05
0.000197494
-3.73992e-05
0.000197143
-3.77731e-05
0.00019625
0.000194173
-3.65558e-05
4.32955e-06
9.30453e-05
3.89126e-06
0.000155983
8.76609e-07
0.000171798
-2.56951e-06
0.000178907
-6.02326e-06
0.000184815
-9.2933e-06
0.000189697
-1.22269e-05
0.0001935
-1.46776e-05
0.000196096
-1.65589e-05
0.000197657
-1.78259e-05
0.000198269
-1.84507e-05
0.000198153
-1.83999e-05
0.000197443
-1.76294e-05
0.000196372
-1.61967e-05
0.000194817
0.000190882
-1.29055e-05
6.18799e-06
8.68573e-05
7.58195e-06
0.000154589
6.02224e-06
0.000173358
3.73621e-06
0.000181193
1.41939e-06
0.000187132
-6.44492e-07
0.000191761
-2.28843e-06
0.000195144
-3.40875e-06
0.000197217
-3.90135e-06
0.00019815
-3.69428e-06
0.000198062
-2.74488e-06
0.000197203
-1.00468e-06
0.000195703
1.58453e-06
0.000193783
5.35944e-06
0.000191042
0.000186073
1.01685e-05
8.00085e-06
7.88565e-05
1.12645e-05
0.000151325
1.11196e-05
0.000173503
1.00415e-05
0.000182271
8.92219e-06
0.000188251
8.02734e-06
0.000192656
7.54383e-06
0.000195627
7.64582e-06
0.000197115
8.4573e-06
0.000197338
1.00619e-05
0.000196457
1.25253e-05
0.00019474
1.59877e-05
0.00019224
2.05178e-05
0.000189253
2.59485e-05
0.000185611
0.000178921
3.31001e-05
9.6903e-06
6.91662e-05
1.4865e-05
0.000146151
1.61658e-05
0.000172202
1.62619e-05
0.000182175
1.62476e-05
0.000188265
1.64601e-05
0.000192443
1.71124e-05
0.000194975
1.8382e-05
0.000195845
2.04304e-05
0.00019529
2.33767e-05
0.000193511
2.72805e-05
0.000190836
3.23552e-05
0.000187165
3.87989e-05
0.000182809
4.60446e-05
0.000178366
0.000169729
5.52374e-05
1.11449e-05
5.80213e-05
1.82665e-05
0.000139029
2.11025e-05
0.000169366
2.2372e-05
0.000180905
2.34068e-05
0.000187231
2.46611e-05
0.000191189
2.63774e-05
0.000193259
2.87476e-05
0.000193475
3.19599e-05
0.000192077
3.62e-05
0.000189271
4.15097e-05
0.000185526
4.80196e-05
0.000180656
5.64331e-05
0.000174396
6.56544e-05
0.000169144
0.000158701
7.66823e-05
1.21914e-05
4.58299e-05
2.13176e-05
0.000129903
2.58426e-05
0.000164841
2.83236e-05
0.000178424
3.03694e-05
0.000185185
3.26039e-05
0.000188954
3.53181e-05
0.000190545
3.8725e-05
0.000190068
4.30177e-05
0.000187785
4.84813e-05
0.000183807
5.52147e-05
0.000178793
6.30184e-05
0.000172852
7.33188e-05
0.000164095
8.45107e-05
0.000157952
0.000145762
9.74493e-05
1.25634e-05
3.32665e-05
2.3837e-05
0.000118629
3.02679e-05
0.00015841
3.40411e-05
0.000174651
3.70881e-05
0.000182138
4.0254e-05
0.000185789
4.39026e-05
0.000186896
4.82886e-05
0.000185682
5.35867e-05
0.000182487
6.01274e-05
0.000177266
6.8357e-05
0.000170563
7.73046e-05
0.000163904
8.94095e-05
0.00015199
0.000102774
0.000144588
0.00013073
0.000117805
1.19643e-05
2.13022e-05
2.56441e-05
0.000104949
3.42131e-05
0.000149841
3.94118e-05
0.000169452
4.35007e-05
0.000178049
4.7574e-05
0.000181715
5.20904e-05
0.00018238
5.73976e-05
0.000180375
6.36834e-05
0.000176201
7.10833e-05
0.000169866
8.0899e-05
0.000160748
9.09272e-05
0.000153876
0.0001043
0.000138618
0.000119822
0.000129066
0.000112484
0.000138068
1.03405e-05
1.09617e-05
2.65899e-05
8.86999e-05
3.74515e-05
0.00013898
4.42896e-05
0.000162614
4.95265e-05
0.000172812
5.45126e-05
0.000176729
5.98417e-05
0.000177051
6.59728e-05
0.000174244
7.33142e-05
0.000168859
8.13434e-05
0.000161837
9.27185e-05
0.000149373
0.000104164
0.000142431
0.000118581
0.0001242
0.000134783
0.000112865
9.05271e-05
0.00015674
8.07811e-06
2.88361e-06
2.64502e-05
7.03278e-05
3.97069e-05
0.000125723
4.84942e-05
0.000153827
5.50577e-05
0.000166249
6.09948e-05
0.000170792
6.71194e-05
0.000170926
7.39023e-05
0.000167461
8.2428e-05
0.000160334
9.0948e-05
0.000153317
0.000103505
0.000136815
0.00011659
0.000129346
0.000133223
0.000107568
0.000149169
9.69187e-05
6.6087e-05
0.000173609
5.66263e-06
-2.77902e-06
2.48795e-05
5.1111e-05
4.06981e-05
0.000109904
5.18138e-05
0.000142711
5.99325e-05
0.00015813
6.68893e-05
0.000163835
7.38846e-05
0.000163931
8.11143e-05
0.000160231
9.08921e-05
0.000150556
0.000100108
0.000144102
0.000113385
0.000123538
0.000127335
0.000115395
0.000147174
8.77289e-05
0.000163946
8.01469e-05
4.01169e-05
0.000189916
3.3344e-06
-6.11342e-06
2.15966e-05
3.28488e-05
4.01585e-05
9.13425e-05
5.39495e-05
0.00012892
6.39192e-05
0.00014816
7.19948e-05
0.00015576
8.0032e-05
0.000155894
8.75898e-05
0.000152673
9.83428e-05
0.000139803
0.000108749
0.000133695
0.000123073
0.000109214
0.000136921
0.000101548
0.00015928
6.53692e-05
0.000177949
6.14783e-05
1.26679e-05
0.000205398
1.31199e-06
-7.42541e-06
1.69344e-05
1.72265e-05
3.79077e-05
7.03692e-05
5.44729e-05
0.000112355
6.66624e-05
0.000135971
7.60081e-05
0.000146414
8.53093e-05
0.000146592
9.33945e-05
0.000144588
0.000104545
0.000128653
0.000116074
0.000122165
0.000132284
9.30045e-05
0.000146391
8.74411e-05
0.000170049
4.17108e-05
0.000190406
4.11216e-05
-1.65932e-05
0.000219667
4.91627e-08
-7.47457e-06
1.17727e-05
5.50292e-06
3.37171e-05
4.84248e-05
5.28555e-05
9.32165e-05
6.77189e-05
0.000121107
7.85967e-05
0.000135536
8.92241e-05
0.000135965
9.83991e-05
0.000135413
0.000109687
0.000117365
0.000121802
0.00011005
0.000139347
7.54603e-05
0.000155386
7.1402e-05
0.000179199
1.78979e-05
0.000201209
1.91116e-05
-4.77553e-05
0.000232371
-5.39195e-07
-6.93538e-06
7.27373e-06
-2.31001e-06
2.73282e-05
2.83704e-05
4.85805e-05
7.19642e-05
6.64324e-05
0.000103255
7.93649e-05
0.000122604
9.11624e-05
0.000124168
0.000101901
0.000124674
0.000113407
0.000105859
0.000126909
9.65479e-05
0.000142594
5.97748e-05
0.000162827
5.11698e-05
0.000184766
-4.04129e-06
0.000209952
-6.07427e-06
-7.95183e-05
0.000241715
-5.5794e-07
-6.37744e-06
3.91122e-06
-6.77917e-06
1.97736e-05
1.2508e-05
4.15424e-05
5.01954e-05
6.2061e-05
8.27367e-05
7.75981e-05
0.000107066
9.04551e-05
0.000111311
0.000103255
0.000111874
0.000113988
9.51267e-05
0.000131105
7.94303e-05
0.000142947
4.79337e-05
0.000168038
2.60779e-05
0.000184994
-2.09963e-05
0.000215573
-3.66541e-05
-0.000111449
0.000247504
-3.68402e-07
-6.00904e-06
2.17013e-06
-9.3177e-06
1.29666e-05
1.71144e-06
3.24714e-05
3.06907e-05
5.39746e-05
6.12335e-05
7.25068e-05
8.85342e-05
8.58947e-05
9.79228e-05
0.000101616
9.61523e-05
0.00011145
8.52931e-05
0.000131716
5.91643e-05
0.00014087
3.878e-05
0.000171094
-4.14616e-06
0.000181107
-3.10092e-05
0.000218128
-7.36756e-05
-0.000127809
0.000234489
3.25324e-08
-6.04157e-06
1.76036e-06
-1.10455e-05
8.28384e-06
-4.81203e-06
2.32417e-05
1.57329e-05
4.28043e-05
4.16708e-05
6.31096e-05
6.82289e-05
7.78194e-05
8.3213e-05
9.4223e-05
7.97487e-05
0.000105931
7.35852e-05
0.000125864
3.9231e-05
0.000137349
2.72953e-05
0.000167628
-3.4425e-05
0.000173642
-3.70232e-05
0.000216599
-0.000116633
-0.000123222
0.000212011
4.46712e-07
-6.48828e-06
1.93912e-06
-1.25379e-05
5.78225e-06
-8.65516e-06
1.56585e-05
5.85664e-06
3.07849e-05
2.65444e-05
4.94581e-05
4.95557e-05
6.56466e-05
6.70245e-05
8.08885e-05
6.45069e-05
9.43672e-05
6.01065e-05
0.000110898
2.27e-05
0.00012662
1.15737e-05
0.000145019
-5.28237e-05
0.000159824
-5.18283e-05
0.000192194
-0.000149003
-0.000120528
0.000189501
7.54497e-07
-7.24278e-06
2.0428e-06
-1.38262e-05
4.34429e-06
-1.09567e-05
1.0012e-05
1.88945e-07
1.99661e-05
1.65903e-05
3.39122e-05
3.56096e-05
4.89417e-05
5.1995e-05
6.23191e-05
5.11295e-05
7.52155e-05
4.721e-05
8.8316e-05
9.59957e-06
0.000105357
-5.46735e-06
0.00011526
-6.27263e-05
0.000141268
-7.78371e-05
0.000155684
-0.00016342
-0.000164597
0.000199753
7.89862e-07
-8.03264e-06
1.59564e-06
-1.4632e-05
2.69941e-06
-1.20604e-05
5.27377e-06
-2.38542e-06
1.05056e-05
1.13585e-05
1.86814e-05
2.74337e-05
2.97507e-05
4.09258e-05
4.0264e-05
4.06162e-05
5.14945e-05
3.59795e-05
6.11211e-05
-2.70812e-08
7.9227e-05
-2.35733e-05
9.72883e-05
-8.07875e-05
0.000136328
-0.000116877
0.000171829
-0.00019892
-0.000235851
0.000243083
4.62507e-07
-8.49515e-06
3.49688e-07
-1.45192e-05
-1.169e-08
-1.16991e-05
1.04655e-07
-2.50176e-06
1.30233e-06
1.01608e-05
4.43743e-06
2.42986e-05
9.72321e-06
3.564e-05
1.6057e-05
3.42824e-05
2.48142e-05
2.72223e-05
3.61896e-05
-1.14024e-05
6.48427e-05
-5.22264e-05
0.000102276
-0.000118221
0.000157953
-0.000172554
0.000209815
-0.000250782
-0.000291318
0.000265282
-2.22327e-07
-8.27282e-06
-1.57089e-06
-1.31706e-05
-3.5012e-06
-9.76874e-06
-5.66003e-06
-3.42936e-07
-7.9641e-06
1.24649e-05
-1.00167e-05
2.63512e-05
-1.07749e-05
3.63982e-05
-8.16053e-06
3.16681e-05
4.08764e-06
1.49741e-05
3.02439e-05
-3.75587e-05
7.79902e-05
-9.99728e-05
0.000130993
-0.000171223
0.000189183
-0.000230745
0.000229814
-0.000291413
-0.000326355
0.000264852
-1.15899e-06
-7.11383e-06
-3.976e-06
-1.03536e-05
-7.72544e-06
-6.01931e-06
-1.21783e-05
4.10993e-06
-1.75874e-05
1.7874e-05
-2.39143e-05
3.26781e-05
-2.86023e-05
4.10862e-05
-2.32575e-05
2.63233e-05
4.83561e-06
-1.3119e-05
5.14209e-05
-8.4144e-05
0.000108278
-0.00015683
0.00015972
-0.000222665
0.000203875
-0.000274899
0.000233346
-0.000320884
-0.000356132
0.000263122
-2.15572e-06
-4.95811e-06
-6.40068e-06
-6.10866e-06
-1.18242e-05
-5.9579e-07
-1.81642e-05
1.045e-05
-2.55561e-05
2.52658e-05
-3.2849e-05
3.9971e-05
-3.51352e-05
4.33724e-05
-1.702e-05
8.20803e-06
2.76139e-05
-5.77529e-05
8.2122e-05
-0.000138652
0.000133456
-0.000208164
0.000174724
-0.000263933
0.000208564
-0.000308739
0.000235484
-0.000347805
-0.000380209
0.000259561
-2.95169e-06
-2.00641e-06
-8.24869e-06
-8.1167e-07
-1.46279e-05
5.7834e-06
-2.16618e-05
1.7484e-05
-2.85975e-05
3.22015e-05
-3.26319e-05
4.40054e-05
-2.59751e-05
3.67156e-05
7.06123e-06
-2.48283e-05
5.75253e-05
-0.000108217
0.000106944
-0.000188071
0.000149242
-0.000250462
0.000183641
-0.000298332
0.000212009
-0.000337107
0.000233885
-0.000369681
-0.00039843
0.000252106
-3.31212e-06
1.3057e-06
-8.93174e-06
4.80795e-06
-1.52981e-05
1.21497e-05
-2.14114e-05
2.35972e-05
-2.5546e-05
3.63361e-05
-2.44601e-05
4.29195e-05
-6.03121e-06
1.82868e-05
3.56897e-05
-6.65492e-05
8.32135e-05
-0.000155741
0.000125604
-0.000230461
0.000160886
-0.000285745
0.000189108
-0.000326553
0.000211051
-0.000359051
0.000228365
-0.000386994
-0.000415119
0.000245054
-3.149e-06
4.4547e-06
-8.33847e-06
9.99742e-06
-1.36875e-05
1.74988e-05
-1.76255e-05
2.75352e-05
-1.76897e-05
3.64003e-05
-1.13889e-05
3.66187e-05
1.66833e-05
-9.78544e-06
6.09583e-05
-0.000110824
0.000103525
-0.000198308
0.000139606
-0.000266542
0.000167923
-0.000314061
0.000189919
-0.000348549
0.000207593
-0.000376725
0.000223118
-0.000402519
-0.000429525
0.000237523
-2.54714e-06
7.00184e-06
-6.70886e-06
1.41591e-05
-1.03737e-05
2.11636e-05
-1.15448e-05
2.87064e-05
-8.02431e-06
3.28798e-05
4.79216e-06
2.38023e-05
4.00368e-05
-4.50301e-05
8.16748e-05
-0.000152462
0.000119228
-0.00023586
0.000148727
-0.000296041
0.000170996
-0.000336331
0.000188734
-0.000366287
0.000203628
-0.000391619
0.00021658
-0.00041547
-0.00044195
0.000229005
-1.69719e-06
8.69903e-06
-4.52268e-06
1.69846e-05
-6.3236e-06
2.29645e-05
-4.72372e-06
2.71065e-05
3.66756e-07
2.77893e-05
2.00705e-05
4.09849e-06
6.06417e-05
-8.56013e-05
9.85906e-05
-0.000190411
0.000130083
-0.000267353
0.000153796
-0.000319754
0.000171555
-0.00035409
0.000185881
-0.000380613
0.000197986
-0.000403724
0.000209474
-0.000426958
-0.000453746
0.00022127
-8.16373e-07
9.51541e-06
-2.27879e-06
1.84471e-05
-2.33741e-06
2.30231e-05
1.25605e-06
2.3513e-05
8.6775e-06
2.03679e-05
3.49257e-05
-2.21497e-05
7.66266e-05
-0.000127302
0.000111063
-0.000224848
0.000137035
-0.000293324
0.00015585
-0.000338569
0.000169876
-0.000368116
0.000181524
-0.000392261
0.000192143
-0.000414344
0.00020266
-0.000437474
-0.000463858
0.000212772
-7.87796e-08
9.59419e-06
-4.05482e-07
1.87738e-05
9.63327e-07
2.16543e-05
5.15854e-06
1.93178e-05
1.57389e-05
9.78748e-06
5.00375e-05
-5.64482e-05
8.95936e-05
-0.000166858
0.000119697
-0.000254951
0.000140674
-0.000314301
0.000155371
-0.000353267
0.000166673
-0.000379418
0.000176658
-0.000402246
0.000185891
-0.000423576
0.000195126
-0.00044671
-0.000473404
0.000204672
3.84548e-07
9.20964e-06
8.47065e-07
1.83112e-05
2.94574e-06
1.95557e-05
6.67444e-06
1.55891e-05
2.31647e-05
-6.70282e-06
6.39092e-05
-9.71927e-05
9.9494e-05
-0.000202443
0.000124718
-0.000280175
0.000141529
-0.000331112
0.000153214
-0.000364952
0.000162559
-0.000388763
0.000171042
-0.000410729
0.000179236
-0.00043177
0.000187944
-0.000455419
-0.000481885
0.000196426
5.46657e-07
8.66298e-06
1.42157e-06
1.74363e-05
3.69587e-06
1.72814e-05
7.56425e-06
1.17207e-05
3.30164e-05
-3.21549e-05
7.48434e-05
-0.00013902
0.000106261
-0.000233861
0.000126982
-0.000300896
0.000140426
-0.000344556
0.000149804
-0.00037433
0.000157611
-0.000396571
0.000165132
-0.00041825
0.000172635
-0.000439273
0.000180392
-0.000463176
-0.000489622
0.000188129
4.32869e-07
8.23011e-06
1.43932e-06
1.64299e-05
2.96118e-06
1.57595e-05
1.09638e-05
3.71812e-06
4.51354e-05
-6.63265e-05
8.30393e-05
-0.000176924
0.000110038
-0.00026086
0.00012698
-0.000317838
0.000137763
-0.000355339
0.00014548
-0.000382047
0.000152299
-0.00040339
0.000158985
-0.000424936
0.000165704
-0.000445991
0.000172947
-0.000470419
-0.000496704
0.000180028
1.16423e-07
8.11369e-06
9.46471e-07
1.55998e-05
1.45907e-06
1.52469e-05
1.64623e-05
-1.12851e-05
5.66215e-05
-0.000106486
8.91865e-05
-0.000209489
0.000111476
-0.000283149
0.00012529
-0.000331652
0.000134099
-0.000364148
0.000140634
-0.000388581
0.000146605
-0.00040936
0.000152605
-0.000430936
0.000158853
-0.00045224
0.000165392
-0.000476958
-0.000502989
0.000171677
-2.19546e-07
8.33323e-06
1.5635e-07
1.52239e-05
1.66401e-06
1.37392e-05
2.51724e-05
-3.47935e-05
6.46948e-05
-0.000146008
9.3035e-05
-0.000237829
0.000111209
-0.000301323
0.000122383
-0.000342826
0.000129675
-0.00037144
0.000135314
-0.00039422
0.000140709
-0.000414756
0.000146183
-0.00043641
0.000151818
-0.000457874
0.000157797
-0.000482937
-0.000508818
0.000163625
-4.99869e-07
8.8331e-06
-8.2847e-07
1.55525e-05
5.13768e-06
7.77308e-06
3.61916e-05
-6.58474e-05
7.02456e-05
-0.000180062
9.45885e-05
-0.000262172
0.000109556
-0.000316291
0.000118644
-0.000351913
0.000124784
-0.000377581
0.000129794
-0.00039923
0.000134675
-0.000419637
0.000139607
-0.000441342
0.000144817
-0.000463084
0.000150224
-0.000488344
-0.000513901
0.000155308
-7.50829e-07
9.58393e-06
-1.69326e-06
1.6495e-05
1.00948e-05
-4.01498e-06
4.58798e-05
-0.000101632
7.45069e-05
-0.000208689
9.44884e-05
-0.000282153
0.000106802
-0.000328605
0.000114316
-0.000359427
0.000119587
-0.000382852
0.000124058
-0.0004037
0.000128508
-0.000424087
0.000133034
-0.000445869
0.000137736
-0.000467786
0.000142568
-0.000493176
-0.000518592
0.000147258
-7.31764e-07
1.03157e-05
-1.44023e-06
1.72034e-05
1.61972e-05
-2.16524e-05
5.1834e-05
-0.000137269
7.71469e-05
-0.000234002
9.3393e-05
-0.000298399
0.000103338
-0.000338549
0.000109593
-0.000365682
0.000114187
-0.000387446
0.000118246
-0.00040776
0.000122311
-0.000428152
0.000126381
-0.000449938
0.000130665
-0.00047207
0.000135005
-0.000497516
-0.000522637
0.00013905
-5.81923e-07
1.08976e-05
8.04577e-07
1.58169e-05
2.43908e-05
-4.52386e-05
5.55635e-05
-0.000168442
7.79194e-05
-0.000256358
9.1378e-05
-0.000311858
9.93871e-05
-0.000346558
0.000104617
-0.000370912
0.000108677
-0.000391506
0.000112353
-0.000411436
0.000116035
-0.000431834
0.000119736
-0.000453638
0.000123567
-0.000475901
0.000127353
-0.000501302
-0.000526301
0.000131018
-5.29359e-07
1.1427e-05
4.12244e-06
1.11651e-05
3.21302e-05
-7.32464e-05
5.861e-05
-0.000194922
7.72769e-05
-0.000275025
8.8477e-05
-0.000323058
9.50727e-05
-0.000353154
9.95052e-05
-0.000375345
0.000103098
-0.000395098
0.000106433
-0.000414771
0.00010977
-0.000435171
0.000113057
-0.000456926
0.000116464
-0.000479308
0.000119808
-0.000504646
-0.000529444
0.000122951
-5.21188e-07
1.19482e-05
7.62648e-06
3.01747e-06
3.78012e-05
-0.000103421
6.05544e-05
-0.000217675
7.58217e-05
-0.000290292
8.49815e-05
-0.000332218
9.04813e-05
-0.000358654
9.43009e-05
-0.000379164
9.7503e-05
-0.0003983
0.000100503
-0.000417772
0.000103471
-0.000438139
0.000106394
-0.000459849
0.000109377
-0.000482291
0.0001122
-0.000507469
-0.000532199
0.000114955
-4.64481e-07
1.24126e-05
1.12689e-05
-8.71596e-06
4.10479e-05
-0.0001332
6.14219e-05
-0.000238049
7.38124e-05
-0.000302683
8.11496e-05
-0.000339555
8.57217e-05
-0.000363226
8.90505e-05
-0.000382493
9.18976e-05
-0.000401147
9.45708e-05
-0.000420445
9.71987e-05
-0.000440767
9.97317e-05
-0.000462382
0.00010229
-0.00048485
0.000104703
-0.000509882
-0.000534504
0.000107007
-5.68581e-07
1.29812e-05
1.57025e-05
-2.4987e-05
4.24213e-05
-0.000159919
6.09021e-05
-0.00025653
7.12912e-05
-0.000313072
7.71432e-05
-0.000345407
8.09051e-05
-0.000366988
8.3787e-05
-0.000385375
8.63085e-05
-0.000403669
8.86639e-05
-0.0004228
9.0929e-05
-0.000443032
9.30947e-05
-0.000464548
9.52487e-05
-0.000487004
9.71898e-05
-0.000511823
-0.000536397
9.90833e-05
-2.78979e-07
1.32602e-05
1.9697e-05
-4.4963e-05
4.34387e-05
-0.00018366
5.94016e-05
-0.000272493
6.82191e-05
-0.000321889
7.29936e-05
-0.000350182
7.60844e-05
-0.000370079
7.85502e-05
-0.000387841
8.07408e-05
-0.00040586
8.27692e-05
-0.000424829
8.46922e-05
-0.000444955
8.64802e-05
-0.000466336
8.82154e-05
-0.000488739
8.97626e-05
-0.00051337
-0.000537905
9.12711e-05
4.31539e-07
1.28287e-05
2.30519e-05
-6.75833e-05
4.38324e-05
-0.000204441
5.73647e-05
-0.000286025
6.47468e-05
-0.000329272
6.87135e-05
-0.000354148
7.1285e-05
-0.00037265
7.33611e-05
-0.000389917
7.52178e-05
-0.000407716
7.69196e-05
-0.00042653
7.84827e-05
-0.000446518
7.99004e-05
-0.000467754
8.1243e-05
-0.000490081
8.2359e-05
-0.000514486
-0.000539003
8.34565e-05
1.45852e-06
1.13702e-05
2.55191e-05
-9.16439e-05
4.37112e-05
-0.000222633
5.49896e-05
-0.000297303
6.10488e-05
-0.000335331
6.43469e-05
-0.000357446
6.6498e-05
-0.000374801
6.82232e-05
-0.000391642
6.97421e-05
-0.000409235
7.11001e-05
-0.000427888
7.23127e-05
-0.00044773
7.33586e-05
-0.000468799
7.42911e-05
-0.000491014
7.50224e-05
-0.000515218
-0.000539734
7.57537e-05
3.04653e-06
8.32363e-06
2.70162e-05
-0.000115614
4.31756e-05
-0.000238792
5.24257e-05
-0.000306553
5.72745e-05
-0.000340179
5.99574e-05
-0.000360129
6.17374e-05
-0.000376581
6.31357e-05
-0.00039304
6.43226e-05
-0.000410422
6.53405e-05
-0.000428906
6.61898e-05
-0.00044858
6.68615e-05
-0.000469471
6.74059e-05
-0.000491558
6.77214e-05
-0.000515533
-0.000540006
6.79935e-05
5.11635e-06
3.20728e-06
2.76008e-05
-0.000138098
4.21955e-05
-0.000253387
4.97329e-05
-0.000314091
5.34942e-05
-0.000343941
5.55938e-05
-0.000362229
5.70125e-05
-0.000378
5.80948e-05
-0.000394123
5.89544e-05
-0.000411282
5.96239e-05
-0.000429576
6.01146e-05
-0.00044907
6.04149e-05
-0.000469771
6.05541e-05
-0.000491697
6.0465e-05
-0.000515444
-0.000539848
6.03067e-05
7.46635e-06
-4.25907e-06
2.74553e-05
-0.000158087
4.06243e-05
-0.000266556
4.69001e-05
-0.000320367
4.97423e-05
-0.000346783
5.12925e-05
-0.000363779
5.23448e-05
-0.000379052
5.3109e-05
-0.000394887
5.36439e-05
-0.000411816
5.39732e-05
-0.000429905
5.41003e-05
-0.000449197
5.40219e-05
-0.000469693
5.37699e-05
-0.000491445
5.32667e-05
-0.000514941
-0.000539219
5.26373e-05
9.85379e-06
-1.41129e-05
2.74559e-05
-0.000175689
3.86895e-05
-0.00027779
4.38704e-05
-0.000325547
4.59988e-05
-0.000348911
4.70607e-05
-0.000364841
4.7744e-05
-0.000379736
4.81818e-05
-0.000395325
4.83904e-05
-0.000412025
4.83746e-05
-0.000429889
4.81408e-05
-0.000448964
4.76871e-05
-0.000469239
4.7031e-05
-0.000490789
4.61216e-05
-0.000514032
-0.000538152
4.5055e-05
1.15737e-05
-2.56866e-05
2.71702e-05
-0.000191286
3.65449e-05
-0.000287164
4.06728e-05
-0.000329675
4.22317e-05
-0.00035047
4.28878e-05
-0.000365497
4.32184e-05
-0.000380066
4.3325e-05
-0.000395431
4.32037e-05
-0.000411904
4.28481e-05
-0.000429534
4.22534e-05
-0.000448369
4.14164e-05
-0.000468402
4.03615e-05
-0.000489734
3.905e-05
-0.00051272
-0.000536623
3.7521e-05
1.26116e-05
-3.82982e-05
2.64711e-05
-0.000205145
3.42241e-05
-0.000294917
3.73935e-05
-0.000332845
3.84591e-05
-0.000351536
3.87662e-05
-0.000365804
3.87654e-05
-0.000380065
3.85403e-05
-0.000395206
3.80857e-05
-0.000411449
3.73854e-05
-0.000428833
3.64316e-05
-0.000447415
3.52174e-05
-0.000467188
3.37541e-05
-0.000488271
3.2032e-05
-0.000510998
-0.000534665
3.00741e-05
1.30179e-05
-5.13161e-05
2.54093e-05
-0.000217536
3.17708e-05
-0.000301279
3.40958e-05
-0.00033517
3.47131e-05
-0.000352153
3.46991e-05
-0.00036579
3.43844e-05
-0.000379751
3.38336e-05
-0.000394655
3.30451e-05
-0.000410661
3.20034e-05
-0.000427792
3.06937e-05
-0.000446105
2.9104e-05
-0.000465599
2.72391e-05
-0.000486406
2.50795e-05
-0.000508838
-0.000532281
2.26956e-05
1.2945e-05
-6.42611e-05
2.40315e-05
-0.000228623
2.92127e-05
-0.00030646
3.08152e-05
-0.000336772
3.10186e-05
-0.000352357
3.06954e-05
-0.000365467
3.00757e-05
-0.000379131
2.92037e-05
-0.000393783
2.8082e-05
-0.000409539
2.66959e-05
-0.000426406
2.50321e-05
-0.000444442
2.30801e-05
-0.000463647
2.08308e-05
-0.000484157
1.81885e-05
-0.000506196
-0.000529481
1.53879e-05
1.25519e-05
-7.6813e-05
2.24283e-05
-0.000238499
2.65914e-05
-0.000310623
2.75722e-05
-0.000337753
2.73932e-05
-0.000352177
2.67648e-05
-0.000364839
2.58432e-05
-0.000378209
2.46548e-05
-0.000392595
2.32025e-05
-0.000408086
2.14756e-05
-0.000424679
1.94604e-05
-0.000442426
1.71476e-05
-0.000461334
1.45408e-05
-0.00048155
1.14413e-05
-0.000503096
-0.000526141
8.10118e-06
1.19415e-05
-8.87545e-05
2.06657e-05
-0.000247224
2.39383e-05
-0.000313896
2.43824e-05
-0.000338197
2.38481e-05
-0.000351643
2.29159e-05
-0.000363906
2.16916e-05
-0.000376985
2.0188e-05
-0.000391092
1.84064e-05
-0.000406305
1.63379e-05
-0.00042261
1.39705e-05
-0.000440059
1.13016e-05
-0.000458665
8.32511e-06
-0.000478574
4.9442e-06
-0.000499715
-0.00052185
6.53593e-07
1.11813e-05
-9.99358e-05
1.88072e-05
-0.000254849
2.12915e-05
-0.00031638
2.12615e-05
-0.000338167
2.03919e-05
-0.000350774
1.9155e-05
-0.00036267
1.76252e-05
-0.000375455
1.58073e-05
-0.000389274
1.36988e-05
-0.000404196
1.12919e-05
-0.000420203
8.57197e-06
-0.000437339
5.5505e-06
-0.000455643
2.10895e-06
-0.000475132
-1.30768e-06
-0.000496299
-0.000517234
-5.92335e-06
1.02825e-05
-0.000110218
1.68977e-05
-0.000261465
1.8682e-05
-0.000318164
1.8224e-05
-0.000337709
1.70306e-05
-0.00034958
1.54868e-05
-0.000361126
1.36477e-05
-0.000373616
1.15128e-05
-0.000387139
9.07903e-06
-0.000401763
6.33143e-06
-0.000417456
3.25795e-06
-0.000434266
-1.81478e-07
-0.000452204
-3.80922e-06
-0.000471504
-7.93945e-06
-0.000492169
-0.000512655
-1.25183e-05
9.29703e-06
-0.000119515
1.49851e-05
-0.000267153
1.61365e-05
-0.000319316
1.52817e-05
-0.000336855
1.3767e-05
-0.000348065
1.19134e-05
-0.000359272
9.76067e-06
-0.000371463
7.30335e-06
-0.000384682
4.54621e-06
-0.000399005
1.44996e-06
-0.00041436
-1.93644e-06
-0.000430879
-5.61642e-06
-0.000448524
-9.60826e-06
-0.000467512
-1.42552e-05
-0.000487522
-0.000507854
-1.90566e-05
8.39125e-06
-0.000127907
1.31129e-05
-0.000271874
1.36659e-05
-0.000319869
1.24324e-05
-0.000335621
1.06011e-05
-0.000346234
8.4357e-06
-0.000357107
5.96364e-06
-0.000368991
3.17337e-06
-0.000381891
3.9843e-08
-0.000395872
-3.30655e-06
-0.000411013
-7.00725e-06
-0.000427178
-1.10132e-05
-0.000444518
-1.53897e-05
-0.000463136
-2.03909e-05
-0.00048252
-0.000502731
-2.55139e-05
7.50987e-06
-0.000135416
1.13048e-05
-0.000275669
1.12818e-05
-0.000319846
9.67708e-06
-0.000334016
7.532e-06
-0.000344089
5.04926e-06
-0.000354624
2.24449e-06
-0.000366187
-8.6497e-07
-0.000378782
-4.22442e-06
-0.000392512
-7.95005e-06
-0.000407288
-1.19784e-05
-0.00042315
-1.63286e-05
-0.000440168
-2.11061e-05
-0.000458358
-2.63832e-05
-0.000477243
-0.000497248
-3.18661e-05
6.64859e-06
-0.000142065
9.5697e-06
-0.00027859
8.98827e-06
-0.000319264
7.01979e-06
-0.000332048
4.55672e-06
-0.000341626
1.73932e-06
-0.000351807
-1.36614e-06
-0.000363081
-4.74364e-06
-0.000375404
-8.45281e-06
-0.000388803
-1.2498e-05
-0.000403242
-1.68555e-05
-0.000418793
-2.15566e-05
-0.000435467
-2.67187e-05
-0.000453196
-3.22619e-05
-0.0004717
-0.000491405
-3.81051e-05
5.81513e-06
-0.00014788
7.91285e-06
-0.000280688
6.79244e-06
-0.000318144
4.46297e-06
-0.000329718
1.66041e-06
-0.000338824
-1.45213e-06
-0.000348694
-4.83731e-06
-0.000359696
-8.54942e-06
-0.000371692
-1.25868e-05
-0.000384766
-1.69485e-05
-0.000398881
-2.16332e-05
-0.000414108
-2.66791e-05
-0.000430421
-3.21642e-05
-0.000447711
-3.80263e-05
-0.000465838
-0.000485223
-4.42078e-05