/*--------------------------------*- C++ -*----------------------------------*\
  =========                 |
  \\      /  F ield         | OpenFOAM: The Open Source CFD Toolbox
   \\    /   O peration     | Website:  https://openfoam.org
    \\  /    A nd           | Version:  7
     \\/     M anipulation  |
\*---------------------------------------------------------------------------*/
FoamFile
{
    version     2.0;
    format      ascii;
    class       volVectorField;
    location    "13.9986";
    object      U;
}
// * * * * * * * * * * * * * * * * * * * * * * * * * * * * * * * * * * * * * //

dimensions      [0 1 -1 0 0 0 0];

internalField   nonuniform List<vector> 
18750
(
(-0.0439401 0.0272366 -1.2317e-20)
(-0.15228 0.0325379 4.0586e-21)
(-0.26682 0.0304809 4.18316e-20)
(-0.368046 0.0290512 9.43541e-21)
(-0.468814 0.0277405 -2.23101e-20)
(-0.563353 0.0265685 -5.39874e-20)
(-0.655703 0.0254098 5.55807e-20)
(-0.743079 0.0242403 3.67938e-20)
(-0.827401 0.0230091 -2.76918e-20)
(-0.906936 0.0217152 -7.46123e-20)
(-0.982744 0.0203371 2.85288e-19)
(-1.05323 0.0188585 -2.35826e-19)
(-1.11859 0.0172503 1.40702e-19)
(-1.1772 0.0155578 -2.75729e-19)
(-1.22934 0.0139183 6.43232e-20)
(-0.0456836 0.0813192 7.53222e-21)
(-0.153462 0.0973072 1.14356e-20)
(-0.266606 0.0911983 5.4333e-21)
(-0.366469 0.0869239 6.25473e-20)
(-0.465787 0.0829992 1.28458e-19)
(-0.558776 0.0794778 1.70732e-19)
(-0.6494 0.0759903 -1.45398e-19)
(-0.734845 0.0724656 2.38179e-19)
(-0.816982 0.0687543 2.22966e-19)
(-0.894069 0.0648544 -7.19147e-20)
(-0.967176 0.0607065 -3.02598e-19)
(-1.03473 0.0562735 1.49472e-20)
(-1.0969 0.0514799 6.84664e-20)
(-1.15199 0.0464527 1.80048e-19)
(-1.20022 0.0415653 -2.74509e-19)
(-0.0491018 0.134015 2.24032e-20)
(-0.155792 0.16089 3.27149e-20)
(-0.266195 0.150922 -1.03266e-19)
(-0.363383 0.143859 6.69513e-21)
(-0.459879 0.137359 -2.39357e-19)
(-0.549874 0.131495 7.84647e-20)
(-0.637199 0.125669 -2.21758e-19)
(-0.718994 0.119772 -2.55264e-20)
(-0.797056 0.113562 -1.70806e-19)
(-0.869642 0.107039 5.15599e-19)
(-0.937858 0.100119 6.86576e-19)
(-1.0002 0.0927735 6.07322e-19)
(-1.05682 0.0849104 3.57797e-19)
(-1.10589 0.0767153 2.42409e-19)
(-1.14758 0.0686998 -4.48148e-19)
(-0.0540598 0.184442 -1.1486e-19)
(-0.159197 0.222525 1.35076e-19)
(-0.265612 0.209021 -1.00462e-19)
(-0.358912 0.199276 -2.086e-19)
(-0.451349 0.190275 3.5841e-19)
(-0.537091 0.182091 -3.32102e-19)
(-0.619793 0.173932 4.9035e-19)
(-0.696558 0.165655 -4.16209e-19)
(-0.769105 0.156943 2.945e-19)
(-0.835721 0.147801 -7.22938e-19)
(-0.897582 0.138138 -1.04143e-18)
(-0.953322 0.12797 5.77835e-20)
(-1.00312 0.117223 -1.99236e-19)
(-1.04504 0.106118 -4.34404e-19)
(-1.07919 0.0951877 1.64719e-18)
(-0.0603603 0.231772 -8.61656e-20)
(-0.163565 0.281481 1.94266e-19)
(-0.264879 0.264907 4.51841e-20)
(-0.353205 0.252651 1.65903e-19)
(-0.440524 0.241272 -2.18476e-19)
(-0.520976 0.230826 9.43852e-20)
(-0.598017 0.220366 1.16475e-18)
(-0.668744 0.209738 1.81059e-19)
(-0.734803 0.19856 3.23465e-19)
(-0.794546 0.186851 -1.14285e-19)
(-0.849258 0.174529 9.75398e-20)
(-0.897779 0.161685 -4.03591e-20)
(-0.940399 0.148305 -1.1322e-18)
(-0.975111 0.134626 -6.3532e-19)
(-1.00193 0.121106 -1.86935e-18)
(-0.0677948 0.275302 1.95538e-19)
(-0.168771 0.337064 6.19318e-20)
(-0.263999 0.318053 -9.30583e-20)
(-0.346416 0.303536 -6.8281e-20)
(-0.427756 0.289954 7.26232e-20)
(-0.502112 0.277347 -9.96157e-19)
(-0.572738 0.264665 -1.26457e-19)
(-0.636754 0.251756 6.32903e-20)
(-0.695753 0.238201 -4.7635e-19)
(-0.748184 0.224041 -6.56728e-19)
(-0.795461 0.209216 4.81575e-19)
(-0.83668 0.193912 -4.78676e-19)
(-0.872328 0.178207 1.48715e-18)
(-0.900403 0.162361 -1.16284e-18)
(-0.9208 0.146698 2.5517e-18)
(-0.0761142 0.314346 -1.73209e-19)
(-0.174621 0.38862 -2.96551e-19)
(-0.262914 0.368023 1.19196e-19)
(-0.338684 0.351568 8.95785e-19)
(-0.413389 0.33601 9.0596e-19)
(-0.481063 0.321393 -3.15142e-19)
(-0.544767 0.306614 1.61251e-19)
(-0.601681 0.291551 1.04503e-19)
(-0.653362 0.275769 1.0281e-18)
(-0.698372 0.259341 1.42711e-18)
(-0.738257 0.242237 -6.95299e-19)
(-0.772396 0.22475 -1.3414e-18)
(-0.801535 0.207071 -2.50055e-18)
(-0.823763 0.189512 4.32168e-19)
(-0.838782 0.17224 -3.12012e-18)
(-0.0850152 0.3482 -1.51023e-19)
(-0.180885 0.435623 -1.78816e-19)
(-0.261537 0.414487 -1.30003e-18)
(-0.330127 0.396469 4.61284e-19)
(-0.397734 0.379207 -5.44513e-19)
(-0.45834 0.362781 3.70502e-19)
(-0.514825 0.346085 3.9525e-19)
(-0.564463 0.329041 -1.72895e-18)
(-0.608784 0.311232 -1.15546e-18)
(-0.646477 0.292775 -1.95741e-18)
(-0.679195 0.273676 -3.26276e-19)
(-0.706599 0.254328 1.4249e-18)
(-0.729722 0.235055 5.5976e-18)
(-0.746804 0.21625 -8.57868e-19)
(-0.757235 0.197916 1.5336e-18)
(-0.0941137 0.376216 8.13802e-19)
(-0.187272 0.477636 3.28626e-19)
(-0.259763 0.457215 1.42556e-18)
(-0.320835 0.438042 -1.04609e-18)
(-0.38106 0.419386 4.94467e-19)
(-0.43438 0.401401 -8.26194e-19)
(-0.483518 0.383007 -1.90252e-18)
(-0.525867 0.364199 1.6971e-18)
(-0.562935 0.344604 2.03607e-19)
(-0.593537 0.324398 2.92402e-18)
(-0.619402 0.303627 -9.5529e-19)
(-0.640426 0.282775 -4.33619e-18)
(-0.65791 0.262278 -2.65649e-18)
(-0.670278 0.242636 2.79477e-19)
(-0.676523 0.2237 -1.29451e-18)
(-0.102956 0.39783 -6.73055e-19)
(-0.193436 0.514326 -3.84272e-19)
(-0.25747 0.496056 4.9005e-19)
(-0.310885 0.476159 7.57586e-20)
(-0.363584 0.456453 -1.94002e-19)
(-0.409543 0.437199 -2.233e-19)
(-0.451343 0.417364 8.68727e-19)
(-0.486503 0.397038 -1.03301e-18)
(-0.516511 0.375923 1.02009e-18)
(-0.540304 0.354271 1.27816e-18)
(-0.559642 0.332171 -2.27579e-18)
(-0.57459 0.310166 4.33216e-18)
(-0.586657 0.288775 5.11392e-19)
(-0.59448 0.268611 6.96216e-19)
(-0.596647 0.249422 1.59813e-18)
(-0.111016 0.412585 1.2561e-18)
(-0.19897 0.545432 -4.12094e-19)
(-0.254519 0.530922 -1.84071e-18)
(-0.300311 0.510751 7.2869e-19)
(-0.345472 0.490371 -4.21961e-19)
(-0.384119 0.470174 4.95638e-19)
(-0.418692 0.44918 3.68646e-18)
(-0.446843 0.427596 1.78138e-18)
(-0.470035 0.405237 1.18455e-18)
(-0.487321 0.382441 -3.9804e-18)
(-0.500451 0.359344 4.36314e-18)
(-0.509588 0.336523 1.60003e-18)
(-0.516344 0.314533 -2.5879e-18)
(-0.519548 0.294071 3.14505e-18)
(-0.517532 0.274818 -1.10128e-19)
(-0.117673 0.42004 2.4959e-19)
(-0.203464 0.57087 6.57709e-20)
(-0.250774 0.561743 -1.2129e-19)
(-0.289147 0.541793 -1.3012e-18)
(-0.326843 0.521158 2.59531e-18)
(-0.358325 0.500361 -1.32703e-18)
(-0.385868 0.478498 -3.90237e-18)
(-0.407246 0.455927 1.19504e-18)
(-0.423889 0.432594 -1.92e-18)
(-0.434965 0.408944 2.98493e-18)
(-0.442172 0.385168 -5.38878e-18)
(-0.4457 0.361852 4.19634e-19)
(-0.44715 0.339518 2.30704e-18)
(-0.445506 0.318855 -4.85157e-18)
(-0.439139 0.299585 -1.14456e-18)
(-0.122176 0.419939 -8.25725e-19)
(-0.206457 0.590542 2.39072e-19)
(-0.246117 0.588425 7.34433e-19)
(-0.27735 0.569321 -3.43796e-20)
(-0.307772 0.548879 -3.52677e-18)
(-0.332331 0.527833 3.40502e-19)
(-0.353106 0.505396 1.27185e-18)
(-0.367981 0.4821 -3.44918e-18)
(-0.378353 0.458047 2.58896e-18)
(-0.383493 0.433805 -2.38829e-18)
(-0.385028 0.409623 6.56276e-18)
(-0.383125 0.386079 -2.73979e-18)
(-0.379298 0.363615 3.33478e-18)
(-0.372524 0.342857 6.8019e-18)
(-0.361502 0.323491 2.94611e-18)
(-0.123982 0.412666 -3.24419e-19)
(-0.207599 0.604506 -4.9112e-21)
(-0.240453 0.610839 -2.99126e-20)
(-0.264902 0.593434 -8.24444e-20)
(-0.28831 0.573642 -1.70568e-18)
(-0.306253 0.552677 -7.59134e-19)
(-0.32057 0.529948 1.23979e-18)
(-0.329246 0.506181 7.55174e-19)
(-0.333625 0.481641 -4.37708e-18)
(-0.333082 0.457034 -2.41199e-19)
(-0.329154 0.432684 -1.28835e-18)
(-0.321949 0.409155 2.62009e-18)
(-0.312841 0.386804 -3.69242e-18)
(-0.300699 0.366009 -5.32184e-19)
(-0.284328 0.346244 -3.33129e-18)
(-0.122609 0.39839 1.44206e-18)
(-0.206452 0.612327 -1.27886e-18)
(-0.233617 0.628973 -1.75677e-18)
(-0.251674 0.614295 3.13998e-18)
(-0.268487 0.595578 2.7806e-18)
(-0.280187 0.575007 3.57187e-18)
(-0.288395 0.552273 1.54926e-19)
(-0.291181 0.528258 2.44646e-18)
(-0.289845 0.503434 3.29291e-18)
(-0.283849 0.478649 4.9347e-18)
(-0.274624 0.454303 -2.29505e-18)
(-0.262204 0.430961 4.8289e-18)
(-0.247905 0.408868 -3.1779e-20)
(-0.230448 0.388215 -2.47938e-18)
(-0.207599 0.368133 -6.17354e-18)
(-0.117764 0.377048 -9.05894e-19)
(-0.202618 0.613644 1.42343e-18)
(-0.225496 0.643022 9.4853e-19)
(-0.237679 0.632104 -2.95136e-18)
(-0.248353 0.614849 -1.38492e-18)
(-0.254197 0.594951 -2.5543e-19)
(-0.25665 0.572443 -1.87361e-18)
(-0.253889 0.548391 -3.22612e-18)
(-0.247108 0.523464 -5.52171e-18)
(-0.235868 0.498643 -2.40854e-18)
(-0.221494 0.474435 3.38349e-18)
(-0.203912 0.451416 -7.11414e-18)
(-0.184333 0.429771 2.39093e-19)
(-0.161928 0.409463 4.56098e-18)
(-0.131253 0.389277 6.61405e-18)
(-0.109249 0.348627 -2.17055e-18)
(-0.195858 0.608338 1.69281e-18)
(-0.215901 0.652955 -2.93385e-18)
(-0.222933 0.647026 -1.41298e-18)
(-0.227974 0.63166 -8.23712e-20)
(-0.228388 0.612684 1.964e-18)
(-0.225431 0.590591 3.19562e-18)
(-0.21743 0.566686 1.06129e-18)
(-0.205476 0.541795 1.54966e-18)
(-0.189189 0.517039 -4.35836e-18)
(-0.169791 0.493045 1.05131e-19)
(-0.147094 0.470422 -3.38438e-18)
(-0.122227 0.449265 -2.5272e-18)
(-0.0951965 0.429406 -7.28183e-18)
(-0.056412 0.410175 -9.94442e-20)
(-0.0970406 0.313354 1.90995e-18)
(-0.186094 0.59631 3.02776e-19)
(-0.204756 0.658615 4.59948e-19)
(-0.20745 0.659092 3.50861e-18)
(-0.207391 0.646089 1.48163e-18)
(-0.202808 0.628302 -1.82776e-18)
(-0.194821 0.606854 1.4392e-18)
(-0.181888 0.58325 -8.38298e-19)
(-0.165009 0.558493 -1.67758e-18)
(-0.143852 0.533857 1.93308e-18)
(-0.119548 0.510124 -6.49712e-18)
(-0.0917461 0.487884 -2.49045e-19)
(-0.0613586 0.46732 -3.7115e-18)
(-0.0305178 0.447924 5.78914e-18)
(0.0178981 0.430544 5.17645e-19)
(-0.0814769 0.271727 -7.27462e-19)
(-0.173431 0.577301 -2.04377e-18)
(-0.192115 0.659654 5.43393e-19)
(-0.191293 0.668227 -4.0298e-18)
(-0.186657 0.658229 -2.75863e-18)
(-0.177508 0.641916 -1.55381e-18)
(-0.164867 0.621327 -2.72872e-18)
(-0.147315 0.598156 2.63932e-18)
(-0.125752 0.573612 3.73363e-18)
(-0.0998723 0.549115 7.29483e-18)
(-0.0708071 0.525629 -3.12873e-19)
(-0.0379947 0.50374 8.29818e-18)
(-0.00144852 0.4835 3.3015e-18)
(0.0316772 0.464948 2.58239e-18)
(0.092295 0.451726 -5.78124e-18)
(-0.0635363 0.224488 1.25095e-18)
(-0.158171 0.550786 3.10885e-18)
(-0.178118 0.655443 2.13574e-18)
(-0.17457 0.674228 2.80492e-18)
(-0.165866 0.668129 1.14878e-20)
(-0.152554 0.65364 1.10798e-18)
(-0.135618 0.634078 3.08814e-20)
(-0.113758 0.611473 -2.03264e-18)
(-0.0877486 0.587197 3.1723e-18)
(-0.0572397 0.562813 -1.10993e-17)
(-0.0234846 0.539548 3.27503e-18)
(0.0138136 0.518135 -2.17976e-18)
(0.0580452 0.498093 4.33348e-19)
(0.0910226 0.478976 -3.28197e-18)
(0.166652 0.472528 -3.71532e-18)
(-0.0454159 0.172615 -2.04287e-18)
(-0.140864 0.515874 2.72419e-18)
(-0.162923 0.645009 -6.86849e-19)
(-0.157415 0.676683 -1.18148e-18)
(-0.145134 0.675763 2.47762e-18)
(-0.128051 0.663507 2.60761e-19)
(-0.10715 0.645179 -7.42136e-19)
(-0.0812451 0.623224 -8.76004e-20)
(-0.0510566 0.59929 -2.04671e-18)
(-0.0160244 0.574991 5.31717e-18)
(0.0226998 0.551728 3.24489e-18)
(0.0632062 0.531022 1.71282e-18)
(0.117376 0.511282 -1.56772e-19)
(0.147275 0.49036 4.16823e-18)
(0.242278 0.494194 -3.75458e-19)
(-0.0307333 0.118295 5.98685e-19)
(-0.122278 0.471306 -6.48815e-19)
(-0.14665 0.627054 5.09026e-19)
(-0.139951 0.674901 2.18764e-18)
(-0.124621 0.680875 -1.39827e-18)
(-0.104112 0.671509 -9.07697e-19)
(-0.0795673 0.654627 -1.70932e-18)
(-0.0498407 0.633455 1.3472e-18)
(-0.015693 0.609889 -1.40614e-18)
(0.023539 0.585735 -1.59921e-18)
(0.0682924 0.562082 -2.81355e-18)
(0.109755 0.542303 -1.64175e-18)
(0.177397 0.523655 5.96559e-18)
(0.198295 0.494865 -8.27282e-18)
(0.318606 0.516284 -2.24894e-19)
(-0.0216721 0.0662351 2.57108e-18)
(-0.103246 0.41564 -9.93836e-19)
(-0.129316 0.600105 -2.58729e-18)
(-0.122288 0.667816 -6.92094e-19)
(-0.10448 0.682979 3.65001e-18)
(-0.0809073 0.677434 -7.3293e-20)
(-0.0530092 0.662423 1.76214e-18)
(-0.0196347 0.642092 -9.69297e-19)
(0.0184351 0.618911 -3.76336e-18)
(0.0608488 0.595199 8.75281e-18)
(0.11394 0.570508 -6.4373e-18)
(0.152687 0.551249 1.91231e-18)
(0.239855 0.539242 -8.47434e-18)
(0.245334 0.494065 3.00493e-18)
(0.391539 0.528398 2.46875e-18)
(-0.0156873 0.0224593 -9.13164e-19)
(-0.0839009 0.347604 -2.94223e-18)
(-0.110891 0.562729 1.33196e-18)
(-0.104505 0.653914 2.35686e-19)
(-0.0849178 0.681126 -3.2782e-18)
(-0.0585754 0.680975 2.02599e-18)
(-0.0276799 0.668375 9.74804e-20)
(0.00905206 0.649213 -4.92966e-19)
(0.051747 0.626085 -3.81581e-18)
(0.0951743 0.603339 -4.55054e-19)
(0.160409 0.577556 5.09251e-18)
(0.190655 0.55434 4.18293e-19)
(0.304119 0.557506 1.21321e-18)
(0.292844 0.499321 3.49688e-18)
(0.461384 0.533308 -8.99695e-18)
(-0.00839259 -0.00870565 -1.39496e-18)
(-0.0646097 0.26746 3.95209e-20)
(-0.0913079 0.513511 -1.68757e-18)
(-0.0867228 0.631166 1.36836e-18)
(-0.0661065 0.674001 1.85033e-18)
(-0.0374282 0.681378 -1.38329e-18)
(-0.00366046 0.672225 -2.39724e-19)
(0.0355656 0.654582 -1.13641e-18)
(0.0846784 0.63123 2.88411e-18)
(0.125684 0.609718 5.4635e-19)
(0.208924 0.586045 -7.31627e-18)
(0.223691 0.550621 1.97625e-18)
(0.367558 0.568903 1.2484e-18)
(0.34159 0.509316 -5.63948e-18)
(0.53033 0.54037 1.33127e-18)
(0.000919266 -0.0260495 3.17216e-19)
(-0.0476079 0.180697 8.42734e-19)
(-0.0712817 0.450803 1.59475e-18)
(-0.0690358 0.597051 -1.3361e-18)
(-0.0483526 0.659622 -4.90707e-20)
(-0.0177827 0.677718 3.3366e-18)
(0.0189039 0.673191 -1.50469e-19)
(0.0590075 0.658189 1.06405e-20)
(0.117725 0.633923 4.58944e-18)
(0.151157 0.61146 -2.61547e-18)
(0.259492 0.598191 1.8854e-18)
(0.254651 0.547229 -5.29543e-18)
(0.428523 0.571322 4.56132e-19)
(0.390444 0.515098 -1.39647e-18)
(0.597715 0.545877 2.46083e-18)
(0.00914071 -0.0321166 -2.33657e-19)
(-0.0335083 0.100149 1.06883e-18)
(-0.0521189 0.373655 -1.40447e-18)
(-0.0519265 0.548827 2.96493e-18)
(-0.031864 0.635548 -2.46345e-18)
(-0.000582165 0.668057 -2.19197e-18)
(0.0402455 0.670242 -1.35697e-18)
(0.0781353 0.658939 -2.8767e-18)
(0.151058 0.636428 -5.52419e-18)
(0.171286 0.605075 8.63194e-19)
(0.309021 0.607312 4.31214e-18)
(0.286885 0.549161 3.46206e-18)
(0.485692 0.570517 6.01268e-19)
(0.440462 0.518906 -2.90913e-18)
(0.662026 0.546765 -1.47652e-18)
(0.0141485 -0.0316394 5.75119e-19)
(-0.0186013 0.039681 1.01299e-18)
(-0.034489 0.282279 -4.28238e-18)
(-0.035958 0.484285 -2.93857e-18)
(-0.0171642 0.598485 -8.57909e-20)
(0.0133189 0.65027 2.30276e-18)
(0.059648 0.661322 -8.15825e-19)
(0.0923734 0.654167 6.37831e-18)
(0.183275 0.639734 5.6466e-19)
(0.188309 0.594993 -3.46816e-18)
(0.352145 0.605234 -3.29514e-18)
(0.3214 0.550264 -5.27552e-18)
(0.536507 0.566281 5.82206e-18)
(0.491339 0.521337 3.88942e-18)
(0.722157 0.543275 3.52565e-21)
(0.0160936 -0.0284046 -1.59892e-18)
(-0.00179829 0.00237418 -2.97923e-18)
(-0.0197567 0.182922 2.13739e-18)
(-0.0225078 0.402004 2.6089e-18)
(-0.00447421 0.544814 1.60184e-18)
(0.022115 0.620047 -1.58993e-18)
(0.0767297 0.645525 4.01428e-18)
(0.100457 0.639565 -5.61824e-18)
(0.210712 0.639655 6.18009e-18)
(0.206359 0.585258 3.94497e-18)
(0.382944 0.595168 -1.19273e-18)
(0.355995 0.543601 -1.68609e-18)
(0.576897 0.554477 -2.31308e-18)
(0.539364 0.519335 -4.64247e-18)
(0.77798 0.526695 5.60171e-18)
(0.0162508 -0.0248093 4.53667e-18)
(0.0129236 -0.0169473 3.49417e-18)
(-0.00700427 0.0967356 7.96368e-19)
(-0.0130616 0.305134 -4.33175e-20)
(0.00495261 0.470958 -5.53432e-19)
(0.0254868 0.572956 -6.58068e-19)
(0.0874943 0.618479 -3.12697e-18)
(0.105281 0.614625 5.31319e-18)
(0.224286 0.628337 -4.06893e-18)
(0.228579 0.571592 -4.12164e-20)
(0.397861 0.582358 3.8898e-18)
(0.391085 0.526066 2.72566e-18)
(0.60358 0.539574 2.74251e-18)
(0.579893 0.507592 -3.65548e-20)
(0.817556 0.497136 -3.30127e-18)
(0.0164508 -0.0215239 -2.72775e-18)
(0.0240356 -0.0248869 -2.83822e-18)
(0.00728824 0.0401849 8.96263e-19)
(-0.00665466 0.205017 -1.43566e-18)
(0.0104934 0.377631 -6.55547e-19)
(0.0220376 0.502706 2.32655e-18)
(0.0895351 0.577254 -6.22419e-19)
(0.104937 0.572704 -5.62702e-19)
(0.221516 0.604715 -1.59229e-18)
(0.250454 0.54201 -3.59076e-18)
(0.394881 0.566568 1.67726e-18)
(0.431389 0.491009 -1.98479e-18)
(0.615512 0.536979 -3.14381e-18)
(0.604601 0.451459 -1.43166e-18)
(0.848225 0.506991 5.85565e-18)
(0.0177619 -0.0189588 3.09463e-18)
(0.0331613 -0.0270801 -2.4426e-18)
(0.0224168 0.0105565 -4.02073e-18)
(0.00075436 0.120925 4.01351e-19)
(0.011436 0.276565 9.68803e-19)
(0.014224 0.407821 -6.35342e-19)
(0.0749144 0.513126 1.75507e-18)
(0.106755 0.517052 3.54547e-19)
(0.187706 0.550509 -2.11891e-19)
(0.287888 0.512734 1.49859e-19)
(0.344798 0.510491 -1.73152e-18)
(0.513591 0.476315 2.2503e-19)
(0.555538 0.482476 1.01092e-18)
(0.680665 0.418564 -8.0261e-19)
(0.840223 0.48592 5.46604e-18)
(0.0205393 -0.0174684 6.54619e-19)
(0.0413947 -0.0272814 -1.40783e-18)
(0.0349717 -0.00328129 3.92489e-18)
(0.0105211 0.0657559 3.04189e-18)
(0.00762089 0.184775 -3.0143e-18)
(0.00544029 0.303117 -1.78404e-19)
(0.0441169 0.418758 -1.31248e-18)
(0.100734 0.448997 -4.71423e-19)
(0.139746 0.463801 3.28991e-18)
(0.2947 0.461642 1.61073e-18)
(0.287547 0.418892 2.1748e-18)
(0.54584 0.440202 -1.78026e-18)
(0.428317 0.352069 1.22274e-18)
(0.791909 0.417174 -7.03612e-19)
(0.631992 0.329225 -6.97984e-18)
(0.0243589 -0.0172341 5.22906e-19)
(0.0482973 -0.0279131 8.36007e-19)
(0.042912 -0.0110476 -2.16524e-18)
(0.018101 0.0342766 -2.4748e-18)
(0.00133404 0.113864 -2.25824e-18)
(-0.00774157 0.207081 1.94699e-19)
(0.00901281 0.308131 1.52258e-18)
(0.0677825 0.354439 -2.69166e-18)
(0.102231 0.370405 -1.34025e-18)
(0.236314 0.353395 7.07338e-19)
(0.269236 0.334905 -1.98123e-18)
(0.450147 0.322705 1.91627e-19)
(0.410761 0.261108 1.42789e-18)
(0.746813 0.341986 -2.03182e-18)
(0.514009 0.206302 1.63563e-18)
(0.0282796 -0.0180742 -1.17369e-18)
(0.0522855 -0.0300309 2.67304e-18)
(0.044792 -0.0186862 1.77592e-18)
(0.0184066 0.012826 1.19322e-18)
(-0.00866237 0.0628058 1.93531e-18)
(-0.0292615 0.127029 -1.95862e-19)
(-0.0266577 0.201411 -1.43772e-18)
(0.0141288 0.239744 3.19415e-19)
(0.0572303 0.266609 1.73832e-18)
(0.160963 0.224838 -2.76695e-18)
(0.227378 0.229613 -1.29317e-18)
(0.379907 0.205778 1.01439e-19)
(0.465179 0.224812 -4.11883e-19)
(0.72513 0.278933 2.44061e-18)
(0.800824 0.30646 -2.30055e-18)
(0.0309588 -0.0194195 1.28188e-18)
(0.0515464 -0.0335842 8.59214e-19)
(0.0389957 -0.0284917 -1.03859e-19)
(0.00852549 -0.00750242 -7.75038e-19)
(-0.0270381 0.0226172 1.70327e-19)
(-0.0597154 0.0599821 -2.27662e-18)
(-0.0692171 0.106064 4.8502e-19)
(-0.0494801 0.121341 -9.41253e-19)
(-0.0036453 0.146898 -9.66171e-19)
(0.0892667 0.101829 1.90634e-18)
(0.203489 0.122654 2.76715e-18)
(0.411499 0.151482 1.3514e-18)
(0.598656 0.232801 1.40824e-18)
(0.868934 0.308051 -1.84126e-18)
(1.04686 0.402511 -1.96731e-18)
(0.0310305 -0.0204821 1.0623e-18)
(0.0449878 -0.0377193 -2.02307e-18)
(0.0252244 -0.0401517 -9.81268e-19)
(-0.0118131 -0.0294313 -2.20338e-18)
(-0.0563819 -0.0145234 9.9527e-19)
(-0.100447 0.00124931 2.39139e-18)
(-0.124653 0.0198828 -2.71959e-18)
(-0.118899 0.00892533 9.20573e-19)
(-0.0651674 0.0270514 1.58715e-18)
(0.0785588 0.0180756 4.84604e-19)
(0.293393 0.0844538 -1.89975e-18)
(0.56846 0.177884 -7.78849e-19)
(0.800328 0.278325 3.40192e-21)
(1.02688 0.360258 1.08263e-18)
(1.11994 0.409033 4.27845e-18)
(0.0274708 -0.0204806 -1.71786e-18)
(0.0323621 -0.0411955 -1.7268e-18)
(0.00426931 -0.0518782 9.69908e-19)
(-0.0408162 -0.0514048 3.91674e-18)
(-0.0956732 -0.049055 -2.55458e-18)
(-0.152095 -0.0498906 7.11267e-19)
(-0.188697 -0.0556546 1.08019e-18)
(-0.170107 -0.0805993 -9.49134e-20)
(-0.0531563 -0.0481419 2.01387e-19)
(0.203298 0.0160792 1.02536e-18)
(0.495666 0.123677 -9.56553e-19)
(0.760544 0.229076 -1.83403e-18)
(0.956214 0.315865 -1.63734e-18)
(1.08795 0.365299 1.36061e-18)
(1.16366 0.401175 4.2258e-19)
(0.0199795 -0.0187391 -4.24692e-19)
(0.0145384 -0.0423406 3.42106e-18)
(-0.0217205 -0.0606165 7.1981e-19)
(-0.0748477 -0.0687185 1.03415e-18)
(-0.138575 -0.0751169 9.52144e-19)
(-0.201607 -0.085545 9.10846e-19)
(-0.229747 -0.10159 -3.15517e-19)
(-0.146366 -0.113715 6.20923e-19)
(0.0893525 -0.0430859 3.25126e-19)
(0.416983 0.0686712 1.3884e-18)
(0.695529 0.175685 8.42739e-21)
(0.902057 0.263045 1.25907e-18)
(1.03778 0.324913 -1.05895e-18)
(1.13761 0.366369 -1.01587e-18)
(1.20651 0.401923 6.95881e-19)
(0.0092084 -0.0148946 1.5318e-18)
(-0.00639809 -0.039532 -1.40456e-18)
(-0.0489059 -0.0625744 1.46313e-19)
(-0.106495 -0.0752348 -2.10869e-18)
(-0.171269 -0.0838819 -1.78421e-18)
(-0.224433 -0.092427 3.15925e-18)
(-0.215705 -0.101304 9.87241e-19)
(-0.0264233 -0.0791699 -1.38186e-18)
(0.30148 0.021618 4.2168e-19)
(0.614692 0.126207 -3.76877e-18)
(0.842944 0.213176 1.23756e-18)
(0.999705 0.283986 -1.48488e-18)
(1.10672 0.33485 1.70051e-18)
(1.17987 0.371488 -2.00358e-19)
(1.22057 0.393324 -1.02551e-18)
(-0.00329662 -0.00910584 -2.39418e-18)
(-0.0274028 -0.0318137 -2.44288e-18)
(-0.0723541 -0.0556795 -2.51506e-18)
(-0.127816 -0.0678255 -1.91594e-18)
(-0.182696 -0.0716432 1.30683e-18)
(-0.211405 -0.0703546 -5.5417e-18)
(-0.147562 -0.0703037 5.08981e-19)
(0.160998 -0.00121784 5.64031e-19)
(0.50203 0.0925188 2.9859e-19)
(0.77267 0.174957 1.77457e-18)
(0.959063 0.246836 -1.45356e-18)
(1.08006 0.304283 3.2496e-18)
(1.1538 0.342807 -6.80947e-19)
(1.19697 0.367755 -1.29228e-18)
(1.22796 0.381779 7.21113e-19)
(-0.0155896 -0.00215101 4.23238e-19)
(-0.04571 -0.0199961 1.98194e-18)
(-0.0884653 -0.0408225 2.84266e-18)
(-0.135124 -0.0479438 4.67665e-19)
(-0.170989 -0.0421709 2.35075e-18)
(-0.169851 -0.0302209 1.38123e-18)
(-0.0339623 -0.0204704 4.49322e-19)
(0.352235 0.0744974 -2.38278e-18)
(0.670869 0.151638 -1.39725e-19)
(0.903654 0.219234 9.85658e-19)
(1.04906 0.276284 3.57122e-18)
(1.13264 0.31829 -4.27883e-19)
(1.17975 0.344319 1.15801e-18)
(1.2111 0.364038 1.07848e-18)
(1.23761 0.376667 1.7241e-18)
(-0.0259718 0.00480687 7.80898e-19)
(-0.0595511 -0.00601126 -2.61455e-18)
(-0.0963991 -0.021046 -5.65635e-19)
(-0.129394 -0.0210776 3.42845e-20)
(-0.141511 -0.0036822 -4.38133e-18)
(-0.112166 0.0114698 1.1886e-18)
(0.116016 0.0499582 -6.54076e-19)
(0.518301 0.137106 7.83339e-19)
(0.81418 0.206191 2.55809e-18)
(1.00483 0.257659 -8.64564e-19)
(1.11099 0.299319 -2.75257e-18)
(1.16806 0.327927 -3.51007e-19)
(1.20038 0.346971 -3.94032e-19)
(1.22102 0.362877 -8.55627e-19)
(1.23659 0.367551 -1.86175e-18)
(-0.033384 0.0106583 1.63319e-19)
(-0.0683954 0.00775298 7.07784e-19)
(-0.0970716 -0.000508533 -1.83484e-18)
(-0.113702 0.006281 7.86211e-19)
(-0.104274 0.0332602 1.80287e-18)
(-0.0392889 0.0370339 -8.37621e-19)
(0.283892 0.114005 -1.48198e-19)
(0.669429 0.19358 -2.0243e-18)
(0.928919 0.25117 3.84832e-19)
(1.07932 0.287765 -1.44537e-18)
(1.15535 0.31731 1.31576e-18)
(1.19281 0.335884 -1.04746e-18)
(1.21138 0.3485 1.80361e-18)
(1.2231 0.358062 -6.69648e-19)
(1.23876 0.361302 -1.35818e-18)
(-0.0375182 0.0146434 8.35268e-19)
(-0.0725851 0.0192009 5.22031e-19)
(-0.0922876 0.0171097 4.73382e-19)
(-0.0915459 0.030215 1.29769e-19)
(-0.069318 0.0580285 8.02814e-19)
(0.0501131 0.0614067 -2.02254e-18)
(0.445246 0.164906 1.21104e-18)
(0.798788 0.239396 2.87828e-18)
(1.01737 0.286864 -3.16498e-19)
(1.13289 0.312057 2.10311e-18)
(1.18423 0.331626 1.21757e-18)
(1.20642 0.340975 2.10517e-19)
(1.21717 0.348594 3.70794e-19)
(1.22715 0.356422 7.00022e-19)
(1.23806 0.356518 1.5967e-18)
(-0.0387379 0.0164715 1.26256e-18)
(-0.0730993 0.0269176 1.79652e-18)
(-0.0839959 0.0292975 -1.61598e-18)
(-0.0680007 0.0477145 1.48422e-18)
(-0.0360931 0.0616294 -3.45061e-18)
(0.17262 0.100004 9.18555e-19)
(0.593847 0.210076 -3.09185e-19)
(0.905977 0.277769 -1.76543e-18)
(1.08342 0.315033 -3.12392e-18)
(1.16875 0.330232 -1.1726e-18)
(1.202 0.341586 -2.83741e-18)
(1.21531 0.344622 1.71722e-18)
(1.22154 0.350216 -2.24844e-18)
(1.22665 0.353443 1.4926e-18)
(1.2356 0.350767 9.99193e-19)
(-0.0379055 0.0163292 -2.98626e-18)
(-0.0712694 0.0303122 9.67671e-20)
(-0.0740308 0.0355842 2.21015e-19)
(-0.049371 0.0556204 4.08457e-19)
(0.00505412 0.0477682 2.75555e-19)
(0.329985 0.142472 1.67635e-18)
(0.728727 0.24796 9.55439e-19)
(0.991674 0.307274 -2.68513e-19)
(1.13042 0.335422 1.38262e-18)
(1.19187 0.343494 8.72389e-19)
(1.21268 0.349421 3.90909e-19)
(1.21964 0.347861 -9.61686e-19)
(1.22151 0.350345 3.0995e-18)
(1.22634 0.351122 5.26007e-19)
(1.23447 0.348114 -1.08365e-18)
(-0.036134 0.0147024 2.73568e-18)
(-0.0683604 0.0296361 -1.94832e-18)
(-0.0641443 0.0372577 6.26951e-19)
(-0.0383083 0.049276 -6.14026e-20)
(0.0755074 0.0471349 3.15211e-18)
(0.489061 0.18454 -2.58235e-19)
(0.842041 0.280344 -1.15132e-18)
(1.0562 0.330234 2.80959e-18)
(1.16244 0.350671 2.67175e-19)
(1.20569 0.353462 1.11555e-18)
(1.2177 0.354916 -2.23712e-18)
(1.22089 0.349622 5.32164e-20)
(1.22189 0.351537 -9.63625e-19)
(1.22508 0.34938 -1.89154e-19)
(1.23035 0.344163 -6.28219e-19)
(-0.0345443 0.0121531 -7.31726e-19)
(-0.0653451 0.0256822 2.02153e-18)
(-0.0570418 0.0354818 1.21498e-18)
(-0.0259127 0.0274807 9.58736e-19)
(0.198836 0.0819538 -5.21719e-19)
(0.632196 0.223595 -2.13005e-19)
(0.934645 0.306536 1.42862e-18)
(1.10476 0.347019 -1.19609e-18)
(1.18377 0.36109 3.60717e-19)
(1.21308 0.360187 -1.89367e-18)
(1.21955 0.358823 1.34624e-19)
(1.22097 0.35189 2.75718e-19)
(1.21989 0.352171 -3.99706e-19)
(1.22248 0.347135 -2.34203e-18)
(1.22795 0.342593 9.66857e-19)
(-0.0340538 0.0091463 -1.27763e-18)
(-0.0628499 0.0202382 -1.5909e-18)
(-0.0554781 0.0284682 8.32814e-19)
(0.00766771 0.002272 -1.13338e-19)
(0.362475 0.13213 -1.26128e-18)
(0.756911 0.256372 -5.45391e-20)
(1.00721 0.327286 -1.01088e-18)
(1.13907 0.359654 -2.02926e-18)
(1.19651 0.368641 -8.38494e-19)
(1.21608 0.36539 7.78447e-19)
(1.21909 0.362027 6.9873e-19)
(1.21896 0.353203 -7.14572e-20)
(1.21783 0.352969 -1.07704e-18)
(1.22035 0.34599 1.9341e-18)
(1.22329 0.340471 5.89545e-19)
(-0.034977 0.00607207 1.25295e-18)
(-0.061466 0.0158566 2.38567e-21)
(-0.0561942 0.0152656 -2.04094e-18)
(0.0783145 0.00673152 -4.48446e-20)
(0.516447 0.177375 3.06294e-19)
(0.859604 0.284738 5.71069e-19)
(1.06275 0.343913 -1.04318e-18)
(1.16337 0.368771 5.56556e-19)
(1.2042 0.373762 -2.41731e-20)
(1.21651 0.368917 6.23457e-19)
(1.21717 0.364037 -5.53146e-19)
(1.21683 0.354923 -1.53027e-18)
(1.21492 0.353799 -7.2246e-20)
(1.21664 0.344263 -9.33814e-19)
(1.21962 0.339699 -7.93846e-19)
(-0.037109 0.00350953 5.07529e-19)
(-0.0622976 0.0131268 -1.03633e-18)
(-0.0482033 -0.00385631 1.03975e-18)
(0.195419 0.0553246 -3.20445e-19)
(0.645656 0.21728 -1.75989e-19)
(0.942983 0.309074 -5.16743e-19)
(1.10493 0.357071 8.18525e-19)
(1.17954 0.3756 5.39812e-19)
(1.20745 0.377553 -3.25345e-19)
(1.21483 0.37178 -9.23094e-19)
(1.21444 0.366143 -3.32234e-19)
(1.21343 0.356286 1.56457e-18)
(1.21146 0.354378 9.45133e-19)
(1.21356 0.343582 9.20076e-19)
(1.21471 0.33904 -2.78811e-19)
(-0.0400971 0.00249089 -3.19943e-19)
(-0.0659761 0.00931205 1.13394e-19)
(-0.0176072 -0.0223811 -4.2799e-19)
(0.346974 0.114873 -9.92711e-21)
(0.758411 0.25034 -3.28862e-19)
(1.00895 0.328901 -4.99197e-19)
(1.13571 0.367643 1.78854e-19)
(1.18993 0.38073 -1.06516e-18)
(1.20853 0.380351 9.56415e-19)
(1.21248 0.374029 1.22353e-18)
(1.21105 0.367506 1.53899e-19)
(1.21005 0.357768 -1.35082e-18)
(1.20792 0.355202 -1.29917e-18)
(1.20922 0.342559 -9.70106e-19)
(1.21002 0.338903 3.84504e-19)
(-0.0431141 0.00436374 -1.03092e-18)
(-0.070335 0.00354266 2.80865e-19)
(0.0411027 -0.0202847 -2.035e-19)
(0.492421 0.162097 -6.9346e-21)
(0.853468 0.279087 -8.55662e-20)
(1.06024 0.345847 -1.91429e-19)
(1.15791 0.376222 3.57836e-19)
(1.1961 0.384859 -2.04563e-19)
(1.20754 0.382734 -2.75008e-19)
(1.20899 0.376003 -5.27267e-19)
(1.20729 0.369184 -4.66359e-19)
(1.20595 0.359268 -2.1152e-19)
(1.20362 0.355728 8.0616e-19)
(1.20526 0.342387 -3.07207e-20)
(1.2049 0.339277 6.1721e-19)
(-0.0454585 0.00933648 4.28484e-19)
(-0.0707805 -0.00429959 7.26309e-19)
(0.124971 0.0131948 1.17642e-19)
(0.610072 0.202229 4.44295e-19)
(0.931352 0.305677 9.69614e-19)
(1.09994 0.360413 3.56427e-19)
(1.17323 0.383329 1.32529e-18)
(1.19912 0.388299 7.063e-19)
(1.20563 0.384836 4.47922e-19)
(1.20552 0.377929 1.03068e-18)
(1.20328 0.370525 3.19242e-19)
(1.20181 0.360726 5.78138e-19)
(1.19952 0.356561 2.84704e-19)
(1.20044 0.342131 1.31868e-19)
(1.19947 0.33961 4.25891e-19)
(-0.0474437 0.0147896 5.98757e-19)
(-0.0603051 -0.0143698 -1.02798e-18)
(0.236788 0.0666814 -1.9401e-19)
(0.711855 0.237471 4.63291e-19)
(0.994359 0.328313 -9.7838e-19)
(1.12989 0.372863 -4.00198e-19)
(1.18355 0.389399 -8.18764e-19)
(1.20011 0.391434 -2.78678e-20)
(1.20285 0.386981 -2.2379e-19)
(1.20135 0.379776 -8.64848e-19)
(1.19896 0.37216 6.54833e-19)
(1.19723 0.362368 4.88734e-20)
(1.19467 0.357189 -2.79178e-20)
(1.19572 0.342482 2.30135e-19)
(1.19412 0.340566 -5.23223e-19)
(-0.0497789 0.0168211 -4.34581e-20)
(-0.03475 -0.0215483 4.48268e-19)
(0.363455 0.118606 1.19263e-19)
(0.800154 0.266983 -6.48551e-19)
(1.04387 0.347528 4.3329e-19)
(1.15177 0.383525 1.38787e-19)
(1.18994 0.394835 -3.64643e-19)
(1.19949 0.394492 -1.73319e-19)
(1.19961 0.389179 -5.28377e-19)
(1.19733 0.381824 9.4001e-20)
(1.19455 0.373751 -6.32873e-19)
(1.19254 0.363943 -4.4506e-19)
(1.19005 0.358139 1.17633e-19)
(1.19049 0.342937 1.20395e-19)
(1.18822 0.341179 -2.0833e-19)
(-0.0526182 0.0125102 -2.22544e-19)
(0.00609 -0.0198639 -1.41156e-19)
(0.484377 0.163165 3.12832e-19)
(0.877082 0.294075 5.58681e-19)
(1.08304 0.363896 1.08496e-19)
(1.16731 0.39262 -2.99172e-19)
(1.19346 0.399798 3.77754e-19)
(1.19788 0.397611 3.30059e-19)
(1.19601 0.39163 1.72065e-19)
(1.19282 0.383914 3.28404e-20)
(1.1898 0.375564 2.03068e-19)
(1.18755 0.365747 8.95008e-20)
(1.18475 0.358992 -6.17847e-20)
(1.18513 0.343742 -7.7523e-20)
(1.18263 0.342334 6.75693e-20)
(-0.0556017 0.0005204 -1.0411e-19)
(0.0625603 -0.00834879 -1.22051e-19)
(0.589107 0.201631 1.00162e-19)
(0.942998 0.319378 -1.33097e-19)
(1.11384 0.378478 -2.8273e-19)
(1.17789 0.400632 2.15731e-20)
(1.1947 0.404531 1.74266e-19)
(1.19536 0.400914 -1.57778e-19)
(1.19205 0.394276 1.04573e-19)
(1.18836 0.386292 2.10489e-19)
(1.18499 0.37751 3.35748e-20)
(1.18237 0.367519 8.3173e-20)
(1.17961 0.360141 -9.96713e-20)
(1.17954 0.344746 6.7541e-20)
(1.17647 0.343081 -4.88371e-20)