# Probe 0 (5.5 0.5 0)
# Probe 1 (5.5 -0.5 0)
#       Probe             0             1
#        Time
        0.005     -0.988548     -0.988548
         0.01     0.0886071     0.0886073
        0.015     -0.029397    -0.0293971
         0.02    -0.0204007    -0.0204006
        0.025    -0.0164763    -0.0164763
         0.03    -0.0135522    -0.0135522
        0.035    -0.0112608    -0.0112608
         0.04   -0.00943371    -0.0094337
        0.045   -0.00796419   -0.00796419
         0.05   -0.00675087   -0.00675087
        0.055   -0.00575617   -0.00575617
         0.06    -0.0049137    -0.0049137
        0.065   -0.00420503   -0.00420503
         0.07   -0.00360356   -0.00360355
        0.075   -0.00309178   -0.00309177
         0.08    -0.0026547    -0.0026547
        0.085   -0.00227926   -0.00227926
         0.09   -0.00195541   -0.00195541
        0.095   -0.00167458   -0.00167458
          0.1   -0.00142973   -0.00142972
        0.105   -0.00121548   -0.00121547
         0.11   -0.00102818   -0.00102818
        0.115  -0.000863093  -0.000863091
         0.12  -0.000716752  -0.000716749
        0.125  -0.000587866  -0.000587863
         0.13   -0.00047264  -0.000472636
        0.135   -0.00036971  -0.000369707
         0.14  -0.000277359  -0.000277356
        0.145  -0.000194598  -0.000194595
         0.15   -0.00011995  -0.000119948
        0.155  -5.23463e-05  -5.23448e-05
         0.16   8.98949e-06   8.99268e-06
        0.165   6.49143e-05   6.49173e-05
         0.17   0.000115769   0.000115771
        0.175   0.000162604   0.000162606
         0.18   0.000205547   0.000205549
        0.185   0.000245199   0.000245201
         0.19   0.000281838    0.00028184
        0.195   0.000315655   0.000315657
          0.2   0.000347692   0.000347693
        0.205   0.000377279   0.000377281
         0.21   0.000405001   0.000405004
        0.215    0.00043102   0.000431023
         0.22   0.000455506   0.000455509
        0.225    0.00047861   0.000478614
         0.23   0.000500458   0.000500461
        0.235   0.000521133   0.000521136
         0.24    0.00054069   0.000540693
        0.245   0.000559557    0.00055956
         0.25   0.000577469   0.000577472
        0.255   0.000594209   0.000594211
         0.26   0.000611074   0.000611076
        0.265   0.000626981   0.000626983
         0.27    0.00064293   0.000642932
        0.275   0.000657585   0.000657587
         0.28   0.000671427   0.000671429
        0.285   0.000684423   0.000684424
         0.29   0.000696266   0.000696267
        0.295   0.000708495   0.000708497
          0.3   0.000723484   0.000723486
        0.305   0.000735693   0.000735695
         0.31   0.000747016   0.000747016
        0.315   0.000757909   0.000757918
         0.32   0.000768514   0.000768521
        0.325   0.000778537   0.000778529
         0.33   0.000788415   0.000788428
        0.335   0.000798012   0.000798015
         0.34   0.000807256   0.000807257
        0.345   0.000816321    0.00081632
         0.35    0.00082529   0.000825296
        0.355   0.000833955    0.00083396
         0.36   0.000842217    0.00084222
        0.365   0.000850665   0.000850667
         0.37    0.00085859   0.000858594
        0.375   0.000866341   0.000866343
         0.38   0.000873874   0.000873877
        0.385   0.000881165   0.000881168
         0.39   0.000888235   0.000888238
        0.395    0.00089514   0.000895143
          0.4   0.000901804   0.000901807
        0.405   0.000908677    0.00090868
         0.41   0.000915551   0.000915554
        0.415   0.000921774   0.000921777
         0.42   0.000927982   0.000927985
        0.425   0.000934319   0.000934322
         0.43   0.000940307   0.000940303
        0.435   0.000946894   0.000946897
         0.44   0.000951914   0.000951922
        0.445   0.000957719   0.000957722
         0.45   0.000963179   0.000963182
        0.455   0.000968501   0.000968505
         0.46   0.000973828    0.00097383
        0.465   0.000979055   0.000979059
         0.47   0.000984036   0.000984039
        0.475   0.000989109   0.000989112
         0.48   0.000994163   0.000994165
        0.485   0.000999001   0.000999004
         0.49    0.00100365    0.00100365
        0.495    0.00100828    0.00100828
          0.5    0.00101295    0.00101295
        0.505     0.0010175     0.0010175
         0.51    0.00102188    0.00102189
        0.515    0.00102609    0.00102609
         0.52    0.00103008    0.00103008
        0.525     0.0010349     0.0010349
         0.53    0.00103988    0.00103988
        0.535    0.00104402    0.00104402
         0.54    0.00104806    0.00104806
        0.545    0.00105202    0.00105203
         0.55    0.00105586    0.00105586
        0.555    0.00105969     0.0010597
         0.56    0.00106344    0.00106344
        0.565    0.00106741    0.00106741
         0.57    0.00107144    0.00107144
        0.575    0.00107524    0.00107524
         0.58    0.00107903    0.00107903
        0.585    0.00108282    0.00108282
         0.59    0.00108614    0.00108614
        0.595    0.00108981    0.00108981
          0.6    0.00109327    0.00109328
        0.605    0.00109545    0.00109545
         0.61     0.0010993     0.0010993
        0.615    0.00110622    0.00110623
         0.62    0.00111153    0.00111153
        0.625    0.00111518    0.00111518
         0.63     0.0011185     0.0011185
        0.635    0.00112182    0.00112182
         0.64    0.00112502    0.00112502
        0.645    0.00112806    0.00112806
         0.65    0.00113191    0.00113191
        0.655     0.0011359     0.0011359
         0.66    0.00113933    0.00113933
        0.665    0.00114251    0.00114251
         0.67    0.00114621    0.00114621
        0.675    0.00114977    0.00114977
         0.68    0.00115318    0.00115319
        0.685    0.00115658    0.00115658
         0.69    0.00115992    0.00115992
        0.695    0.00116363    0.00116363
          0.7    0.00116746    0.00116747
        0.705    0.00117088    0.00117088
         0.71    0.00117437    0.00117437
        0.715    0.00117811    0.00117811
         0.72    0.00118155    0.00118155
        0.725    0.00118507    0.00118508
         0.73    0.00118873    0.00118873
        0.735    0.00119201    0.00119201
         0.74    0.00119521    0.00119521
        0.745    0.00119869    0.00119869
         0.75    0.00120296    0.00120297
        0.755    0.00120715    0.00120715
         0.76    0.00121106    0.00121106
        0.765    0.00121519    0.00121519
         0.77    0.00121885    0.00121885
        0.775    0.00122251    0.00122251
         0.78    0.00122625    0.00122625
        0.785    0.00123011    0.00123011
         0.79    0.00123373    0.00123373
        0.795    0.00123754    0.00123754
          0.8     0.0012413     0.0012413
        0.805    0.00124513    0.00124514
         0.81    0.00124907    0.00124907
        0.815    0.00125314    0.00125314
         0.82    0.00125704    0.00125704
        0.825    0.00126121    0.00126121
         0.83     0.0012652     0.0012652
        0.835    0.00126908    0.00126908
         0.84    0.00127299    0.00127299
        0.845    0.00127707    0.00127707
         0.85    0.00128111    0.00128111
        0.855    0.00128506    0.00128507
         0.86    0.00128895    0.00128896
        0.865    0.00129227    0.00129227
         0.87    0.00129481    0.00129481
        0.875    0.00129946    0.00129947
         0.88    0.00130785    0.00130786
        0.885     0.0013137     0.0013137
         0.89    0.00131798    0.00131798
        0.895    0.00132228    0.00132228
          0.9    0.00132606    0.00132607
        0.905    0.00133049     0.0013305
         0.91    0.00133511    0.00133511
        0.915    0.00133999    0.00133999
         0.92     0.0013441    0.00134411
        0.925    0.00134858    0.00134859
         0.93    0.00135295    0.00135296
        0.935    0.00135737    0.00135738
         0.94     0.0013627    0.00136271
        0.945     0.0013678    0.00136781
         0.95    0.00137275    0.00137275
        0.955    0.00137749    0.00137749
         0.96    0.00138239     0.0013824
        0.965    0.00138704    0.00138705
         0.97    0.00139187    0.00139187
        0.975    0.00139723    0.00139724
         0.98    0.00140313    0.00140314
        0.985    0.00140776    0.00140776
         0.99     0.0014126     0.0014126
        0.995    0.00141768    0.00141769
            1    0.00142328    0.00142328
        1.005    0.00142863    0.00142863
         1.01    0.00143382    0.00143383
        1.015    0.00143897    0.00143898
         1.02     0.0014443     0.0014443
        1.025     0.0014499    0.00144991
         1.03    0.00145524    0.00145525
        1.035    0.00146082    0.00146082
         1.04    0.00146662    0.00146662
        1.045    0.00147217    0.00147218
         1.05    0.00147779    0.00147779
        1.055    0.00148332    0.00148332
         1.06     0.0014889    0.00148891
        1.065    0.00149455    0.00149455
         1.07    0.00150044    0.00150044
        1.075    0.00150553    0.00150554
         1.08    0.00151113    0.00151113
        1.085    0.00151672    0.00151672
         1.09    0.00152179    0.00152179
        1.095    0.00152533    0.00152533
          1.1    0.00153164    0.00153165
        1.105    0.00154218     0.0015422
         1.11     0.0015516     0.0015516
        1.115     0.0015582     0.0015582
         1.12    0.00156448    0.00156448
        1.125    0.00156994    0.00156994
         1.13    0.00157642    0.00157642
        1.135     0.0015824     0.0015824
         1.14    0.00158859     0.0015886
        1.145      0.001595      0.001595
         1.15    0.00160149     0.0016015
        1.155    0.00160842    0.00160842
         1.16    0.00161522    0.00161523
        1.165    0.00162185    0.00162185
         1.17    0.00162878    0.00162879
        1.175    0.00163522    0.00163522
         1.18    0.00164201    0.00164202
        1.185    0.00164876    0.00164876
         1.19    0.00165568    0.00165569
        1.195    0.00166258    0.00166258
          1.2    0.00166954    0.00166955
        1.205    0.00167635    0.00167635
         1.21    0.00168335    0.00168336
        1.215    0.00169047    0.00169047
         1.22    0.00169784    0.00169784
        1.225    0.00170459    0.00170459
         1.23    0.00171183    0.00171183
        1.235     0.0017188     0.0017188
         1.24    0.00172586    0.00172586
        1.245    0.00173316    0.00173317
         1.25    0.00174106    0.00174106
        1.255     0.0017483     0.0017483
         1.26    0.00175598    0.00175599
        1.265    0.00176337    0.00176338
         1.27    0.00177057    0.00177057
        1.275    0.00177771    0.00177771
         1.28    0.00178475    0.00178476
        1.285    0.00179112    0.00179112
         1.29    0.00179653    0.00179653
        1.295    0.00180218    0.00180219
          1.3    0.00181344    0.00181345
        1.305    0.00182782    0.00182783
         1.31     0.0018362     0.0018362
        1.315    0.00184461    0.00184462
         1.32    0.00185179     0.0018518
        1.325    0.00185988    0.00185988
         1.33    0.00186821    0.00186822
        1.335    0.00187654    0.00187654
         1.34    0.00188449    0.00188449
        1.345    0.00189338    0.00189338
         1.35      0.001902      0.001902
        1.355    0.00191088    0.00191088
         1.36    0.00192002    0.00192002
        1.365    0.00192837    0.00192837
         1.37    0.00193672    0.00193673
        1.375    0.00194513    0.00194513
         1.38    0.00195384    0.00195385
        1.385    0.00196267    0.00196267
         1.39    0.00197145    0.00197145
        1.395    0.00198016    0.00198016
          1.4    0.00198984    0.00198985
        1.405    0.00199891    0.00199892
         1.41    0.00200805    0.00200806
        1.415    0.00201738    0.00201739
         1.42    0.00202695    0.00202696
        1.425    0.00203642    0.00203642
         1.43    0.00204541    0.00204541
        1.435    0.00205461    0.00205461
         1.44    0.00206416    0.00206416
        1.445    0.00207394    0.00207395
         1.45    0.00208399      0.002084
        1.455    0.00209399      0.002094
         1.46    0.00210467    0.00210467
        1.465    0.00211664    0.00211666
         1.47     0.0021274    0.00212739
        1.475     0.0021342     0.0021342
         1.48    0.00213831    0.00213831
        1.485    0.00214818    0.00214818
         1.49    0.00215764    0.00215764
        1.495    0.00216715    0.00216715
          1.5    0.00217681    0.00217682
        1.505    0.00218651    0.00218651
         1.51    0.00219642    0.00219642
        1.515    0.00220686    0.00220686
         1.52    0.00221642    0.00221642
        1.525     0.0022262    0.00222621
         1.53    0.00223653    0.00223653
        1.535    0.00224691    0.00224691
         1.54     0.0022576    0.00225761
        1.545    0.00226876    0.00226877
         1.55    0.00228146    0.00228146
        1.555    0.00229367    0.00229367
         1.56    0.00230298    0.00230298
        1.565     0.0023074     0.0023074
         1.57    0.00231664    0.00231665
        1.575    0.00232817    0.00232818
         1.58    0.00233981    0.00233981
        1.585    0.00234527    0.00234528
         1.59    0.00235597    0.00235597
        1.595    0.00236714    0.00236715
          1.6    0.00237902    0.00237902
        1.605    0.00239275    0.00239275
         1.61    0.00239865    0.00239866
        1.615    0.00240809     0.0024081
         1.62    0.00242021    0.00242022
        1.625    0.00243356    0.00243355
         1.63    0.00244112    0.00244112
        1.635    0.00244858    0.00244857
         1.64    0.00246012    0.00246012
        1.645    0.00247229     0.0024723
         1.65    0.00247837    0.00247837
        1.655     0.0024878    0.00248781
         1.66    0.00249894    0.00249895
        1.665    0.00251028    0.00251029
         1.67    0.00252167    0.00252168
        1.675    0.00253309    0.00253309
         1.68    0.00254445    0.00254446
        1.685    0.00255648    0.00255649
         1.69    0.00256825    0.00256825
        1.695    0.00258328    0.00258328
          1.7    0.00259024    0.00259025
        1.705    0.00259771    0.00259772
         1.71    0.00260898      0.002609
        1.715     0.0026203     0.0026203
         1.72    0.00263164    0.00263164
        1.725    0.00264299    0.00264299
         1.73    0.00265472    0.00265473
        1.735    0.00266647    0.00266648
         1.74    0.00267833    0.00267834
        1.745    0.00269028    0.00269029
         1.75    0.00270233    0.00270234
        1.755     0.0027149    0.00271491
         1.76    0.00272813    0.00272814
        1.765    0.00274322    0.00274325
         1.77    0.00274945    0.00274943
        1.775    0.00275581    0.00275581
         1.78     0.0027626    0.00276259
        1.785    0.00277488    0.00277488
         1.79    0.00278718    0.00278718
        1.795    0.00279936    0.00279936
          1.8    0.00281147    0.00281148
        1.805    0.00282328    0.00282328
         1.81    0.00283467    0.00283467
        1.815    0.00284364    0.00284365
         1.82     0.0028596     0.0028596
        1.825    0.00286951    0.00286952
         1.83    0.00288555    0.00288555
        1.835     0.0028976     0.0028976
         1.84    0.00290953    0.00290954
        1.845     0.0029223    0.00292231
         1.85    0.00293546    0.00293547
        1.855    0.00294826    0.00294826
         1.86    0.00295986    0.00295986
        1.865    0.00296887    0.00296888
         1.87    0.00297997    0.00297997
        1.875    0.00299151    0.00299152
         1.88    0.00300445    0.00300446
        1.885    0.00301668    0.00301668
         1.89    0.00302946    0.00302947
        1.895    0.00304329    0.00304328
          1.9    0.00305267    0.00305267
        1.905    0.00306228    0.00306226
         1.91    0.00307339     0.0030734
        1.915    0.00308613    0.00308615
         1.92    0.00309826    0.00309827
        1.925    0.00311096    0.00311097
         1.93    0.00312366    0.00312367
        1.935    0.00313637    0.00313637
         1.94    0.00314905    0.00314904
        1.945    0.00316177    0.00316178
         1.95    0.00317456    0.00317457
        1.955     0.0031875    0.00318751
         1.96    0.00320038    0.00320038
        1.965    0.00321404    0.00321404
         1.97    0.00322766    0.00322766
        1.975     0.0032371    0.00323711
         1.98    0.00325029    0.00325029
        1.985    0.00326389    0.00326389
         1.99    0.00327684    0.00327684
        1.995    0.00328773    0.00328774
            2    0.00330044    0.00330045
        2.005    0.00331057    0.00331059
         2.01    0.00332529    0.00332531
        2.015    0.00333712     0.0033371
         2.02    0.00334889    0.00334889
        2.025    0.00335874    0.00335873
         2.03    0.00337206    0.00337206
        2.035    0.00338599    0.00338599
         2.04    0.00340206    0.00340207
        2.045    0.00341088    0.00341089
         2.05    0.00342294    0.00342295
        2.055    0.00343614    0.00343615
         2.06    0.00344949     0.0034495
        2.065    0.00346266    0.00346267
         2.07    0.00347608    0.00347608
        2.075    0.00348954    0.00348955
         2.08    0.00350325    0.00350327
        2.085    0.00351673    0.00351672
         2.09    0.00353059    0.00353059
        2.095    0.00354754    0.00354754
          2.1    0.00355626    0.00355627
        2.105     0.0035735    0.00357351
         2.11    0.00358173    0.00358175
        2.115    0.00359654    0.00359656
         2.12    0.00361019    0.00361017
        2.125     0.0036238     0.0036238
         2.13    0.00363584    0.00363583
        2.135    0.00364558    0.00364559
         2.14    0.00365891    0.00365891
        2.145    0.00366845    0.00366845
         2.15    0.00368248    0.00368248
        2.155    0.00369707    0.00369708
         2.16     0.0037135    0.00371351
        2.165    0.00372455    0.00372457
         2.17    0.00373592    0.00373593
        2.175       0.00375    0.00375002
         2.18    0.00376421    0.00376422
        2.185    0.00377849    0.00377849
         2.19    0.00379051    0.00379049
        2.195    0.00380398      0.003804
          2.2    0.00381818    0.00381819
        2.205    0.00383059    0.00383061
         2.21    0.00384709    0.00384711
        2.215    0.00385451    0.00385451
         2.22    0.00386703    0.00386703
        2.225    0.00387936    0.00387933
         2.23    0.00389329     0.0038933
        2.235    0.00390739     0.0039074
         2.24     0.0039214    0.00392141
        2.245    0.00393554    0.00393555
         2.25    0.00394978    0.00394979
        2.255    0.00396418     0.0039642
         2.26    0.00397871     0.0039787
        2.265    0.00399398    0.00399396
         2.27    0.00401072    0.00401074
        2.275    0.00401937    0.00401939
         2.28    0.00402637    0.00402639
        2.285     0.0040413     0.0040413
         2.29    0.00405591    0.00405592
        2.295    0.00407066    0.00407067
          2.3    0.00408562    0.00408562
        2.305    0.00409805    0.00409806
         2.31    0.00411115    0.00411111
        2.315    0.00412412    0.00412413
         2.32    0.00413881    0.00413882
        2.325    0.00415323    0.00415325
         2.33    0.00416742    0.00416742
        2.335    0.00418153    0.00418151
         2.34    0.00419595    0.00419596
        2.345    0.00421063    0.00421064
         2.35    0.00422629    0.00422628
        2.355    0.00423991     0.0042399
         2.36    0.00424869    0.00424871
        2.365    0.00426238    0.00426239
         2.37     0.0042768    0.00427682
        2.375    0.00429169    0.00429171
         2.38    0.00430563    0.00430562
        2.385    0.00431877    0.00431877
         2.39    0.00433129    0.00433128
        2.395     0.0043449    0.00434491
          2.4    0.00435695    0.00435697
        2.405    0.00437466    0.00437467
         2.41    0.00438835    0.00438836
        2.415     0.0044035    0.00440351
         2.42    0.00441808    0.00441809
        2.425    0.00443251    0.00443252
         2.43    0.00444697    0.00444698
        2.435    0.00446154    0.00446155
         2.44    0.00447645    0.00447647
        2.445     0.0044919    0.00449192
         2.45    0.00450674    0.00450672
        2.455    0.00452162    0.00452161
         2.46    0.00453459    0.00453457
        2.465     0.0045434    0.00454342
         2.47    0.00455223    0.00455224
        2.475      0.004568      0.004568
         2.48    0.00458267    0.00458268
        2.485    0.00459741    0.00459742
         2.49    0.00461236    0.00461237
        2.495    0.00462723    0.00462723
          2.5    0.00464222    0.00464223
        2.505      0.004657    0.00465702
         2.51    0.00467205    0.00467204
        2.515    0.00468567    0.00468567
         2.52    0.00469982    0.00469979
        2.525    0.00471401    0.00471403
         2.53    0.00473149     0.0047315
        2.535    0.00474165    0.00474167
         2.54    0.00475651    0.00475651
        2.545    0.00477124    0.00477125
         2.55    0.00478616    0.00478617
        2.555    0.00480124    0.00480125
         2.56    0.00481651    0.00481652
        2.565    0.00483137    0.00483136
         2.57    0.00484449     0.0048445
        2.575    0.00485859    0.00485854
         2.58    0.00487277    0.00487279
        2.585    0.00488808     0.0048881
         2.59    0.00490213    0.00490215
        2.595    0.00491883    0.00491884
          2.6    0.00493586    0.00493587
        2.605    0.00494254    0.00494256
         2.61    0.00495419    0.00495421
        2.615    0.00496964    0.00496962
         2.62    0.00498434    0.00498434
        2.625    0.00499887    0.00499886
         2.63    0.00501376    0.00501377
        2.635    0.00502887    0.00502889
         2.64    0.00504396    0.00504397
        2.645    0.00505902    0.00505904
         2.65    0.00507426    0.00507427
        2.655    0.00508974    0.00508974
         2.66    0.00510454    0.00510454
        2.665    0.00511914    0.00511909
         2.67    0.00513354    0.00513356
        2.675    0.00514861    0.00514861
         2.68    0.00516418     0.0051642
        2.685    0.00518024    0.00518027
         2.69    0.00519752    0.00519755
        2.695    0.00520591     0.0052059
          2.7    0.00522008    0.00522007
        2.705    0.00523459    0.00523458
         2.71     0.0052496    0.00524961
        2.715    0.00526498      0.005265
         2.72    0.00527967     0.0052797
        2.725    0.00529477    0.00529475
         2.73    0.00530988    0.00530988
        2.735    0.00532568    0.00532568
         2.74    0.00533971    0.00533973
        2.745     0.0053552     0.0053552
         2.75     0.0053707    0.00537071
        2.755    0.00538414     0.0053841
         2.76    0.00539909    0.00539912
        2.765    0.00541447    0.00541445
         2.77    0.00543013    0.00543015
        2.775    0.00544609    0.00544609
         2.78    0.00546322    0.00546322
        2.785    0.00547499    0.00547502
         2.79    0.00549034    0.00549031
        2.795    0.00550584    0.00550583
          2.8    0.00552071    0.00552071
        2.805    0.00553398    0.00553398
         2.81    0.00554502    0.00554504
        2.815    0.00556084    0.00556083
         2.82    0.00557764    0.00557765
        2.825    0.00559288    0.00559289
         2.83    0.00560447    0.00560448
        2.835    0.00562125    0.00562124
         2.84    0.00563793    0.00563793
        2.845    0.00565319    0.00565317
         2.85    0.00566847    0.00566848
        2.855    0.00568372    0.00568373
         2.86    0.00569864    0.00569865
        2.865    0.00571397    0.00571398
         2.87    0.00573065    0.00573066
        2.875    0.00574797    0.00574798
         2.88    0.00576432    0.00576433
        2.885    0.00578161    0.00578162
         2.89    0.00579088     0.0057909
        2.895    0.00580634    0.00580634
          2.9    0.00582157    0.00582159
        2.905    0.00583662    0.00583663
         2.91    0.00585336    0.00585334
        2.915    0.00586975    0.00586974
         2.92    0.00588586    0.00588586
        2.925    0.00590137    0.00590137
         2.93    0.00591712    0.00591713
        2.935    0.00593297    0.00593297
         2.94    0.00594887    0.00594887
        2.945    0.00596497    0.00596498
         2.95    0.00598192    0.00598193
        2.955    0.00599489    0.00599489
         2.96    0.00600966    0.00600966
        2.965    0.00602518    0.00602519
         2.97    0.00603686    0.00603686
        2.975     0.0060531    0.00605309
         2.98    0.00606888    0.00606885
        2.985    0.00608465    0.00608467
         2.99    0.00610061    0.00610061
        2.995    0.00611662    0.00611663
            3    0.00613235    0.00613236
        3.005    0.00614807    0.00614807
         3.01    0.00616366    0.00616367
        3.015    0.00617911    0.00617912
         3.02    0.00619483    0.00619483
        3.025    0.00621194    0.00621195
         3.03    0.00622798    0.00622796
        3.035    0.00624498    0.00624498
         3.04    0.00626075    0.00626074
        3.045    0.00627684    0.00627685
         3.05    0.00629307    0.00629307
        3.055    0.00630986    0.00630987
         3.06    0.00632804    0.00632805
        3.065    0.00634073    0.00634074
         3.07    0.00635196    0.00635197
        3.075    0.00636823    0.00636826
         3.08     0.0063843    0.00638428
        3.085    0.00640024    0.00640024
         3.09    0.00641583    0.00641582
        3.095    0.00643339    0.00643339
          3.1    0.00644926    0.00644927
        3.105    0.00646622    0.00646622
         3.11    0.00648279     0.0064828
        3.115    0.00649714    0.00649715
         3.12    0.00651247    0.00651246
        3.125    0.00652903    0.00652903
         3.13    0.00654533    0.00654533
        3.135    0.00656171    0.00656172
         3.14    0.00657818    0.00657819
        3.145    0.00659488    0.00659488
         3.15    0.00661201    0.00661202
        3.155    0.00662606    0.00662604
         3.16    0.00664141     0.0066414
        3.165    0.00665427    0.00665425
         3.17     0.0066717    0.00667172
        3.175    0.00668979     0.0066898
         3.18    0.00670746    0.00670748
        3.185    0.00672576    0.00672575
         3.19     0.0067387    0.00673871
        3.195    0.00675108    0.00675106
          3.2    0.00676928     0.0067693
        3.205    0.00678413    0.00678415
         3.21    0.00680075    0.00680074
        3.215    0.00681725    0.00681726
         3.22    0.00683373    0.00683372
        3.225    0.00685019    0.00685022
         3.23    0.00686668    0.00686667
        3.235    0.00688302    0.00688303
         3.24    0.00689942    0.00689942
        3.245    0.00691573    0.00691572
         3.25    0.00693228    0.00693224
        3.255    0.00694983    0.00694985
         3.26    0.00696671    0.00696671
        3.265    0.00698386    0.00698387
         3.27    0.00700397    0.00700397
        3.275    0.00701571    0.00701572
         3.28    0.00703212    0.00703213
        3.285    0.00704877    0.00704878
         3.29    0.00706539    0.00706539
        3.295    0.00708203    0.00708203
          3.3     0.0070987     0.0070987
        3.305     0.0071154     0.0071154
         3.31    0.00713215    0.00713215
        3.315    0.00714891    0.00714892
         3.32    0.00716581     0.0071658
        3.325    0.00718312    0.00718311
         3.33    0.00719966    0.00719966
        3.335    0.00721772    0.00721772
         3.34     0.0072352    0.00723521
        3.345    0.00724983    0.00724983
         3.35    0.00726357    0.00726357
        3.355    0.00728158    0.00728159
         3.36    0.00729732    0.00729732
        3.365    0.00731077    0.00731078
         3.37    0.00732755    0.00732756
        3.375    0.00734397    0.00734398
         3.38    0.00736204    0.00736204
        3.385    0.00737906    0.00737907
         3.39    0.00739583    0.00739584
        3.395    0.00741261     0.0074126
          3.4    0.00742894    0.00742895
        3.405    0.00744549    0.00744549
         3.41    0.00746322    0.00746322
        3.415    0.00748145    0.00748145
         3.42    0.00749858    0.00749859
        3.425    0.00751559    0.00751559
         3.43     0.0075326     0.0075326
        3.435    0.00755097    0.00755097
         3.44    0.00756719     0.0075672
        3.445    0.00758521    0.00758521
         3.45    0.00760375    0.00760375
        3.455    0.00762067    0.00762067
         3.46    0.00763724    0.00763724
        3.465    0.00765611    0.00765611
         3.47    0.00766549    0.00766548
        3.475    0.00768156    0.00768157
         3.48    0.00769914    0.00769914
        3.485    0.00771643    0.00771643
         3.49    0.00773335    0.00773335
        3.495    0.00775142    0.00775143
          3.5    0.00776904    0.00776905
        3.505    0.00778776    0.00778776
         3.51    0.00780522    0.00780523
        3.515    0.00782273    0.00782272
         3.52    0.00784082    0.00784081
        3.525     0.0078579     0.0078579
         3.53    0.00787511    0.00787511
        3.535    0.00789228    0.00789229
         3.54    0.00790972    0.00790973
        3.545    0.00792739     0.0079274
         3.55    0.00794481    0.00794481
        3.555     0.0079604     0.0079604