# Probe 0 (5.5 0.5 0)
# Probe 1 (5.5 -0.5 0)
#       Probe             0             1
#        Time
        0.005             (0.996795 -0.00215067 -4.39032e-19)             (0.996795 0.00215067 2.19418e-19)
         0.01             (0.997055 -0.00107068 3.84097e-20)             (0.997055 0.00107068 -2.02089e-20)
        0.015             (0.996949 -0.00113414 -1.30251e-20)             (0.996949 0.00113414 6.49825e-21)
         0.02             (0.996875 -0.00116516 -9.03195e-21)             (0.996875 0.00116516 4.48754e-21)
        0.025             (0.996813 -0.00118641 -7.29724e-21)             (0.996813 0.00118642 3.6191e-21)
         0.03             (0.99676 -0.00120211 -6.00596e-21)             (0.99676 0.00120211 2.97608e-21)
        0.035             (0.996714 -0.00121413 -4.99381e-21)             (0.996714 0.00121413 2.47298e-21)
         0.04             (0.996674 -0.00122353 -4.18555e-21)             (0.996674 0.00122353 2.07109e-21)
        0.045             (0.996638 -0.00123091 -3.53375e-21)             (0.996638 0.00123091 1.7463e-21)
         0.05             (0.996606 -0.00123694 -2.99579e-21)             (0.996606 0.00123695 1.47895e-21)
        0.055             (0.996577 -0.00124202 -2.55453e-21)             (0.996577 0.00124202 1.25974e-21)
         0.06             (0.99655 -0.00124657 -2.18148e-21)             (0.99655 0.00124657 1.07531e-21)
        0.065             (0.996525 -0.00125078 -1.86788e-21)             (0.996525 0.00125078 9.20554e-22)
         0.07             (0.996503 -0.00125469 -1.60102e-21)             (0.996503 0.00125469 7.88555e-22)
        0.075             (0.996482 -0.0012584 -1.37382e-21)             (0.996482 0.0012584 6.76201e-22)
         0.08             (0.996462 -0.00126196 -1.17974e-21)             (0.996462 0.00126196 5.80267e-22)
        0.085             (0.996443 -0.00126544 -1.01298e-21)             (0.996443 0.00126544 4.97876e-22)
         0.09             (0.996425 -0.00126886 -8.69105e-22)             (0.996425 0.00126886 4.26819e-22)
        0.095             (0.996408 -0.00127224 -7.44318e-22)             (0.996408 0.00127224 3.65205e-22)
          0.1             (0.996392 -0.00127561 -6.35495e-22)             (0.996392 0.00127561 3.11481e-22)
        0.105             (0.996377 -0.00127896 -5.40259e-22)             (0.996377 0.00127897 2.64471e-22)
         0.11             (0.996361 -0.00128233 -4.56989e-22)             (0.996361 0.00128233 2.23392e-22)
        0.115             (0.996347 -0.0012857 -3.83585e-22)             (0.996347 0.0012857 1.87183e-22)
         0.12             (0.996333 -0.00128909 -3.18503e-22)             (0.996333 0.00128909 1.55069e-22)
        0.125             (0.996319 -0.00129249 -2.61175e-22)             (0.996319 0.00129249 1.26807e-22)
         0.13             (0.996305 -0.00129592 -2.09916e-22)             (0.996305 0.00129592 1.01527e-22)
        0.135             (0.996292 -0.00129936 -1.64122e-22)             (0.996292 0.00129936 7.89415e-23)
         0.14             (0.996279 -0.00130282 -1.23028e-22)             (0.996279 0.00130282 5.8673e-23)
        0.145             (0.996266 -0.00130629 -8.61971e-23)             (0.996266 0.00130629 4.05085e-23)
         0.15             (0.996254 -0.00130979 -5.29718e-23)             (0.996254 0.00130979 2.41223e-23)
        0.155             (0.996241 -0.0013133 -2.28788e-23)             (0.996241 0.0013133 9.28008e-24)
         0.16             (0.996229 -0.00131683 4.42752e-24)             (0.996229 0.00131683 -4.18857e-24)
        0.165             (0.996217 -0.00132037 2.93275e-23)             (0.996217 0.00132037 -1.64709e-23)
         0.17             (0.996205 -0.00132393 5.19725e-23)             (0.996205 0.00132393 -2.76405e-23)
        0.175             (0.996193 -0.00132751 7.28294e-23)             (0.996193 0.00132751 -3.79309e-23)
         0.18             (0.996181 -0.0013311 9.19548e-23)             (0.996181 0.0013311 -4.73666e-23)
        0.185             (0.99617 -0.00133471 1.09614e-22)             (0.99617 0.00133471 -5.60789e-23)
         0.19             (0.996158 -0.00133833 1.25931e-22)             (0.996158 0.00133833 -6.41269e-23)
        0.195             (0.996147 -0.00134196 1.40987e-22)             (0.996147 0.00134196 -7.15471e-23)
          0.2             (0.996135 -0.00134561 1.5527e-22)             (0.996135 0.00134561 -7.86159e-23)
        0.205             (0.996124 -0.00134926 1.6845e-22)             (0.996124 0.00134926 -8.51229e-23)
         0.21             (0.996112 -0.00135292 1.808e-22)             (0.996112 0.00135292 -9.12196e-23)
        0.215             (0.996101 -0.0013566 1.92391e-22)             (0.996101 0.0013566 -9.69426e-23)
         0.22             (0.99609 -0.00136029 2.03299e-22)             (0.99609 0.00136029 -1.02329e-22)
        0.225             (0.996079 -0.00136398 2.13591e-22)             (0.996079 0.00136398 -1.07412e-22)
         0.23             (0.996067 -0.00136769 2.23323e-22)             (0.996067 0.00136769 -1.12218e-22)
        0.235             (0.996056 -0.00137141 2.3253e-22)             (0.996056 0.00137141 -1.16765e-22)
         0.24             (0.996045 -0.00137514 2.41237e-22)             (0.996045 0.00137514 -1.21062e-22)
        0.245             (0.996034 -0.00137887 2.49628e-22)             (0.996034 0.00137887 -1.25205e-22)
         0.25             (0.996023 -0.00138261 2.57578e-22)             (0.996023 0.00138261 -1.29118e-22)
        0.255             (0.996012 -0.00138637 2.64995e-22)             (0.996012 0.00138637 -1.32755e-22)
         0.26             (0.996001 -0.00139013 2.72493e-22)             (0.996001 0.00139014 -1.36469e-22)
        0.265             (0.99599 -0.00139391 2.79494e-22)             (0.99599 0.00139391 -1.39897e-22)
         0.27             (0.995978 -0.00139765 2.86852e-22)             (0.995978 0.00139765 -1.43706e-22)
        0.275             (0.995967 -0.00140139 2.93473e-22)             (0.995967 0.00140139 -1.47042e-22)
         0.28             (0.995956 -0.00140514 2.99666e-22)             (0.995956 0.00140514 -1.50125e-22)
        0.285             (0.995945 -0.00140888 3.055e-22)             (0.995945 0.00140889 -1.53045e-22)
         0.29             (0.995934 -0.00141262 3.109e-22)             (0.995934 0.00141262 -1.55812e-22)
        0.295             (0.995923 -0.00141636 3.16382e-22)             (0.995923 0.00141636 -1.58548e-22)
          0.3             (0.995912 -0.00142017 3.22723e-22)             (0.995912 0.00142017 -1.61422e-22)
        0.305             (0.995901 -0.00142399 3.28103e-22)             (0.995901 0.00142399 -1.64045e-22)
         0.31             (0.995891 -0.00142781 3.33145e-22)             (0.995891 0.00142781 -1.66546e-22)
        0.315             (0.99588 -0.00143164 3.38001e-22)             (0.99588 0.00143164 -1.68962e-22)
         0.32             (0.995869 -0.00143547 3.42728e-22)             (0.995869 0.00143547 -1.71312e-22)
        0.325             (0.995858 -0.00143931 3.47197e-22)             (0.995858 0.00143931 -1.7353e-22)
         0.33             (0.995847 -0.00144315 3.516e-22)             (0.995847 0.00144315 -1.75722e-22)
        0.335             (0.995836 -0.001447 3.55877e-22)             (0.995836 0.001447 -1.77845e-22)
         0.34             (0.995824 -0.00145086 3.59997e-22)             (0.995824 0.00145086 -1.79891e-22)
        0.345             (0.995813 -0.00145472 3.64035e-22)             (0.995813 0.00145472 -1.81898e-22)
         0.35             (0.995802 -0.00145858 3.6803e-22)             (0.995802 0.00145858 -1.83886e-22)
        0.355             (0.995791 -0.00146245 3.7189e-22)             (0.995791 0.00146246 -1.85803e-22)
         0.36             (0.99578 -0.00146634 3.75571e-22)             (0.99578 0.00146634 -1.87629e-22)
        0.365             (0.995769 -0.00147022 3.79331e-22)             (0.995769 0.00147022 -1.895e-22)
         0.37             (0.995758 -0.00147411 3.82859e-22)             (0.995758 0.00147411 -1.91256e-22)
        0.375             (0.995747 -0.00147801 3.86311e-22)             (0.995747 0.00147801 -1.9297e-22)
         0.38             (0.995736 -0.00148191 3.89666e-22)             (0.995736 0.00148191 -1.94636e-22)
        0.385             (0.995725 -0.00148583 3.92913e-22)             (0.995725 0.00148583 -1.96247e-22)
         0.39             (0.995714 -0.00148975 3.96061e-22)             (0.995714 0.00148975 -1.97808e-22)
        0.395             (0.995703 -0.00149368 3.99134e-22)             (0.995703 0.00149369 -1.9933e-22)
          0.4             (0.995692 -0.00149763 4.021e-22)             (0.995692 0.00149763 -2.00796e-22)
        0.405             (0.99568 -0.00150158 4.05167e-22)             (0.99568 0.00150158 -2.02336e-22)
         0.41             (0.995669 -0.00150552 4.08237e-22)             (0.995669 0.00150553 -2.0388e-22)
        0.415             (0.995658 -0.00150948 4.11008e-22)             (0.995658 0.00150949 -2.0525e-22)
         0.42             (0.995647 -0.00151345 4.1377e-22)             (0.995647 0.00151345 -2.06618e-22)
        0.425             (0.995636 -0.00151742 4.16585e-22)             (0.995636 0.00151743 -2.08023e-22)
         0.43             (0.995624 -0.0015214 4.1925e-22)             (0.995624 0.0015214 -2.09349e-22)
        0.435             (0.995613 -0.00152539 4.22177e-22)             (0.995613 0.00152539 -2.10801e-22)
         0.44             (0.995602 -0.00152939 4.24417e-22)             (0.995602 0.00152939 -2.11917e-22)
        0.445             (0.99559 -0.00153339 4.26999e-22)             (0.99559 0.00153339 -2.13196e-22)
         0.45             (0.995579 -0.00153741 4.29429e-22)             (0.995579 0.00153741 -2.14401e-22)
        0.455             (0.995568 -0.00154144 4.31799e-22)             (0.995568 0.00154144 -2.15575e-22)
         0.46             (0.995556 -0.00154548 4.34166e-22)             (0.995556 0.00154548 -2.16751e-22)
        0.465             (0.995545 -0.00154952 4.36489e-22)             (0.995545 0.00154953 -2.17904e-22)
         0.47             (0.995534 -0.00155358 4.38705e-22)             (0.995534 0.00155359 -2.19003e-22)
        0.475             (0.995522 -0.00155765 4.40958e-22)             (0.995522 0.00155765 -2.20121e-22)
         0.48             (0.995511 -0.00156173 4.43202e-22)             (0.995511 0.00156173 -2.21236e-22)
        0.485             (0.995499 -0.00156581 4.45348e-22)             (0.995499 0.00156581 -2.22302e-22)
         0.49             (0.995488 -0.00156991 4.47412e-22)             (0.995488 0.00156991 -2.23323e-22)
        0.495             (0.995476 -0.00157402 4.49461e-22)             (0.995476 0.00157402 -2.24335e-22)
          0.5             (0.995465 -0.00157813 4.51526e-22)             (0.995465 0.00157814 -2.25355e-22)
        0.505             (0.995453 -0.00158226 4.53529e-22)             (0.995453 0.00158227 -2.26339e-22)
         0.51             (0.995442 -0.0015864 4.55444e-22)             (0.995442 0.00158641 -2.27268e-22)
        0.515             (0.99543 -0.00159057 4.57239e-22)             (0.99543 0.00159057 -2.28114e-22)
         0.52             (0.995418 -0.00159475 4.58856e-22)             (0.995418 0.00159475 -2.28822e-22)
        0.525             (0.995407 -0.00159892 4.61225e-22)             (0.995407 0.00159892 -2.30147e-22)
         0.53             (0.995395 -0.00160306 4.63744e-22)             (0.995395 0.00160306 -2.31588e-22)
        0.535             (0.995383 -0.00160722 4.65588e-22)             (0.995383 0.00160722 -2.325e-22)
         0.54             (0.995372 -0.0016114 4.67368e-22)             (0.995372 0.0016114 -2.33368e-22)
        0.545             (0.99536 -0.00161559 4.69119e-22)             (0.99536 0.00161559 -2.34224e-22)
         0.55             (0.995348 -0.0016198 4.70814e-22)             (0.995348 0.0016198 -2.35055e-22)
        0.555             (0.995336 -0.00162403 4.72513e-22)             (0.995336 0.00162403 -2.3589e-22)
         0.56             (0.995324 -0.00162827 4.74176e-22)             (0.995324 0.00162827 -2.36708e-22)
        0.565             (0.995313 -0.00163252 4.75935e-22)             (0.995313 0.00163252 -2.37583e-22)
         0.57             (0.995301 -0.00163678 4.77725e-22)             (0.995301 0.00163678 -2.38477e-22)
        0.575             (0.995289 -0.00164105 4.79417e-22)             (0.995289 0.00164105 -2.39321e-22)
         0.58             (0.995277 -0.00164533 4.8111e-22)             (0.995277 0.00164534 -2.40168e-22)
        0.585             (0.995265 -0.00164963 4.82807e-22)             (0.995265 0.00164963 -2.41018e-22)
         0.59             (0.995253 -0.00165393 4.84307e-22)             (0.995253 0.00165393 -2.41775e-22)
        0.595             (0.995241 -0.00165823 4.85972e-22)             (0.995241 0.00165824 -2.42641e-22)
          0.6             (0.995229 -0.00166252 4.87585e-22)             (0.995229 0.00166253 -2.43512e-22)
        0.605             (0.995217 -0.0016668 4.88737e-22)             (0.995217 0.00166681 -2.44217e-22)
         0.61             (0.995205 -0.0016711 4.90409e-22)             (0.995205 0.00167111 -2.45001e-22)
        0.615             (0.995192 -0.00167548 4.93106e-22)             (0.995192 0.00167549 -2.46035e-22)
         0.62             (0.99518 -0.0016799 4.95297e-22)             (0.99518 0.0016799 -2.47e-22)
        0.625             (0.995168 -0.00168432 4.96924e-22)             (0.995168 0.00168432 -2.47819e-22)
         0.63             (0.995156 -0.00168875 4.98412e-22)             (0.995156 0.00168875 -2.48574e-22)
        0.635             (0.995144 -0.00169319 4.99899e-22)             (0.995144 0.00169319 -2.49323e-22)
         0.64             (0.995131 -0.00169764 5.01318e-22)             (0.995131 0.00169764 -2.5003e-22)
        0.645             (0.995119 -0.0017021 5.02636e-22)             (0.995119 0.00170211 -2.50659e-22)
         0.65             (0.995107 -0.00170657 5.04396e-22)             (0.995107 0.00170658 -2.51577e-22)
        0.655             (0.995094 -0.00171105 5.06251e-22)             (0.995094 0.00171105 -2.52569e-22)
         0.66             (0.995082 -0.00171554 5.07792e-22)             (0.995082 0.00171554 -2.53351e-22)
        0.665             (0.99507 -0.00172004 5.09213e-22)             (0.99507 0.00172004 -2.54062e-22)
         0.67             (0.995057 -0.00172455 5.10858e-22)             (0.995057 0.00172455 -2.54888e-22)
        0.675             (0.995045 -0.00172906 5.12435e-22)             (0.995045 0.00172907 -2.5568e-22)
         0.68             (0.995032 -0.00173359 5.13956e-22)             (0.995032 0.0017336 -2.56439e-22)
        0.685             (0.99502 -0.00173813 5.15465e-22)             (0.99502 0.00173814 -2.5719e-22)
         0.69             (0.995007 -0.00174269 5.16953e-22)             (0.995007 0.00174269 -2.57929e-22)
        0.695             (0.994994 -0.00174726 5.18592e-22)             (0.994994 0.00174726 -2.58748e-22)
          0.7             (0.994982 -0.00175183 5.20284e-22)             (0.994982 0.00175183 -2.59595e-22)
        0.705             (0.994969 -0.00175641 5.21798e-22)             (0.994969 0.00175642 -2.60347e-22)
         0.71             (0.994956 -0.00176101 5.23339e-22)             (0.994956 0.00176102 -2.6111e-22)
        0.715             (0.994944 -0.00176562 5.24989e-22)             (0.994944 0.00176563 -2.61927e-22)
         0.72             (0.994931 -0.00177025 5.265e-22)             (0.994931 0.00177025 -2.62671e-22)
        0.725             (0.994918 -0.00177489 5.28039e-22)             (0.994918 0.00177489 -2.63424e-22)
         0.73             (0.994905 -0.00177954 5.29619e-22)             (0.994905 0.00177955 -2.64188e-22)
        0.735             (0.994892 -0.00178422 5.31001e-22)             (0.994892 0.00178422 -2.64833e-22)
         0.74             (0.994879 -0.00178893 5.32233e-22)             (0.994879 0.00178893 -2.65336e-22)
        0.745             (0.994866 -0.00179364 5.33802e-22)             (0.994866 0.00179364 -2.66141e-22)
         0.75             (0.994853 -0.00179832 5.36054e-22)             (0.994853 0.00179833 -2.67491e-22)
        0.755             (0.994841 -0.001803 5.38122e-22)             (0.994841 0.001803 -2.68645e-22)
         0.76             (0.994828 -0.00180769 5.39837e-22)             (0.994828 0.00180769 -2.69493e-22)
        0.765             (0.994815 -0.00181239 5.41645e-22)             (0.994815 0.00181239 -2.70389e-22)
         0.77             (0.994801 -0.0018171 5.43267e-22)             (0.994801 0.00181711 -2.71185e-22)
        0.775             (0.994788 -0.00182184 5.44889e-22)             (0.994788 0.00182184 -2.71983e-22)
         0.78             (0.994775 -0.00182659 5.4655e-22)             (0.994775 0.0018266 -2.72803e-22)
        0.785             (0.994762 -0.00183136 5.48267e-22)             (0.994762 0.00183137 -2.73654e-22)
         0.79             (0.994749 -0.00183615 5.49875e-22)             (0.994749 0.00183615 -2.74452e-22)
        0.795             (0.994736 -0.00184095 5.51572e-22)             (0.994736 0.00184095 -2.75296e-22)
          0.8             (0.994722 -0.00184576 5.53247e-22)             (0.994722 0.00184577 -2.76129e-22)
        0.805             (0.994709 -0.00185059 5.54957e-22)             (0.994709 0.0018506 -2.76981e-22)
         0.81             (0.994696 -0.00185543 5.56704e-22)             (0.994696 0.00185544 -2.77856e-22)
        0.815             (0.994683 -0.00186028 5.58508e-22)             (0.994683 0.00186028 -2.78762e-22)
         0.82             (0.994669 -0.00186514 5.60244e-22)             (0.994669 0.00186514 -2.79633e-22)
        0.825             (0.994656 -0.00187001 5.62101e-22)             (0.994656 0.00187001 -2.80567e-22)
         0.83             (0.994642 -0.00187489 5.6388e-22)             (0.994642 0.00187489 -2.81462e-22)
        0.835             (0.994629 -0.00187978 5.6561e-22)             (0.994629 0.00187979 -2.82333e-22)
         0.84             (0.994615 -0.00188469 5.67358e-22)             (0.994615 0.00188469 -2.83217e-22)
        0.845             (0.994602 -0.0018896 5.69183e-22)             (0.994602 0.0018896 -2.84143e-22)
         0.85             (0.994588 -0.00189452 5.70991e-22)             (0.994588 0.00189452 -2.85066e-22)
        0.855             (0.994575 -0.00189945 5.72772e-22)             (0.994575 0.00189945 -2.85986e-22)
         0.86             (0.994561 -0.00190437 5.7454e-22)             (0.994561 0.00190438 -2.86915e-22)
        0.865             (0.994547 -0.0019093 5.76088e-22)             (0.994547 0.0019093 -2.87774e-22)
         0.87             (0.994534 -0.00191418 5.7742e-22)             (0.994534 0.00191418 -2.88653e-22)
        0.875             (0.99452 -0.00191909 5.7939e-22)             (0.99452 0.00191909 -2.89596e-22)
         0.88             (0.994506 -0.0019241 5.82626e-22)             (0.994506 0.00192411 -2.90806e-22)
        0.885             (0.994493 -0.00192918 5.85009e-22)             (0.994493 0.00192919 -2.91793e-22)
         0.89             (0.994479 -0.00193429 5.86929e-22)             (0.994479 0.00193429 -2.92741e-22)
        0.895             (0.994465 -0.00193941 5.88864e-22)             (0.994465 0.00193941 -2.93705e-22)
          0.9             (0.994451 -0.00194455 5.90569e-22)             (0.994451 0.00194455 -2.94547e-22)
        0.905             (0.994437 -0.0019497 5.92517e-22)             (0.994437 0.00194971 -2.95512e-22)
         0.91             (0.994423 -0.00195485 5.94526e-22)             (0.994423 0.00195485 -2.96513e-22)
        0.915             (0.994409 -0.00196 5.96666e-22)             (0.994409 0.00196001 -2.97571e-22)
         0.92             (0.994395 -0.00196518 5.98459e-22)             (0.994395 0.00196518 -2.9844e-22)
        0.925             (0.994381 -0.00197037 6.00368e-22)             (0.994381 0.00197038 -2.99342e-22)
         0.93             (0.994367 -0.0019756 6.02115e-22)             (0.994367 0.0019756 -3.001e-22)
        0.935             (0.994353 -0.00198085 6.03853e-22)             (0.994353 0.00198086 -3.00846e-22)
         0.94             (0.994339 -0.00198607 6.06528e-22)             (0.994339 0.00198608 -3.02389e-22)
        0.945             (0.994325 -0.00199124 6.09351e-22)             (0.994325 0.00199125 -3.04142e-22)
         0.95             (0.99431 -0.00199642 6.11574e-22)             (0.99431 0.00199643 -3.05244e-22)
        0.955             (0.994296 -0.00200163 6.13692e-22)             (0.994296 0.00200164 -3.06281e-22)
         0.96             (0.994282 -0.00200685 6.15874e-22)             (0.994282 0.00200686 -3.07348e-22)
        0.965             (0.994268 -0.0020121 6.17925e-22)             (0.994268 0.0020121 -3.08336e-22)
         0.97             (0.994254 -0.00201736 6.20056e-22)             (0.994254 0.00201737 -3.09369e-22)
        0.975             (0.994239 -0.00202264 6.22529e-22)             (0.994239 0.00202264 -3.10659e-22)
         0.98             (0.994225 -0.00202792 6.25287e-22)             (0.994225 0.00202792 -3.12126e-22)
        0.985             (0.99421 -0.00203321 6.27363e-22)             (0.99421 0.00203322 -3.13161e-22)
         0.99             (0.994196 -0.00203852 6.29539e-22)             (0.994196 0.00203853 -3.14246e-22)
        0.995             (0.994182 -0.00204385 6.31821e-22)             (0.994182 0.00204386 -3.15388e-22)
            1             (0.994167 -0.00204918 6.34314e-22)             (0.994167 0.00204919 -3.1664e-22)
        1.005             (0.994153 -0.00205453 6.36701e-22)             (0.994153 0.00205454 -3.17839e-22)
         1.01             (0.994138 -0.00205989 6.39032e-22)             (0.994138 0.00205989 -3.19008e-22)
        1.015             (0.994123 -0.00206526 6.41348e-22)             (0.994123 0.00206527 -3.20168e-22)
         1.02             (0.994109 -0.00207065 6.43741e-22)             (0.994109 0.00207066 -3.21375e-22)
        1.025             (0.994094 -0.00207605 6.46267e-22)             (0.994094 0.00207606 -3.22657e-22)
         1.03             (0.994079 -0.00208147 6.48668e-22)             (0.994079 0.00208148 -3.23868e-22)
        1.035             (0.994065 -0.00208689 6.51141e-22)             (0.994065 0.0020869 -3.25116e-22)
         1.04             (0.99405 -0.00209232 6.53708e-22)             (0.99405 0.00209233 -3.26418e-22)
        1.045             (0.994035 -0.00209776 6.56214e-22)             (0.994035 0.00209776 -3.27696e-22)
         1.05             (0.99402 -0.00210321 6.58751e-22)             (0.99402 0.00210321 -3.28992e-22)
        1.055             (0.994006 -0.00210867 6.61251e-22)             (0.994006 0.00210868 -3.30273e-22)
         1.06             (0.993991 -0.00211415 6.63783e-22)             (0.993991 0.00211415 -3.31576e-22)
        1.065             (0.993976 -0.00211964 6.66345e-22)             (0.993976 0.00211964 -3.32901e-22)
         1.07             (0.993961 -0.00212514 6.69026e-22)             (0.993961 0.00212515 -3.34297e-22)
        1.075             (0.993946 -0.00213065 6.71371e-22)             (0.993946 0.00213066 -3.3554e-22)
         1.08             (0.993931 -0.00213618 6.7395e-22)             (0.993931 0.00213619 -3.36925e-22)
        1.085             (0.993916 -0.00214171 6.76552e-22)             (0.993916 0.00214172 -3.38364e-22)
         1.09             (0.993901 -0.00214723 6.79009e-22)             (0.993901 0.00214724 -3.39813e-22)
        1.095             (0.993886 -0.00215274 6.81029e-22)             (0.993886 0.00215275 -3.41273e-22)
          1.1             (0.993871 -0.00215829 6.84175e-22)             (0.993871 0.0021583 -3.43111e-22)
        1.105             (0.993856 -0.00216392 6.88057e-22)             (0.993856 0.00216393 -3.44546e-22)
         1.11             (0.993841 -0.00216958 6.91319e-22)             (0.993841 0.00216959 -3.45591e-22)
        1.115             (0.993826 -0.00217525 6.9409e-22)             (0.993826 0.00217526 -3.4682e-22)
         1.12             (0.99381 -0.00218091 6.96934e-22)             (0.99381 0.00218092 -3.48179e-22)
        1.125             (0.993795 -0.00218659 6.99427e-22)             (0.993795 0.0021866 -3.49377e-22)
         1.13             (0.99378 -0.00219229 7.02372e-22)             (0.99378 0.0021923 -3.50806e-22)
        1.135             (0.993764 -0.00219799 7.05094e-22)             (0.993764 0.002198 -3.52127e-22)
         1.14             (0.993749 -0.00220372 7.0791e-22)             (0.993749 0.00220373 -3.53497e-22)
        1.145             (0.993734 -0.00220946 7.10815e-22)             (0.993734 0.00220947 -3.54913e-22)
         1.15             (0.993718 -0.00221521 7.13714e-22)             (0.993718 0.00221522 -3.56325e-22)
        1.155             (0.993703 -0.00222096 7.16778e-22)             (0.993703 0.00222097 -3.57823e-22)
         1.16             (0.993687 -0.00222672 7.19838e-22)             (0.993687 0.00222673 -3.59326e-22)
        1.165             (0.993672 -0.00223249 7.22831e-22)             (0.993672 0.0022325 -3.60797e-22)
         1.17             (0.993656 -0.00223828 7.25959e-22)             (0.993656 0.00223829 -3.62336e-22)
        1.175             (0.993641 -0.00224409 7.28863e-22)             (0.993641 0.0022441 -3.63763e-22)
         1.18             (0.993625 -0.00224991 7.3193e-22)             (0.993625 0.00224992 -3.65271e-22)
        1.185             (0.99361 -0.00225575 7.34973e-22)             (0.99361 0.00225576 -3.66768e-22)
         1.19             (0.993594 -0.00226161 7.38095e-22)             (0.993594 0.00226162 -3.68303e-22)
        1.195             (0.993578 -0.00226748 7.41204e-22)             (0.993578 0.00226749 -3.69833e-22)
          1.2             (0.993563 -0.00227337 7.44349e-22)             (0.993563 0.00227339 -3.71378e-22)
        1.205             (0.993547 -0.00227928 7.47424e-22)             (0.993547 0.0022793 -3.7289e-22)
         1.21             (0.993531 -0.00228521 7.5059e-22)             (0.993531 0.00228523 -3.74445e-22)
        1.215             (0.993515 -0.00229117 7.53815e-22)             (0.993515 0.00229118 -3.76028e-22)
         1.22             (0.9935 -0.00229714 7.57145e-22)             (0.9935 0.00229715 -3.77662e-22)
        1.225             (0.993484 -0.00230313 7.60201e-22)             (0.993484 0.00230314 -3.79156e-22)
         1.23             (0.993468 -0.00230915 7.63486e-22)             (0.993468 0.00230916 -3.80759e-22)
        1.235             (0.993452 -0.00231519 7.66653e-22)             (0.993452 0.00231521 -3.82286e-22)
         1.24             (0.993436 -0.00232128 7.69906e-22)             (0.993436 0.00232129 -3.83867e-22)
        1.245             (0.99342 -0.00232739 7.73508e-22)             (0.99342 0.0023274 -3.85764e-22)
         1.25             (0.993404 -0.00233352 7.77601e-22)             (0.993404 0.00233353 -3.88013e-22)
        1.255             (0.993388 -0.00233967 7.80478e-22)             (0.993388 0.00233968 -3.89231e-22)
         1.26             (0.993372 -0.00234582 7.83411e-22)             (0.993372 0.00234584 -3.9041e-22)
        1.265             (0.993356 -0.00235202 7.86752e-22)             (0.993356 0.00235204 -3.91962e-22)
         1.27             (0.99334 -0.00235828 7.90131e-22)             (0.99334 0.0023583 -3.93546e-22)
        1.275             (0.993324 -0.00236463 7.93551e-22)             (0.993324 0.00236464 -3.95119e-22)
         1.28             (0.993308 -0.00237108 7.97001e-22)             (0.993308 0.0023711 -3.9665e-22)
        1.285             (0.993291 -0.00237772 8.00327e-22)             (0.993291 0.00237773 -3.98006e-22)
         1.29             (0.993275 -0.00238473 8.03702e-22)             (0.993275 0.00238475 -3.9909e-22)
        1.295             (0.993259 -0.00239206 8.07131e-22)             (0.993259 0.00239207 -4.00251e-22)
          1.3             (0.993243 -0.00239865 8.10863e-22)             (0.993243 0.00239867 -4.02981e-22)
        1.305             (0.993226 -0.00240411 8.14899e-22)             (0.993226 0.00240413 -4.06538e-22)
         1.31             (0.99321 -0.00240961 8.18543e-22)             (0.99321 0.00240963 -4.08394e-22)
        1.315             (0.993194 -0.00241521 8.22315e-22)             (0.993194 0.00241522 -4.1024e-22)
         1.32             (0.993177 -0.00242089 8.25549e-22)             (0.993177 0.00242091 -4.11813e-22)
        1.325             (0.993161 -0.00242666 8.2918e-22)             (0.993161 0.00242667 -4.13592e-22)
         1.33             (0.993144 -0.00243249 8.32913e-22)             (0.993144 0.0024325 -4.15428e-22)
        1.335             (0.993128 -0.00243838 8.36632e-22)             (0.993128 0.00243839 -4.17263e-22)
         1.34             (0.993112 -0.00244432 8.40193e-22)             (0.993112 0.00244434 -4.19023e-22)
        1.345             (0.993095 -0.00245031 8.44129e-22)             (0.993095 0.00245032 -4.20962e-22)
         1.35             (0.993078 -0.00245633 8.47929e-22)             (0.993078 0.00245635 -4.22838e-22)
        1.355             (0.993062 -0.00246238 8.51872e-22)             (0.993062 0.0024624 -4.24803e-22)
         1.36             (0.993045 -0.00246846 8.55955e-22)             (0.993045 0.00246848 -4.26851e-22)
        1.365             (0.993029 -0.00247458 8.59699e-22)             (0.993029 0.00247459 -4.28718e-22)
         1.37             (0.993012 -0.00248073 8.63458e-22)             (0.993012 0.00248074 -4.30598e-22)
        1.375             (0.992995 -0.00248691 8.67274e-22)             (0.992995 0.00248693 -4.32516e-22)
         1.38             (0.992979 -0.00249313 8.71299e-22)             (0.992979 0.00249314 -4.3457e-22)
        1.385             (0.992962 -0.00249938 8.75322e-22)             (0.992962 0.00249939 -4.36598e-22)
         1.39             (0.992945 -0.00250565 8.78919e-22)             (0.992945 0.00250566 -4.38262e-22)