# Forces      
# CofR        : (0.000000e+00 0.000000e+00 0.000000e+00)
# Time        forces(pressure viscous porous)	moments(pressure viscous porous)
0.005         	((1.578882e+00 2.514298e-09 2.224187e-20) (2.012211e-02 1.055324e-11 4.562695e-20) (0.000000e+00 0.000000e+00 0.000000e+00)) ((-1.667328e-18 -2.419755e-22 -5.776834e-18) (4.810034e-20 3.537025e-20 -8.493328e-14) (0.000000e+00 0.000000e+00 0.000000e+00))
0.01          	((1.880648e-02 -9.880476e-09 1.584045e-21) (1.759939e-02 1.881624e-10 -1.224432e-21) (0.000000e+00 0.000000e+00 0.000000e+00)) ((-2.349984e-20 9.785164e-23 -3.171735e-20) (2.732141e-22 -3.809869e-22 -7.334385e-11) (0.000000e+00 0.000000e+00 0.000000e+00))
0.015         	((2.105061e-02 5.800161e-09 1.593459e-21) (1.600079e-02 1.616620e-10 -8.696014e-22) (0.000000e+00 0.000000e+00 0.000000e+00)) ((-2.302572e-20 1.063859e-22 5.721652e-20) (1.061860e-22 -2.431468e-22 -7.656887e-11) (0.000000e+00 0.000000e+00 0.000000e+00))
0.02          	((1.495060e-02 -8.072696e-10 1.495435e-21) (1.480206e-02 1.222638e-10 -9.677973e-22) (0.000000e+00 0.000000e+00 0.000000e+00)) ((-1.645882e-20 1.144084e-22 -1.431778e-21) (-6.599188e-23 -2.806709e-22 -8.187412e-11) (0.000000e+00 0.000000e+00 0.000000e+00))
0.025         	((1.366963e-02 5.651343e-11 1.471009e-21) (1.377673e-02 9.806699e-11 -1.036293e-21) (0.000000e+00 0.000000e+00 0.000000e+00)) ((-1.505207e-20 1.082314e-22 4.880131e-21) (-4.672069e-23 -2.625031e-22 -8.428262e-11) (0.000000e+00 0.000000e+00 0.000000e+00))
0.03          	((1.284196e-02 4.171172e-10 1.452905e-21) (1.287888e-02 8.076970e-11 -1.097853e-21) (0.000000e+00 0.000000e+00 0.000000e+00)) ((-1.414614e-20 1.028000e-22 1.105117e-20) (-1.728641e-23 -2.427620e-22 -8.457945e-11) (0.000000e+00 0.000000e+00 0.000000e+00))
0.035         	((1.214870e-02 5.335594e-10 1.437181e-21) (1.208450e-02 6.717949e-11 -1.152506e-21) (0.000000e+00 0.000000e+00 0.000000e+00)) ((-1.340342e-20 9.830928e-23 1.969184e-20) (1.023902e-23 -2.251607e-22 -8.358303e-11) (0.000000e+00 0.000000e+00 0.000000e+00))
0.04          	((1.152710e-02 3.008981e-10 1.422671e-21) (1.137709e-02 5.465644e-11 -1.200803e-21) (0.000000e+00 0.000000e+00 0.000000e+00)) ((-1.273099e-20 9.457291e-23 2.029771e-20) (3.338717e-23 -2.098670e-22 -8.189843e-11) (0.000000e+00 0.000000e+00 0.000000e+00))
0.045         	((1.096124e-02 1.707505e-10 1.409382e-21) (1.074411e-02 4.847514e-11 -1.243388e-21) (0.000000e+00 0.000000e+00 0.000000e+00)) ((-1.211414e-20 9.141070e-23 1.170269e-20) (5.258411e-23 -1.965014e-22 -8.299520e-11) (0.000000e+00 0.000000e+00 0.000000e+00))
0.05          	((1.044528e-02 -5.431168e-12 1.397161e-21) (1.017557e-02 4.238566e-11 -1.280962e-21) (0.000000e+00 0.000000e+00 0.000000e+00)) ((-1.154908e-20 8.868604e-23 1.034114e-20) (6.850365e-23 -1.846711e-22 -8.247772e-11) (0.000000e+00 0.000000e+00 0.000000e+00))
0.055         	((9.974613e-03 -1.116502e-10 1.386006e-21) (9.663241e-03 3.556947e-11 -1.314219e-21) (0.000000e+00 0.000000e+00 0.000000e+00)) ((-1.103292e-20 8.632033e-23 4.361124e-20) (8.178571e-23 -1.740760e-22 -8.072517e-11) (0.000000e+00 0.000000e+00 0.000000e+00))
0.06          	((9.545754e-03 -4.730385e-11 1.375762e-21) (9.200278e-03 2.936127e-11 -1.343688e-21) (0.000000e+00 0.000000e+00 0.000000e+00)) ((-1.056375e-20 8.425325e-23 2.747790e-20) (9.294418e-23 -1.645109e-22 -7.799765e-11) (0.000000e+00 0.000000e+00 0.000000e+00))
0.065         	((9.155481e-03 -1.029314e-10 1.366304e-21) (8.780826e-03 2.345728e-11 -1.369940e-21) (0.000000e+00 0.000000e+00 0.000000e+00)) ((-1.013883e-20 8.243087e-23 6.050139e-20) (1.023759e-22 -1.558117e-22 -7.450896e-11) (0.000000e+00 0.000000e+00 0.000000e+00))
0.07          	((8.799753e-03 -2.087931e-10 1.357917e-21) (8.399889e-03 1.851118e-11 -1.393634e-21) (0.000000e+00 0.000000e+00 0.000000e+00)) ((-9.751018e-21 8.080784e-23 6.280732e-20) (1.102664e-22 -1.478672e-22 -7.047309e-11) (0.000000e+00 0.000000e+00 0.000000e+00))
0.075         	((8.475693e-03 -2.682654e-10 1.350364e-21) (8.053131e-03 1.219788e-11 -1.415121e-21) (0.000000e+00 0.000000e+00 0.000000e+00)) ((-9.398210e-21 7.934934e-23 4.178514e-20) (1.169311e-22 -1.405840e-22 -6.600987e-11) (0.000000e+00 0.000000e+00 0.000000e+00))
0.08          	((8.180745e-03 -1.980805e-10 1.343097e-21) (7.736775e-03 8.676046e-12 -1.434424e-21) (0.000000e+00 0.000000e+00 0.000000e+00)) ((-9.079327e-21 7.803247e-23 3.507703e-20) (1.225477e-22 -1.338808e-22 -6.125222e-11) (0.000000e+00 0.000000e+00 0.000000e+00))
0.085         	((7.911262e-03 -2.720959e-10 1.336270e-21) (7.447563e-03 5.407214e-12 -1.451995e-21) (0.000000e+00 0.000000e+00 0.000000e+00)) ((-8.785449e-21 7.683613e-23 1.350567e-20) (1.271055e-22 -1.276860e-22 -5.630457e-11) (0.000000e+00 0.000000e+00 0.000000e+00))
0.09          	((7.665094e-03 -2.815381e-10 1.329920e-21) (7.182606e-03 2.276357e-12 -1.468024e-21) (0.000000e+00 0.000000e+00 0.000000e+00)) ((-8.517741e-21 7.574106e-23 3.627972e-20) (1.308737e-22 -1.219682e-22 -5.129172e-11) (0.000000e+00 0.000000e+00 0.000000e+00))
0.095         	((7.439521e-03 -3.631250e-10 1.324025e-21) (6.939380e-03 4.734176e-13 -1.482761e-21) (0.000000e+00 0.000000e+00 0.000000e+00)) ((-8.271939e-21 7.473414e-23 1.350343e-21) (1.339011e-22 -1.166799e-22 -4.622880e-11) (0.000000e+00 0.000000e+00 0.000000e+00))
0.1           	((7.232734e-03 -8.808042e-10 1.318324e-21) (6.715659e-03 -1.002214e-11 -1.496232e-21) (0.000000e+00 0.000000e+00 0.000000e+00)) ((-8.046590e-21 7.380359e-23 1.326376e-20) (1.362994e-22 -1.117837e-22 -6.341487e-11) (0.000000e+00 0.000000e+00 0.000000e+00))
0.105         	((7.043534e-03 -9.018498e-10 1.312900e-21) (6.509449e-03 -2.120615e-11 -1.508506e-21) (0.000000e+00 0.000000e+00 0.000000e+00)) ((-7.838298e-21 7.292723e-23 3.514256e-20) (1.380802e-22 -1.072611e-22 -7.646125e-11) (0.000000e+00 0.000000e+00 0.000000e+00))
0.11          	((6.869024e-03 -1.181778e-09 1.307798e-21) (6.319019e-03 -3.066656e-11 -1.519850e-21) (0.000000e+00 0.000000e+00 0.000000e+00)) ((-7.646379e-21 7.211458e-23 3.570454e-20) (1.393778e-22 -1.030529e-22 -8.591137e-11) (0.000000e+00 0.000000e+00 0.000000e+00))
0.115         	((6.708050e-03 -1.206445e-09 1.302956e-21) (6.142818e-03 -3.914778e-11 -1.530311e-21) (0.000000e+00 0.000000e+00 0.000000e+00)) ((-7.468578e-21 7.135415e-23 7.114445e-20) (1.402316e-22 -9.914522e-23 -9.226082e-11) (0.000000e+00 0.000000e+00 0.000000e+00))
0.12          	((6.559629e-03 -1.325908e-09 1.298261e-21) (5.979464e-03 -4.839243e-11 -1.539940e-21) (0.000000e+00 0.000000e+00 0.000000e+00)) ((-7.303684e-21 7.063345e-23 3.160698e-20) (1.407148e-22 -9.551545e-23 -9.595826e-11) (0.000000e+00 0.000000e+00 0.000000e+00))
0.125         	((6.422495e-03 -1.343652e-09 1.293748e-21) (5.827732e-03 -5.446110e-11 -1.548868e-21) (0.000000e+00 0.000000e+00 0.000000e+00)) ((-7.150958e-21 6.995035e-23 7.359203e-20) (1.408562e-22 -9.213204e-23 -9.740992e-11) (0.000000e+00 0.000000e+00 0.000000e+00))
0.13          	((6.296031e-03 -1.513173e-09 1.289269e-21) (5.686532e-03 -6.196815e-11 -1.556971e-21) (0.000000e+00 0.000000e+00 0.000000e+00)) ((-7.009590e-21 6.930158e-23 3.340741e-20) (1.407446e-22 -8.897108e-23 -9.695844e-11) (0.000000e+00 0.000000e+00 0.000000e+00))
0.135         	((6.178789e-03 -1.608364e-09 1.285001e-21) (5.554879e-03 -6.842252e-11 -1.564512e-21) (0.000000e+00 0.000000e+00 0.000000e+00)) ((-6.878374e-21 6.868008e-23 4.998498e-20) (1.404057e-22 -8.601648e-23 -9.496887e-11) (0.000000e+00 0.000000e+00 0.000000e+00))
0.14          	((6.069923e-03 -1.681334e-09 1.280985e-21) (5.431898e-03 -7.507858e-11 -1.571621e-21) (0.000000e+00 0.000000e+00 0.000000e+00)) ((-6.755822e-21 6.808375e-23 3.413530e-20) (1.398475e-22 -8.324881e-23 -9.169712e-11) (0.000000e+00 0.000000e+00 0.000000e+00))
0.145         	((5.968674e-03 -1.769251e-09 1.277144e-21) (5.316813e-03 -8.033869e-11 -1.578262e-21) (0.000000e+00 0.000000e+00 0.000000e+00)) ((-6.640807e-21 6.751598e-23 6.912405e-20) (1.391012e-22 -8.064724e-23 -8.738223e-11) (0.000000e+00 0.000000e+00 0.000000e+00))
0.15          	((5.874656e-03 -1.776973e-09 1.273322e-21) (5.208924e-03 -8.493407e-11 -1.584393e-21) (0.000000e+00 0.000000e+00 0.000000e+00)) ((-6.533280e-21 6.697160e-23 3.497183e-20) (1.382244e-22 -7.819151e-23 -8.222872e-11) (0.000000e+00 0.000000e+00 0.000000e+00))
0.155         	((5.787694e-03 -1.865492e-09 1.269521e-21) (5.107607e-03 -8.919176e-11 -1.590024e-21) (0.000000e+00 0.000000e+00 0.000000e+00)) ((-6.433140e-21 6.644252e-23 6.751410e-20) (1.372892e-22 -7.587002e-23 -7.641793e-11) (0.000000e+00 0.000000e+00 0.000000e+00))
0.16          	((5.706603e-03 -1.933769e-09 1.265887e-21) (5.012296e-03 -9.250275e-11 -1.595329e-21) (0.000000e+00 0.000000e+00 0.000000e+00)) ((-6.338913e-21 6.593238e-23 4.491962e-20) (1.363079e-22 -7.367014e-23 -7.010770e-11) (0.000000e+00 0.000000e+00 0.000000e+00))
0.165         	((5.631204e-03 -1.966177e-09 1.262338e-21) (4.922478e-03 -9.802913e-11 -1.600295e-21) (0.000000e+00 0.000000e+00 0.000000e+00)) ((-6.251140e-21 6.543721e-23 3.601327e-20) (1.352965e-22 -7.157789e-23 -6.341210e-11) (0.000000e+00 0.000000e+00 0.000000e+00))
0.17          	((5.560755e-03 -2.026502e-09 1.258910e-21) (4.837698e-03 -1.011917e-10 -1.604997e-21) (0.000000e+00 0.000000e+00 0.000000e+00)) ((-6.168278e-21 6.495921e-23 2.354527e-20) (1.342312e-22 -6.958546e-23 -5.646631e-11) (0.000000e+00 0.000000e+00 0.000000e+00))
0.175         	((5.494978e-03 -2.064098e-09 1.255568e-21) (4.757545e-03 -1.039479e-10 -1.609422e-21) (0.000000e+00 0.000000e+00 0.000000e+00)) ((-6.090093e-21 6.449641e-23 3.690161e-20) (1.331240e-22 -6.768164e-23 -4.935278e-11) (0.000000e+00 0.000000e+00 0.000000e+00))
0.18          	((5.433708e-03 -2.045936e-09 1.252298e-21) (4.681645e-03 -1.061596e-10 -1.613577e-21) (0.000000e+00 0.000000e+00 0.000000e+00)) ((-6.016519e-21 6.404466e-23 3.180795e-20) (1.320125e-22 -6.585755e-23 -4.214696e-11) (0.000000e+00 0.000000e+00 0.000000e+00))
0.185         	((5.376797e-03 -2.124689e-09 1.249064e-21) (4.609666e-03 -1.083269e-10 -1.617549e-21) (0.000000e+00 0.000000e+00 0.000000e+00)) ((-5.948030e-21 6.359846e-23 7.794551e-21) (1.309147e-22 -6.409861e-23 -3.491793e-11) (0.000000e+00 0.000000e+00 0.000000e+00))
0.19          	((5.323837e-03 -2.138099e-09 1.245889e-21) (4.541303e-03 -1.099824e-10 -1.621204e-21) (0.000000e+00 0.000000e+00 0.000000e+00)) ((-5.883766e-21 6.316334e-23 2.859275e-20) (1.299165e-22 -6.240612e-23 -2.772623e-11) (0.000000e+00 0.000000e+00 0.000000e+00))
0.195         	((5.274291e-03 -2.161973e-09 1.242782e-21) (4.476277e-03 -1.121072e-10 -1.624701e-21) (0.000000e+00 0.000000e+00 0.000000e+00)) ((-5.823312e-21 6.274120e-23 5.184041e-20) (1.289142e-22 -6.077378e-23 -2.060850e-11) (0.000000e+00 0.000000e+00 0.000000e+00))
0.2           	((5.227856e-03 -2.187252e-09 1.239741e-21) (4.414340e-03 -1.134393e-10 -1.628063e-21) (0.000000e+00 0.000000e+00 0.000000e+00)) ((-5.766073e-21 6.233044e-23 4.496706e-20) (1.279158e-22 -5.919792e-23 -1.360481e-11) (0.000000e+00 0.000000e+00 0.000000e+00))
0.205         	((5.184278e-03 -2.218074e-09 1.236764e-21) (4.355274e-03 -1.144551e-10 -1.631291e-21) (0.000000e+00 0.000000e+00 0.000000e+00)) ((-5.711341e-21 6.193020e-23 4.293087e-20) (1.268929e-22 -5.767439e-23 -6.742982e-12) (0.000000e+00 0.000000e+00 0.000000e+00))
0.21          	((5.143640e-03 -2.184620e-09 1.233784e-21) (4.298871e-03 -1.159512e-10 -1.634322e-21) (0.000000e+00 0.000000e+00 0.000000e+00)) ((-5.659811e-21 6.153902e-23 1.735318e-20) (1.258828e-22 -5.619097e-23 -5.302493e-14) (0.000000e+00 0.000000e+00 0.000000e+00))
0.215         	((5.105757e-03 -2.201543e-09 1.230991e-21) (4.244940e-03 -1.172566e-10 -1.637313e-21) (0.000000e+00 0.000000e+00 0.000000e+00)) ((-5.611424e-21 6.114933e-23 3.179471e-21) (1.249618e-22 -5.475603e-23 6.454589e-12) (0.000000e+00 0.000000e+00 0.000000e+00))
0.22          	((5.070318e-03 -2.258750e-09 1.228139e-21) (4.193311e-03 -1.185815e-10 -1.640157e-21) (0.000000e+00 0.000000e+00 0.000000e+00)) ((-5.565702e-21 6.077073e-23 2.650007e-20) (1.240228e-22 -5.335557e-23 1.276510e-11) (0.000000e+00 0.000000e+00 0.000000e+00))
0.225         	((5.037547e-03 -2.239099e-09 1.225205e-21) (4.143830e-03 -1.196306e-10 -1.642745e-21) (0.000000e+00 0.000000e+00 0.000000e+00)) ((-5.522999e-21 6.040045e-23 4.110952e-20) (1.231361e-22 -5.198632e-23 1.886397e-11) (0.000000e+00 0.000000e+00 0.000000e+00))
0.23          	((5.007048e-03 -2.238425e-09 1.222433e-21) (4.096355e-03 -1.203914e-10 -1.645313e-21) (0.000000e+00 0.000000e+00 0.000000e+00)) ((-5.483322e-21 6.003010e-23 4.502458e-20) (1.223374e-22 -5.065198e-23 2.475221e-11) (0.000000e+00 0.000000e+00 0.000000e+00))
0.235         	((4.978278e-03 -2.274592e-09 1.219761e-21) (4.050756e-03 -1.209882e-10 -1.647901e-21) (0.000000e+00 0.000000e+00 0.000000e+00)) ((-5.444985e-21 5.966759e-23 1.479513e-20) (1.215031e-22 -4.935956e-23 3.041406e-11) (0.000000e+00 0.000000e+00 0.000000e+00))
0.24          	((4.951384e-03 -2.275542e-09 1.217076e-21) (4.006913e-03 -1.214785e-10 -1.650351e-21) (0.000000e+00 0.000000e+00 0.000000e+00)) ((-5.408570e-21 5.931406e-23 5.117565e-21) (1.206810e-22 -4.809793e-23 3.586070e-11) (0.000000e+00 0.000000e+00 0.000000e+00))
0.245         	((4.926265e-03 -2.289323e-09 1.214429e-21) (3.964719e-03 -1.216688e-10 -1.652728e-21) (0.000000e+00 0.000000e+00 0.000000e+00)) ((-5.374016e-21 5.896545e-23 2.515359e-20) (1.198829e-22 -4.686563e-23 4.108347e-11) (0.000000e+00 0.000000e+00 0.000000e+00))
0.25          	((4.902726e-03 -2.198217e-09 1.211820e-21) (3.924076e-03 -1.213830e-10 -1.655024e-21) (0.000000e+00 0.000000e+00 0.000000e+00)) ((-5.341022e-21 5.862132e-23 3.412669e-20) (1.190959e-22 -4.565914e-23 4.608329e-11) (0.000000e+00 0.000000e+00 0.000000e+00))
0.255         	((4.880850e-03 -2.239308e-09 1.209252e-21) (3.884891e-03 -1.214170e-10 -1.657243e-21) (0.000000e+00 0.000000e+00 0.000000e+00)) ((-5.309907e-21 5.828041e-23 1.964088e-20) (1.183446e-22 -4.447484e-23 5.087109e-11) (0.000000e+00 0.000000e+00 0.000000e+00))
0.26          	((4.860699e-03 -2.207939e-09 1.206727e-21) (3.847078e-03 -1.212387e-10 -1.659366e-21) (0.000000e+00 0.000000e+00 0.000000e+00)) ((-5.281095e-21 5.793963e-23 3.174343e-20) (1.176702e-22 -4.331268e-23 5.543708e-11) (0.000000e+00 0.000000e+00 0.000000e+00))
0.265         	((4.841731e-03 -2.205275e-09 1.204149e-21) (3.810558e-03 -1.206514e-10 -1.661403e-21) (0.000000e+00 0.000000e+00 0.000000e+00)) ((-5.252805e-21 5.760897e-23 8.456781e-21) (1.169302e-22 -4.217408e-23 5.978992e-11) (0.000000e+00 0.000000e+00 0.000000e+00))
0.27          	((4.824543e-03 -2.238807e-09 1.201563e-21) (3.775261e-03 -1.207040e-10 -1.663268e-21) (0.000000e+00 0.000000e+00 0.000000e+00)) ((-5.226853e-21 5.727426e-23 4.189452e-20) (1.162784e-22 -4.104708e-23 6.394076e-11) (0.000000e+00 0.000000e+00 0.000000e+00))
0.275         	((4.808788e-03 -2.224938e-09 1.199119e-21) (3.741102e-03 -1.206093e-10 -1.665194e-21) (0.000000e+00 0.000000e+00 0.000000e+00)) ((-5.202074e-21 5.692795e-23 8.381216e-21) (1.156371e-22 -3.994516e-23 6.788303e-11) (0.000000e+00 0.000000e+00 0.000000e+00))
0.28          	((4.793484e-03 -2.154758e-09 1.196680e-21) (3.708037e-03 -1.199139e-10 -1.667044e-21) (0.000000e+00 0.000000e+00 0.000000e+00)) ((-5.177981e-21 5.661728e-23 -5.495406e-21) (1.150111e-22 -3.886859e-23 7.161931e-11) (0.000000e+00 0.000000e+00 0.000000e+00))
0.285         	((4.778674e-03 -2.188626e-09 1.194409e-21) (3.676053e-03 -1.196810e-10 -1.668952e-21) (0.000000e+00 0.000000e+00 0.000000e+00)) ((-5.155855e-21 5.633834e-23 4.190315e-20) (1.143544e-22 -3.780444e-23 7.516058e-11) (0.000000e+00 0.000000e+00 0.000000e+00))
0.29          	((4.765392e-03 -2.147190e-09 1.192031e-21) (3.645077e-03 -1.193900e-10 -1.670698e-21) (0.000000e+00 0.000000e+00 0.000000e+00)) ((-5.134544e-21 5.603364e-23 1.417226e-20) (1.137287e-22 -3.676029e-23 7.850624e-11) (0.000000e+00 0.000000e+00 0.000000e+00))
0.295         	((4.753425e-03 -2.307583e-09 1.189686e-21) (3.615039e-03 -1.193905e-10 -1.672435e-21) (0.000000e+00 0.000000e+00 0.000000e+00)) ((-5.114229e-21 5.571652e-23 6.937866e-21) (1.131247e-22 -3.573716e-23 8.165232e-11) (0.000000e+00 0.000000e+00 0.000000e+00))
0.3           	((4.742253e-03 -2.365765e-09 1.187353e-21) (3.585901e-03 -1.194758e-10 -1.674097e-21) (0.000000e+00 0.000000e+00 0.000000e+00)) ((-5.094673e-21 5.540445e-23 2.101029e-20) (1.125344e-22 -3.473062e-23 8.462176e-11) (0.000000e+00 0.000000e+00 0.000000e+00))
0.305         	((4.732358e-03 -1.737730e-09 1.185043e-21) (3.557602e-03 -1.169881e-10 -1.675716e-21) (0.000000e+00 0.000000e+00 0.000000e+00)) ((-5.076369e-21 5.509182e-23 -2.769085e-21) (1.119773e-22 -3.374296e-23 8.741626e-11) (0.000000e+00 0.000000e+00 0.000000e+00))
0.31          	((4.723089e-03 -2.087698e-09 1.182756e-21) (3.530111e-03 -1.158826e-10 -1.677290e-21) (0.000000e+00 0.000000e+00 0.000000e+00)) ((-5.058786e-21 5.478520e-23 2.423450e-21) (1.114329e-22 -3.277096e-23 9.004210e-11) (0.000000e+00 0.000000e+00 0.000000e+00))
0.315         	((4.714772e-03 -2.285825e-09 1.180490e-21) (3.503386e-03 -1.159026e-10 -1.678817e-21) (0.000000e+00 0.000000e+00 0.000000e+00)) ((-5.042163e-21 5.447677e-23 4.897458e-20) (1.109143e-22 -3.181720e-23 9.251541e-11) (0.000000e+00 0.000000e+00 0.000000e+00))
0.32          	((4.707467e-03 -2.273422e-09 1.178241e-21) (3.477385e-03 -1.158484e-10 -1.680280e-21) (0.000000e+00 0.000000e+00 0.000000e+00)) ((-5.026868e-21 5.416922e-23 4.001723e-20) (1.103946e-22 -3.087508e-23 9.483174e-11) (0.000000e+00 0.000000e+00 0.000000e+00))
0.325         	((4.700381e-03 -2.256987e-09 1.176052e-21) (3.452088e-03 -1.154727e-10 -1.681772e-21) (0.000000e+00 0.000000e+00 0.000000e+00)) ((-5.011551e-21 5.386827e-23 4.424315e-20) (1.098715e-22 -2.995717e-23 9.699832e-11) (0.000000e+00 0.000000e+00 0.000000e+00))
0.33          	((4.694593e-03 -2.368497e-09 1.173756e-21) (3.427459e-03 -1.157498e-10 -1.683074e-21) (0.000000e+00 0.000000e+00 0.000000e+00)) ((-4.997843e-21 5.356787e-23 -7.193340e-21) (1.094117e-22 -2.904319e-23 9.902149e-11) (0.000000e+00 0.000000e+00 0.000000e+00))
0.335         	((4.689342e-03 -2.337368e-09 1.171533e-21) (3.403473e-03 -1.157011e-10 -1.684403e-21) (0.000000e+00 0.000000e+00 0.000000e+00)) ((-4.984539e-21 5.326705e-23 2.638569e-20) (1.089577e-22 -2.814512e-23 1.009044e-10) (0.000000e+00 0.000000e+00 0.000000e+00))
0.34          	((4.684690e-03 -2.334397e-09 1.169330e-21) (3.380100e-03 -1.155380e-10 -1.685694e-21) (0.000000e+00 0.000000e+00 0.000000e+00)) ((-4.971794e-21 5.296864e-23 2.409460e-20) (1.085210e-22 -2.726353e-23 1.026506e-10) (0.000000e+00 0.000000e+00 0.000000e+00))
0.345         	((4.680581e-03 -2.293520e-09 1.167189e-21) (3.357320e-03 -1.151249e-10 -1.686981e-21) (0.000000e+00 0.000000e+00 0.000000e+00)) ((-4.959828e-21 5.267312e-23 4.818993e-20) (1.081124e-22 -2.639580e-23 1.042679e-10) (0.000000e+00 0.000000e+00 0.000000e+00))
0.35          	((4.676872e-03 -2.328039e-09 1.165063e-21) (3.335105e-03 -1.148807e-10 -1.688262e-21) (0.000000e+00 0.000000e+00 0.000000e+00)) ((-4.947992e-21 5.237993e-23 4.441336e-20) (1.076925e-22 -2.554720e-23 1.057629e-10) (0.000000e+00 0.000000e+00 0.000000e+00))
0.355         	((4.673846e-03 -2.320466e-09 1.162925e-21) (3.313433e-03 -1.145758e-10 -1.689466e-21) (0.000000e+00 0.000000e+00 0.000000e+00)) ((-4.936975e-21 5.208787e-23 4.269820e-20) (1.073006e-22 -2.470815e-23 1.071379e-10) (0.000000e+00 0.000000e+00 0.000000e+00))
0.36          	((4.671346e-03 -2.323026e-09 1.160796e-21) (3.292285e-03 -1.142674e-10 -1.690635e-21) (0.000000e+00 0.000000e+00 0.000000e+00)) ((-4.926523e-21 5.179773e-23 2.839014e-20) (1.069266e-22 -2.388015e-23 1.083982e-10) (0.000000e+00 0.000000e+00 0.000000e+00))
0.365         	((4.669379e-03 -2.250720e-09 1.158648e-21) (3.271644e-03 -1.135270e-10 -1.691725e-21) (0.000000e+00 0.000000e+00 0.000000e+00)) ((-4.916670e-21 5.151215e-23 2.608740e-20) (1.065682e-22 -2.306512e-23 1.095490e-10) (0.000000e+00 0.000000e+00 0.000000e+00))
0.37          	((4.667811e-03 -2.420957e-09 1.156586e-21) (3.251487e-03 -1.132863e-10 -1.692870e-21) (0.000000e+00 0.000000e+00 0.000000e+00)) ((-4.906737e-21 5.121873e-23 -5.689019e-21) (1.062066e-22 -2.226831e-23 1.106059e-10) (0.000000e+00 0.000000e+00 0.000000e+00))
0.375         	((4.666663e-03 -2.270146e-09 1.154585e-21) (3.231797e-03 -1.127259e-10 -1.694055e-21) (0.000000e+00 0.000000e+00 0.000000e+00)) ((-4.897434e-21 5.092614e-23 2.929349e-20) (1.058770e-22 -2.148334e-23 1.115596e-10) (0.000000e+00 0.000000e+00 0.000000e+00))
0.38          	((4.666486e-03 -1.785455e-09 1.152512e-21) (3.212560e-03 -1.104706e-10 -1.695033e-21) (0.000000e+00 0.000000e+00 0.000000e+00)) ((-4.889798e-21 5.063327e-23 3.949315e-20) (1.055400e-22 -2.069493e-23 1.124181e-10) (0.000000e+00 0.000000e+00 0.000000e+00))
0.385         	((4.667205e-03 -2.363440e-09 1.150450e-21) (3.193764e-03 -1.108579e-10 -1.696035e-21) (0.000000e+00 0.000000e+00 0.000000e+00)) ((-4.882294e-21 5.031882e-23 2.662572e-20) (1.052273e-22 -1.992866e-23 1.131774e-10) (0.000000e+00 0.000000e+00 0.000000e+00))
0.39          	((4.667230e-03 -2.617690e-09 1.148398e-21) (3.175389e-03 -1.121994e-10 -1.696997e-21) (0.000000e+00 0.000000e+00 0.000000e+00)) ((-4.874704e-21 5.004798e-23 5.610831e-20) (1.049113e-22 -1.917650e-23 1.138502e-10) (0.000000e+00 0.000000e+00 0.000000e+00))
0.395         	((4.666893e-03 -2.400204e-09 1.146356e-21) (3.157419e-03 -1.124548e-10 -1.697923e-21) (0.000000e+00 0.000000e+00 0.000000e+00)) ((-4.867171e-21 4.980357e-23 9.984596e-21) (1.045916e-22 -1.843344e-23 1.144445e-10) (0.000000e+00 0.000000e+00 0.000000e+00))
0.4           	((4.667406e-03 -2.303603e-09 1.144326e-21) (3.139840e-03 -1.123966e-10 -1.698837e-21) (0.000000e+00 0.000000e+00 0.000000e+00)) ((-4.860187e-21 4.954023e-23 2.283944e-20) (1.042832e-22 -1.769967e-23 1.149562e-10) (0.000000e+00 0.000000e+00 0.000000e+00))
0.405         	((4.668523e-03 -2.334447e-09 1.142307e-21) (3.122626e-03 -1.123096e-10 -1.699727e-21) (0.000000e+00 0.000000e+00 0.000000e+00)) ((-4.853669e-21 4.926415e-23 3.829959e-20) (1.039868e-22 -1.697763e-23 1.153800e-10) (0.000000e+00 0.000000e+00 0.000000e+00))
0.41          	((4.670261e-03 -2.251766e-09 1.140298e-21) (3.105775e-03 -1.120116e-10 -1.700594e-21) (0.000000e+00 0.000000e+00 0.000000e+00)) ((-4.847634e-21 4.898432e-23 6.262761e-20) (1.037047e-22 -1.626595e-23 1.157334e-10) (0.000000e+00 0.000000e+00 0.000000e+00))
0.415         	((4.672596e-03 -2.248911e-09 1.138301e-21) (3.089277e-03 -1.120686e-10 -1.701440e-21) (0.000000e+00 0.000000e+00 0.000000e+00)) ((-4.842086e-21 4.869937e-23 6.696363e-20) (1.034335e-22 -1.556634e-23 1.160159e-10) (0.000000e+00 0.000000e+00 0.000000e+00))
0.42          	((4.674473e-03 -2.278347e-09 1.136318e-21) (3.073117e-03 -1.121696e-10 -1.702264e-21) (0.000000e+00 0.000000e+00 0.000000e+00)) ((-4.836376e-21 4.842971e-23 7.988417e-20) (1.031591e-22 -1.487637e-23 1.162302e-10) (0.000000e+00 0.000000e+00 0.000000e+00))
0.425         	((4.677368e-03 -2.268105e-09 1.134341e-21) (3.057286e-03 -1.120210e-10 -1.703061e-21) (0.000000e+00 0.000000e+00 0.000000e+00)) ((-4.831430e-21 4.814800e-23 1.402708e-20) (1.029046e-22 -1.419841e-23 1.163817e-10) (0.000000e+00 0.000000e+00 0.000000e+00))
0.43          	((4.680869e-03 -2.339831e-09 1.132366e-21) (3.041778e-03 -1.121388e-10 -1.703778e-21) (0.000000e+00 0.000000e+00 0.000000e+00)) ((-4.827455e-21 4.786426e-23 9.455173e-21) (1.026295e-22 -1.352193e-23 1.164794e-10) (0.000000e+00 0.000000e+00 0.000000e+00))
0.435         	((4.683474e-03 -2.347739e-09 1.130414e-21) (3.026577e-03 -1.121559e-10 -1.704551e-21) (0.000000e+00 0.000000e+00 0.000000e+00)) ((-4.822153e-21 4.759960e-23 -3.573548e-21) (1.023675e-22 -1.287300e-23 1.165168e-10) (0.000000e+00 0.000000e+00 0.000000e+00))
0.44          	((4.687040e-03 -2.332371e-09 1.128477e-21) (3.011677e-03 -1.120469e-10 -1.705274e-21) (0.000000e+00 0.000000e+00 0.000000e+00)) ((-4.817997e-21 4.732439e-23 9.168619e-21) (1.021005e-22 -1.222656e-23 1.164993e-10) (0.000000e+00 0.000000e+00 0.000000e+00))
0.445         	((4.691242e-03 -2.409067e-09 1.126499e-21) (2.997072e-03 -1.122846e-10 -1.705904e-21) (0.000000e+00 0.000000e+00 0.000000e+00)) ((-4.814748e-21 4.704543e-23 2.630531e-20) (1.019002e-22 -1.158192e-23 1.164302e-10) (0.000000e+00 0.000000e+00 0.000000e+00))
0.45          	((4.695721e-03 -2.394791e-09 1.124546e-21) (2.982755e-03 -1.125429e-10 -1.706543e-21) (0.000000e+00 0.000000e+00 0.000000e+00)) ((-4.811657e-21 4.676613e-23 4.144823e-20) (1.016868e-22 -1.095122e-23 1.163110e-10) (0.000000e+00 0.000000e+00 0.000000e+00))
0.455         	((4.699667e-03 -1.588903e-09 1.122619e-21) (2.968711e-03 -1.090633e-10 -1.707162e-21) (0.000000e+00 0.000000e+00 0.000000e+00)) ((-4.807995e-21 4.650266e-23 -1.235480e-20) (1.014526e-22 -1.033675e-23 1.161436e-10) (0.000000e+00 0.000000e+00 0.000000e+00))
0.46          	((4.704545e-03 -2.330167e-09 1.120683e-21) (2.954928e-03 -1.094025e-10 -1.707728e-21) (0.000000e+00 0.000000e+00 0.000000e+00)) ((-4.805340e-21 4.622637e-23 2.630176e-20) (1.012599e-22 -9.726723e-24 1.159356e-10) (0.000000e+00 0.000000e+00 0.000000e+00))
0.465         	((4.709308e-03 -2.256233e-09 1.118800e-21) (2.941405e-03 -1.095578e-10 -1.708353e-21) (0.000000e+00 0.000000e+00 0.000000e+00)) ((-4.802391e-21 4.595311e-23 1.055065e-21) (1.010528e-22 -9.133013e-24 1.156883e-10) (0.000000e+00 0.000000e+00 0.000000e+00))
0.47          	((4.714328e-03 -2.189092e-09 1.116909e-21) (2.928136e-03 -1.093967e-10 -1.708920e-21) (0.000000e+00 0.000000e+00 0.000000e+00)) ((-4.799634e-21 4.568046e-23 1.109354e-20) (1.008468e-22 -8.547997e-24 1.153987e-10) (0.000000e+00 0.000000e+00 0.000000e+00))
0.475         	((4.719622e-03 -3.264145e-09 1.115035e-21) (2.915114e-03 -1.135264e-10 -1.709476e-21) (0.000000e+00 0.000000e+00 0.000000e+00)) ((-4.797088e-21 4.540371e-23 8.681099e-21) (1.006451e-22 -7.972323e-24 1.150741e-10) (0.000000e+00 0.000000e+00 0.000000e+00))
0.48          	((4.725784e-03 -2.482794e-09 1.113153e-21) (2.902335e-03 -1.137340e-10 -1.709990e-21) (0.000000e+00 0.000000e+00 0.000000e+00)) ((-4.795174e-21 4.511161e-23 4.492163e-20) (1.004633e-22 -7.405093e-24 1.147091e-10) (0.000000e+00 0.000000e+00 0.000000e+00))
0.485         	((4.731323e-03 -2.444743e-09 1.111276e-21) (2.889789e-03 -1.136855e-10 -1.710450e-21) (0.000000e+00 0.000000e+00 0.000000e+00)) ((-4.793059e-21 4.484548e-23 2.907621e-20) (1.002720e-22 -6.847925e-24 1.143107e-10) (0.000000e+00 0.000000e+00 0.000000e+00))
0.49          	((4.736286e-03 -2.424925e-09 1.109401e-21) (2.877464e-03 -1.136916e-10 -1.710861e-21) (0.000000e+00 0.000000e+00 0.000000e+00)) ((-4.790745e-21 4.460350e-23 3.144487e-20) (1.000724e-22 -6.298898e-24 1.138797e-10) (0.000000e+00 0.000000e+00 0.000000e+00))
0.495         	((4.741063e-03 -2.395076e-09 1.107533e-21) (2.865354e-03 -1.139174e-10 -1.711239e-21) (0.000000e+00 0.000000e+00 0.000000e+00)) ((-4.788353e-21 4.436855e-23 3.961745e-20) (9.986775e-23 -5.755725e-24 1.134188e-10) (0.000000e+00 0.000000e+00 0.000000e+00))
0.5           	((4.747448e-03 -2.459525e-09 1.105681e-21) (2.853460e-03 -1.143883e-10 -1.711644e-21) (0.000000e+00 0.000000e+00 0.000000e+00)) ((-4.786935e-21 4.409461e-23 3.020414e-20) (9.969091e-23 -5.220109e-24 1.129310e-10) (0.000000e+00 0.000000e+00 0.000000e+00))
0.505         	((4.753211e-03 -2.334074e-09 1.103836e-21) (2.841772e-03 -1.144273e-10 -1.712007e-21) (0.000000e+00 0.000000e+00 0.000000e+00)) ((-4.785188e-21 4.384043e-23 1.373221e-20) (9.950078e-23 -4.693692e-24 1.124197e-10) (0.000000e+00 0.000000e+00 0.000000e+00))
0.51          	((4.759365e-03 -2.387881e-09 1.102004e-21) (2.830286e-03 -1.148249e-10 -1.712371e-21) (0.000000e+00 0.000000e+00 0.000000e+00)) ((-4.783722e-21 4.358033e-23 3.206457e-20) (9.932157e-23 -4.174414e-24 1.118843e-10) (0.000000e+00 0.000000e+00 0.000000e+00))
0.515         	((4.766112e-03 -2.503130e-09 1.100178e-21) (2.819004e-03 -1.155183e-10 -1.712690e-21) (0.000000e+00 0.000000e+00 0.000000e+00)) ((-4.782491e-21 4.330870e-23 7.682223e-20) (9.913705e-23 -3.662814e-24 1.113256e-10) (0.000000e+00 0.000000e+00 0.000000e+00))
0.52          	((4.772655e-03 -2.346867e-09 1.098351e-21) (2.807915e-03 -1.158518e-10 -1.712891e-21) (0.000000e+00 0.000000e+00 0.000000e+00)) ((-4.781836e-21 4.305283e-23 4.533215e-20) (9.898370e-23 -3.142488e-24 1.107474e-10) (0.000000e+00 0.000000e+00 0.000000e+00))
0.525         	((4.779369e-03 -2.390023e-09 1.096538e-21) (2.797015e-03 -1.164478e-10 -1.713133e-21) (0.000000e+00 0.000000e+00 0.000000e+00)) ((-4.781047e-21 4.279317e-23 3.767065e-20) (9.881790e-23 -2.641956e-24 1.101497e-10) (0.000000e+00 0.000000e+00 0.000000e+00))
0.53          	((4.786332e-03 -2.396585e-09 1.094736e-21) (2.786299e-03 -1.171022e-10 -1.713367e-21) (0.000000e+00 0.000000e+00 0.000000e+00)) ((-4.780389e-21 4.253080e-23 1.246282e-20) (9.865348e-23 -2.151802e-24 1.095340e-10) (0.000000e+00 0.000000e+00 0.000000e+00))
0.535         	((4.793492e-03 -2.398371e-09 1.092942e-21) (2.775765e-03 -1.178351e-10 -1.713580e-21) (0.000000e+00 0.000000e+00 0.000000e+00)) ((-4.779897e-21 4.226743e-23 3.795422e-20) (9.849236e-23 -1.670316e-24 1.089018e-10) (0.000000e+00 0.000000e+00 0.000000e+00))
0.54          	((4.800737e-03 -2.412425e-09 1.091140e-21) (2.765407e-03 -1.186658e-10 -1.713744e-21) (0.000000e+00 0.000000e+00 0.000000e+00)) ((-4.779565e-21 4.200700e-23 1.692620e-20) (9.833489e-23 -1.195154e-24 1.082549e-10) (0.000000e+00 0.000000e+00 0.000000e+00))
0.545         	((4.807544e-03 -2.359778e-09 1.089395e-21) (2.755218e-03 -1.193097e-10 -1.713935e-21) (0.000000e+00 0.000000e+00 0.000000e+00)) ((-4.778786e-21 4.175493e-23 -8.715391e-21) (9.815904e-23 -7.336709e-25 1.075933e-10) (0.000000e+00 0.000000e+00 0.000000e+00))
0.55          	((4.814896e-03 -2.398554e-09 1.087629e-21) (2.745196e-03 -1.201524e-10 -1.714073e-21) (0.000000e+00 0.000000e+00 0.000000e+00)) ((-4.778501e-21 4.149650e-23 4.756713e-20) (9.799750e-23 -2.759530e-25 1.069187e-10) (0.000000e+00 0.000000e+00 0.000000e+00))