/*--------------------------------*- C++ -*----------------------------------*\
  =========                 |
  \\      /  F ield         | OpenFOAM: The Open Source CFD Toolbox
   \\    /   O peration     | Website:  https://openfoam.org
    \\  /    A nd           | Version:  7
     \\/     M anipulation  |
\*---------------------------------------------------------------------------*/
FoamFile
{
    version     2.0;
    format      ascii;
    class       volScalarField;
    location    "26.0007";
    object      p;
}
// * * * * * * * * * * * * * * * * * * * * * * * * * * * * * * * * * * * * * //

dimensions      [0 2 -2 0 0 0 0];

internalField   nonuniform List<scalar> 
18750
(
-0.0171274
-0.0266091
-0.0431278
-0.0674751
-0.0981159
-0.134358
-0.175261
-0.220082
-0.268069
-0.318603
-0.371079
-0.42489
-0.479335
-0.53366
-0.587151
-0.0206365
-0.0298767
-0.046172
-0.0703221
-0.100795
-0.136894
-0.177676
-0.222387
-0.270266
-0.320691
-0.373065
-0.426786
-0.481136
-0.535315
-0.588585
-0.0276486
-0.0364095
-0.0522589
-0.0760164
-0.106157
-0.141976
-0.182521
-0.227022
-0.274699
-0.324922
-0.377106
-0.430663
-0.484846
-0.538773
-0.59165
-0.0378852
-0.0459549
-0.0611511
-0.0843329
-0.113983
-0.149388
-0.189579
-0.233764
-0.281136
-0.331051
-0.382937
-0.436226
-0.490151
-0.543728
-0.596084
-0.0509474
-0.0581481
-0.0725061
-0.0949493
-0.123965
-0.158825
-0.198545
-0.242303
-0.289261
-0.338751
-0.390211
-0.443103
-0.496655
-0.549793
-0.601547
-0.0663402
-0.0725247
-0.0858928
-0.107466
-0.135722
-0.169917
-0.20905
-0.25227
-0.2987
-0.347643
-0.398538
-0.450883
-0.503931
-0.55655
-0.607664
-0.0835119
-0.0885315
-0.100814
-0.121427
-0.148825
-0.182252
-0.22069
-0.263261
-0.309052
-0.357329
-0.407522
-0.459167
-0.511572
-0.563595
-0.614066
-0.101849
-0.105574
-0.116739
-0.136348
-0.16282
-0.195394
-0.233042
-0.274865
-0.319915
-0.367418
-0.416785
-0.467587
-0.519211
-0.570568
-0.620417
-0.120684
-0.123054
-0.133138
-0.151741
-0.177248
-0.20891
-0.245694
-0.286682
-0.330902
-0.377541
-0.425983
-0.475822
-0.526542
-0.577164
-0.626429
-0.139342
-0.140386
-0.149499
-0.167132
-0.191667
-0.222385
-0.258251
-0.298336
-0.341655
-0.387363
-0.434811
-0.4836
-0.533314
-0.583134
-0.631853
-0.157182
-0.157025
-0.165352
-0.182078
-0.205663
-0.235434
-0.270353
-0.309491
-0.351855
-0.396586
-0.443001
-0.490692
-0.539324
-0.588275
-0.636479
-0.173611
-0.172506
-0.180276
-0.196176
-0.218865
-0.247713
-0.281681
-0.319846
-0.361224
-0.40495
-0.45032
-0.496904
-0.544413
-0.592421
-0.640116
-0.188129
-0.186512
-0.193899
-0.209074
-0.230953
-0.258924
-0.291958
-0.329147
-0.369524
-0.412233
-0.456563
-0.502062
-0.548449
-0.595443
-0.642584
-0.20031
-0.198848
-0.205887
-0.22048
-0.241663
-0.26882
-0.300951
-0.337179
-0.376556
-0.418247
-0.461551
-0.506007
-0.551318
-0.597252
-0.643691
-0.210159
-0.209117
-0.215972
-0.230178
-0.250794
-0.277204
-0.308475
-0.343767
-0.382154
-0.422836
-0.465128
-0.508582
-0.552904
-0.597807
-0.643218
-0.217688
-0.217144
-0.224063
-0.238031
-0.2582
-0.283929
-0.314386
-0.348769
-0.386181
-0.425871
-0.467166
-0.509642
-0.553051
-0.597072
-0.641117
-0.222985
-0.222973
-0.230145
-0.244024
-0.26379
-0.288902
-0.318588
-0.352079
-0.38853
-0.427243
-0.467561
-0.50907
-0.551588
-0.594901
-0.637583
-0.226306
-0.226812
-0.234259
-0.248123
-0.267566
-0.292108
-0.321022
-0.353618
-0.389116
-0.426858
-0.466222
-0.506782
-0.548428
-0.591043
-0.632724
-0.228069
-0.228957
-0.236531
-0.250356
-0.269518
-0.29351
-0.321665
-0.353356
-0.387888
-0.424649
-0.463075
-0.502704
-0.543438
-0.585505
-0.626274
-0.228779
-0.229721
-0.237128
-0.250818
-0.26969
-0.293125
-0.320507
-0.351275
-0.384812
-0.420559
-0.458048
-0.496785
-0.53652
-0.578228
-0.618018
-0.228897
-0.229366
-0.236235
-0.249658
-0.268186
-0.291016
-0.317577
-0.347378
-0.379872
-0.414544
-0.451052
-0.488986
-0.527594
-0.569092
-0.60787
-0.228685
-0.228018
-0.234046
-0.247069
-0.265143
-0.28728
-0.312941
-0.341693
-0.373072
-0.406585
-0.441993
-0.479257
-0.516596
-0.557975
-0.595787
-0.228098
-0.225651
-0.230802
-0.243279
-0.260725
-0.282045
-0.306702
-0.334283
-0.36443
-0.396709
-0.430786
-0.467534
-0.503487
-0.544807
-0.581723
-0.226848
-0.222277
-0.226843
-0.23854
-0.255109
-0.275464
-0.298993
-0.325243
-0.353975
-0.384983
-0.417387
-0.453733
-0.488232
-0.529561
-0.565705
-0.224685
-0.218296
-0.222582
-0.233111
-0.248511
-0.267732
-0.28998
-0.314717
-0.341737
-0.371481
-0.40183
-0.437773
-0.470809
-0.512141
-0.547881
-0.221631
-0.214586
-0.218374
-0.227268
-0.241213
-0.259103
-0.279853
-0.302899
-0.327781
-0.356238
-0.384241
-0.419599
-0.451286
-0.492372
-0.528294
-0.217994
-0.211891
-0.214385
-0.221339
-0.233599
-0.249903
-0.268833
-0.290021
-0.312246
-0.339253
-0.364805
-0.399154
-0.429958
-0.470225
-0.506921
-0.21444
-0.210193
-0.210697
-0.215766
-0.226129
-0.240542
-0.257183
-0.276303
-0.295426
-0.320487
-0.343801
-0.376247
-0.407182
-0.445875
-0.483959
-0.211436
-0.208899
-0.207603
-0.211077
-0.219291
-0.231486
-0.245283
-0.261942
-0.27771
-0.299989
-0.321624
-0.350802
-0.383011
-0.419339
-0.460002
-0.209143
-0.207611
-0.205546
-0.207637
-0.213517
-0.223245
-0.233623
-0.24718
-0.259613
-0.277791
-0.298817
-0.323029
-0.357728
-0.389651
-0.4366
-0.207473
-0.206317
-0.204573
-0.205451
-0.209139
-0.21627
-0.222903
-0.23229
-0.241689
-0.254366
-0.2754
-0.294222
-0.330903
-0.358568
-0.406191
-0.206273
-0.205294
-0.204175
-0.204328
-0.206364
-0.210881
-0.213786
-0.218042
-0.224143
-0.230882
-0.251039
-0.266214
-0.301556
-0.329774
-0.374304
-0.205361
-0.204571
-0.203968
-0.204056
-0.205165
-0.207257
-0.2067
-0.205271
-0.207581
-0.208176
-0.227096
-0.239164
-0.276866
-0.301569
-0.348544
-0.204596
-0.204043
-0.203904
-0.204351
-0.205171
-0.205315
-0.201752
-0.194859
-0.192609
-0.188067
-0.203502
-0.215445
-0.25232
-0.278628
-0.328621
-0.203831
-0.203568
-0.203924
-0.204873
-0.205767
-0.204683
-0.198556
-0.187624
-0.179537
-0.172154
-0.180776
-0.195744
-0.22768
-0.261293
-0.309368
-0.202933
-0.203005
-0.20387
-0.205356
-0.20637
-0.204754
-0.19659
-0.183444
-0.169528
-0.160377
-0.164318
-0.180753
-0.208887
-0.24901
-0.289876
-0.201804
-0.202231
-0.203533
-0.205431
-0.206571
-0.204854
-0.195475
-0.181431
-0.163456
-0.152506
-0.154794
-0.171779
-0.197174
-0.238433
-0.275562
-0.200402
-0.201162
-0.202765
-0.204932
-0.206126
-0.204482
-0.194867
-0.18057
-0.161311
-0.149118
-0.150558
-0.16802
-0.191521
-0.229072
-0.265792
-0.198755
-0.199786
-0.201514
-0.20376
-0.204976
-0.203306
-0.194537
-0.180487
-0.162525
-0.150795
-0.150915
-0.167133
-0.189763
-0.222614
-0.25813
-0.196982
-0.198179
-0.199848
-0.201958
-0.2031
-0.201691
-0.194721
-0.182094
-0.165992
-0.155858
-0.155289
-0.168628
-0.190096
-0.218733
-0.251462
-0.195291
-0.196545
-0.198021
-0.19983
-0.200931
-0.200298
-0.196378
-0.186449
-0.171438
-0.162837
-0.161768
-0.172215
-0.191336
-0.216261
-0.245597
-0.19392
-0.195152
-0.196388
-0.197999
-0.199164
-0.199607
-0.199597
-0.192375
-0.178486
-0.169926
-0.168558
-0.17659
-0.192892
-0.214495
-0.240246
-0.193053
-0.194217
-0.195297
-0.196775
-0.198143
-0.19963
-0.202828
-0.197098
-0.185137
-0.176358
-0.174589
-0.180801
-0.194436
-0.212867
-0.235234
-0.192748
-0.193815
-0.19479
-0.196191
-0.197746
-0.200142
-0.203333
-0.200381
-0.190153
-0.181754
-0.179624
-0.184364
-0.195605
-0.211141
-0.230459
-0.192935
-0.193872
-0.194751
-0.196024
-0.197448
-0.200747
-0.201205
-0.201327
-0.193319
-0.185914
-0.18357
-0.187054
-0.196254
-0.20921
-0.225787
-0.193474
-0.194241
-0.194964
-0.195966
-0.197147
-0.199834
-0.199568
-0.20031
-0.194748
-0.188766
-0.186419
-0.188888
-0.19631
-0.206982
-0.221175
-0.194216
-0.194777
-0.195248
-0.195797
-0.197233
-0.196485
-0.198475
-0.198741
-0.194904
-0.190374
-0.188209
-0.189882
-0.195763
-0.204465
-0.216564
-0.195046
-0.195389
-0.195497
-0.195573
-0.197288
-0.194062
-0.197038
-0.197076
-0.194282
-0.190925
-0.18901
-0.190103
-0.194659
-0.201647
-0.211914
-0.195906
-0.196052
-0.195639
-0.195956
-0.195156
-0.19403
-0.195628
-0.195388
-0.19322
-0.19065
-0.188955
-0.189609
-0.193024
-0.198552
-0.207209
-0.196787
-0.196762
-0.195748
-0.197155
-0.191914
-0.19414
-0.194593
-0.193808
-0.191888
-0.189755
-0.188178
-0.18847
-0.190913
-0.1952
-0.202416
-0.197732
-0.197472
-0.196299
-0.197886
-0.191576
-0.193675
-0.193588
-0.192338
-0.190395
-0.188401
-0.186818
-0.186768
-0.188361
-0.191599
-0.197526
-0.198796
-0.198113
-0.198038
-0.19608
-0.194105
-0.193657
-0.192623
-0.19091
-0.18877
-0.186697
-0.184987
-0.184575
-0.185421
-0.187767
-0.192515
-0.200026
-0.198795
-0.200748
-0.193116
-0.195537
-0.19395
-0.191795
-0.189484
-0.187018
-0.184713
-0.182773
-0.181968
-0.182134
-0.183704
-0.187368
-0.201373
-0.199906
-0.202796
-0.193396
-0.195623
-0.193939
-0.191046
-0.188068
-0.185146
-0.182491
-0.180238
-0.179005
-0.178544
-0.179428
-0.182075
-0.202817
-0.202117
-0.202711
-0.197887
-0.196414
-0.193747
-0.190213
-0.18659
-0.183144
-0.180058
-0.177426
-0.175737
-0.174691
-0.174943
-0.176631
-0.204382
-0.205647
-0.200601
-0.202075
-0.198065
-0.193657
-0.189282
-0.185014
-0.181007
-0.177428
-0.174367
-0.172196
-0.170597
-0.170262
-0.17105
-0.20608
-0.209861
-0.198281
-0.203383
-0.199302
-0.193691
-0.18834
-0.183337
-0.178721
-0.174609
-0.171077
-0.168409
-0.166283
-0.165393
-0.16535
-0.208174
-0.213283
-0.199641
-0.203042
-0.199659
-0.193582
-0.187368
-0.181572
-0.17629
-0.171601
-0.167567
-0.164389
-0.161757
-0.160343
-0.159557
-0.211042
-0.215032
-0.205391
-0.20369
-0.199538
-0.193156
-0.186263
-0.17969
-0.173703
-0.168401
-0.163838
-0.160142
-0.157026
-0.155119
-0.153685
-0.215025
-0.215036
-0.212551
-0.206285
-0.199722
-0.192489
-0.184931
-0.177629
-0.170935
-0.165001
-0.159887
-0.155672
-0.15209
-0.149726
-0.14774
-0.220508
-0.21406
-0.218397
-0.209851
-0.200542
-0.191802
-0.183371
-0.175335
-0.167946
-0.161377
-0.155706
-0.150976
-0.146951
-0.144167
-0.141708
-0.22769
-0.214609
-0.222232
-0.213278
-0.201763
-0.191209
-0.181629
-0.172777
-0.164694
-0.157502
-0.15128
-0.146046
-0.141602
-0.138433
-0.135565
-0.236292
-0.219327
-0.224854
-0.215941
-0.202912
-0.190621
-0.179724
-0.169949
-0.161149
-0.153345
-0.146588
-0.140872
-0.136036
-0.132513
-0.129279
-0.245622
-0.228565
-0.22764
-0.217689
-0.203565
-0.189816
-0.177604
-0.166838
-0.157291
-0.148883
-0.14161
-0.135438
-0.130237
-0.126387
-0.122824
-0.254465
-0.240221
-0.231393
-0.21876
-0.203495
-0.188562
-0.175167
-0.163413
-0.153103
-0.144094
-0.136325
-0.129724
-0.124187
-0.120039
-0.116188
-0.261548
-0.250974
-0.235776
-0.21945
-0.202683
-0.186707
-0.172298
-0.159624
-0.148564
-0.138963
-0.130714
-0.123709
-0.117861
-0.113451
-0.109367
-0.266015
-0.258751
-0.2395
-0.21977
-0.201227
-0.18421
-0.168914
-0.155416
-0.143647
-0.133473
-0.124761
-0.117371
-0.111234
-0.106599
-0.102355
-0.267897
-0.263224
-0.241795
-0.219504
-0.199203
-0.181099
-0.164979
-0.150743
-0.138323
-0.127608
-0.118452
-0.110694
-0.104279
-0.099449
-0.0951211
-0.268219
-0.265038
-0.242521
-0.218459
-0.196611
-0.177411
-0.160485
-0.145574
-0.132564
-0.121349
-0.111776
-0.103666
-0.0969843
-0.0919726
-0.0875892
-0.268002
-0.265079
-0.241833
-0.21654
-0.193408
-0.173156
-0.155436
-0.139892
-0.126346
-0.114677
-0.104719
-0.0962844
-0.0893566
-0.0841641
-0.0796338
-0.267903
-0.264094
-0.23999
-0.213738
-0.189541
-0.168319
-0.14983
-0.133685
-0.11965
-0.107571
-0.0972661
-0.0885469
-0.081419
-0.0760659
-0.0711136
-0.268176
-0.262514
-0.237214
-0.210083
-0.184968
-0.162869
-0.143652
-0.126941
-0.11246
-0.100015
-0.089404
-0.0804514
-0.0731959
-0.0677538
-0.0619644
-0.268755
-0.260542
-0.233668
-0.205613
-0.179659
-0.156768
-0.136877
-0.119643
-0.104762
-0.0919975
-0.0811279
-0.0720014
-0.0647025
-0.0592605
-0.0523157
-0.269368
-0.258237
-0.229436
-0.200349
-0.173584
-0.149972
-0.129472
-0.111769
-0.0965414
-0.0835162
-0.072447
-0.0632124
-0.055955
-0.0504715
-0.0425362
-0.269627
-0.255544
-0.224532
-0.194282
-0.166709
-0.14244
-0.121404
-0.103298
-0.0877908
-0.0745793
-0.063382
-0.0541144
-0.046973
-0.041155
-0.0329078
-0.269149
-0.25224
-0.218886
-0.187377
-0.158995
-0.134135
-0.112646
-0.0942205
-0.0785093
-0.0652004
-0.0539521
-0.0447495
-0.0376837
-0.031399
-0.023364
-0.267624
-0.247956
-0.212366
-0.179576
-0.150405
-0.125027
-0.103187
-0.084542
-0.0687106
-0.0553832
-0.044156
-0.0350807
-0.0280304
-0.0213612
-0.0138044
-0.264753
-0.242408
-0.204817
-0.170809
-0.140906
-0.115107
-0.0930357
-0.0742782
-0.0584209
-0.045092
-0.0339827
-0.0250733
-0.0180035
-0.011146
-0.00416245
-0.260303
-0.235402
-0.196095
-0.161009
-0.130476
-0.104387
-0.082208
-0.0634255
-0.0475933
-0.0343461
-0.023427
-0.0147107
-0.00763586
-0.000785602
0.00558826
-0.25409
-0.226809
-0.186078
-0.150123
-0.119121
-0.0928881
-0.0706875
-0.05195
-0.0362271
-0.0231575
-0.012491
-0.00399682
0.00302306
0.00973409
0.0154562
-0.245996
-0.216564
-0.17467
-0.138121
-0.106866
-0.0805876
-0.0584437
-0.0398498
-0.0243335
-0.0115357
-0.00118326
0.0070534
0.0139481
0.02043
0.025444
-0.235956
-0.204672
-0.161797
-0.124996
-0.0936979
-0.0674527
-0.0454774
-0.0271345
-0.0119279
0.000506535
0.0104825
0.0184226
0.0251312
0.031313
0.0355437
-0.223953
-0.191197
-0.14744
-0.110737
-0.0795553
-0.053491
-0.0318032
-0.0138214
0.000971768
0.012954
0.022492
0.0300963
0.0365631
0.0423731
0.0457233
-0.210001
-0.176187
-0.13168
-0.0952605
-0.0644314
-0.0387206
-0.0174449
6.63358e-05
0.0143445
0.0257908
0.0348351
0.0420637
0.0482194
0.0535523
0.0559299
-0.19415
-0.159575
-0.114641
-0.0785917
-0.0483411
-0.0231659
-0.00243196
0.0145001
0.028167
0.0390032
0.0475081
0.0543179
0.0600575
0.0647341
0.066063
-0.176497
-0.141132
-0.0964878
-0.0608517
-0.0313293
-0.00685812
0.0132016
0.0294472
0.0424144
0.0525787
0.0605096
0.0668479
0.0720219
0.0757649
0.0758531
-0.157177
-0.12074
-0.0773011
-0.042173
-0.0134669
0.0101607
0.0294177
0.0448727
0.0570602
0.0665042
0.0738316
0.0796247
0.0840426
0.0864768
0.0848303
-0.136296
-0.0986731
-0.0569688
-0.0226424
0.00516304
0.0278361
0.0461731
0.0607391
0.0720773
0.0807605
0.0874459
0.0925861
0.09602
0.0967297
0.0928385
-0.113845
-0.0753743
-0.0354981
-0.00230337
0.0244827
0.0461045
0.0634185
0.0770071
0.0874353
0.0953177
0.101296
0.105634
0.107843
0.106609
0.10082
-0.08978
-0.051263
-0.0130189
0.0188081
0.0444247
0.0648984
0.0810992
0.0936341
0.103099
0.110132
0.115304
0.118663
0.119468
0.116622
0.110684
-0.0642982
-0.026405
0.0103088
0.0406262
0.0649239
0.0841495
0.0991568
0.110573
0.119024
0.125145
0.129395
0.131621
0.130997
0.127055
0.124151
-0.0376171
-0.000803041
0.0343444
0.0630555
0.0859078
0.103789
0.11753
0.127771
0.135158
0.140295
0.143515
0.144532
0.142645
0.138178
0.137316
-0.00994714
0.0254894
0.0589676
0.0859889
0.107295
0.123745
0.136155
0.14517
0.151439
0.15552
0.157634
0.15746
0.154549
0.149954
0.149835
0.0185254
0.0523765
0.0840657
0.109317
0.128997
0.143943
0.154965
0.162706
0.167808
0.170769
0.171739
0.17043
0.166651
0.161955
0.16178
0.0476213
0.0797321
0.109525
0.132933
0.15092
0.164303
0.173889
0.180315
0.184202
0.185999
0.18582
0.183446
0.178916
0.174012
0.173299
0.077171
0.107419
0.135228
0.156729
0.17297
0.184745
0.192855
0.197929
0.200564
0.201171
0.199849
0.196452
0.191188
0.185929
0.184531
0.107007
0.135295
0.161053
0.180598
0.195052
0.205183
0.211788
0.215482
0.21684
0.216244
0.213796
0.209414
0.203419
0.19767
0.195498
0.136967
0.163217
0.186878
0.204433
0.21707
0.225534
0.230612
0.232907
0.232973
0.231171
0.227605
0.222246
0.215501
0.209198
0.206237
0.16689
0.191047
0.21258
0.228125
0.23893
0.245712
0.249253
0.250139
0.248909
0.245905
0.241239
0.234918
0.227403
0.220478
0.216712
0.19662
0.218646
0.238039
0.251569
0.260535
0.265635
0.267635
0.267113
0.264588
0.260389
0.25463
0.247352
0.239067
0.231509
0.22692
0.226003
0.245881
0.263134
0.274658
0.281794
0.285218
0.285687
0.283764
0.279956
0.274578
0.267743
0.25952
0.250456
0.242234
0.236821
0.254891
0.272621
0.287751
0.29729
0.302614
0.304379
0.303334
0.300027
0.294952
0.288409
0.280515
0.271366
0.261541
0.25265
0.246393
0.283141
0.298742
0.311776
0.319365
0.322905
0.323041
0.320507
0.315841
0.309523
0.30184
0.292911
0.282852
0.272271
0.262702
0.255604
0.310613
0.324121
0.335102
0.340784
0.342583
0.341125
0.337136
0.331143
0.32361
0.314814
0.304878
0.293942
0.282628
0.272377
0.264428
0.337175
0.348641
0.357624
0.361456
0.361561
0.358557
0.353156
0.345875
0.337164
0.327289
0.316376
0.30459
0.292561
0.281634
0.27284
0.362701
0.372192
0.379242
0.381289
0.379762
0.375265
0.368501
0.359977
0.350128
0.339214
0.327368
0.31477
0.30205
0.290448
0.280816
0.38707
0.394667
0.399861
0.400201
0.397108
0.391181
0.383113
0.373397
0.362459
0.350549
0.337808
0.324437
0.311056
0.298792
0.288334
0.410167
0.415968
0.419393
0.418109
0.413528
0.406241
0.396931
0.386081
0.374107
0.361253
0.347668
0.333566
0.31955
0.306638
0.295374
0.431888
0.435999
0.437752
0.434938
0.428954
0.420383
0.409902
0.397983
0.38503
0.371285
0.356906
0.34212
0.327505
0.313965
0.301919
0.452132
0.454675
0.454862
0.450619
0.443321
0.433552
0.421974
0.409055
0.395188
0.380612
0.365494
0.350072
0.334892
0.32075
0.307952
0.470806
0.471915
0.470649
0.465085
0.456574
0.445693
0.433102
0.419256
0.404541
0.389197
0.3734
0.357393
0.341687
0.326971
0.313461
0.487826
0.487648
0.485051
0.478279
0.468656
0.45676
0.44324
0.428547
0.413058
0.397012
0.380597
0.364059
0.347868
0.332613
0.318432
0.503115
0.501811
0.498008
0.490146
0.47952
0.466707
0.452351
0.436893
0.420705
0.404029
0.387061
0.370046
0.353414
0.337659
0.322858
0.516609
0.514345
0.509469
0.500637
0.489122
0.475497
0.460399
0.444262
0.427456
0.410222
0.392766
0.375333
0.358307
0.342095
0.32673
0.528268
0.525188
0.519382
0.509708
0.497422
0.483093
0.467352
0.450628
0.433286
0.41557
0.397695
0.3799
0.362529
0.34591
0.330044
0.538055
0.534285
0.527703
0.517322
0.504387
0.489466
0.473185
0.455967
0.438173
0.420053
0.401828
0.383732
0.366067
0.349094
0.332797
0.545933
0.541598
0.534396
0.523445
0.509989
0.494591
0.477875
0.460258
0.442102
0.423657
0.40515
0.386813
0.368908
0.351642
0.334991
0.551867
0.5471
0.539434
0.528055
0.514205
0.498448
0.481404
0.463487
0.445057
0.426367
0.40765
0.389131
0.371043
0.35355
0.336628
0.555829
0.550771
0.542796
0.531131
0.517019
0.501023
0.483759
0.465642
0.447028
0.428175
0.409318
0.390678
0.372467
0.354818
0.337713
0.557801
0.552599
0.544469
0.532662
0.51842
0.502304
0.48493
0.466713
0.448009
0.429075
0.410148
0.391447
0.373174
0.355447
0.33825
0.557775
0.552575
0.544447
0.532642
0.518402
0.502287
0.484915
0.466699
0.447996
0.429063
0.410137
0.391437
0.373164
0.355437
0.338241
0.555751
0.550699
0.54273
0.531071
0.516965
0.500972
0.483712
0.465599
0.446989
0.428139
0.409284
0.390645
0.372436
0.35479
0.337687
0.551737
0.54698
0.539324
0.527955
0.514114
0.498364
0.481326
0.463416
0.444991
0.426306
0.407593
0.389077
0.370992
0.353503
0.336585
0.545752
0.54143
0.534243
0.523306
0.509861
0.494474
0.477767
0.460159
0.442009
0.423571
0.40507
0.386737
0.368837
0.351576
0.334931
0.537823
0.534069
0.527507
0.517143
0.504223
0.489315
0.473046
0.455839
0.438055
0.419943
0.401725
0.383635
0.365976
0.34901
0.33272
0.527984
0.524926
0.519143
0.50949
0.497222
0.482909
0.467183
0.450472
0.433141
0.415436
0.397569
0.379782
0.362418
0.345807
0.32995
0.516275
0.514036
0.509187
0.50038
0.488886
0.47528
0.460199
0.444078
0.427285
0.410064
0.392618
0.375194
0.358176
0.341973
0.326619
0.50273
0.501455
0.497685
0.489851
0.479249
0.466459
0.452122
0.436681
0.420509
0.403847
0.38689
0.369886
0.353264
0.337518
0.322729
0.487391
0.487247
0.484686
0.477946
0.46835
0.456479
0.442982
0.428308
0.412836
0.396807
0.380405
0.363879
0.347698
0.332454
0.318286
0.470321
0.47147
0.470244
0.464714
0.456234
0.445381
0.432814
0.41899
0.404295
0.388968
0.373186
0.357192
0.341498
0.326794
0.313297
0.451598
0.454186
0.454416
0.450211
0.442948
0.433208
0.421658
0.408762
0.394917
0.38036
0.365258
0.34985
0.334683
0.320554
0.307772
0.431306
0.435467
0.437267
0.434494
0.428547
0.420009
0.409557
0.397664
0.384735
0.37101
0.356649
0.341879
0.327277
0.313752
0.301721
0.409539
0.415393
0.418868
0.417629
0.413089
0.405837
0.396558
0.385737
0.373788
0.360956
0.34739
0.333305
0.319304
0.306407
0.29516
0.386396
0.394051
0.399299
0.399686
0.396637
0.390748
0.382713
0.373027
0.362116
0.35023
0.33751
0.324157
0.310792
0.298544
0.288103
0.361983
0.371535
0.378642
0.380741
0.37926
0.374803
0.368075
0.359582
0.349763
0.338874
0.327049
0.314472
0.301768
0.290182
0.280569
0.336414
0.347944
0.356988
0.360874
0.361028
0.358067
0.352704
0.345456
0.336775
0.326927
0.316038
0.304273
0.292262
0.281351
0.272577
0.30981
0.323386
0.334432
0.340171
0.34202
0.340607
0.336658
0.330701
0.3232
0.314432
0.304521
0.293607
0.282311
0.272078
0.264149
0.282297
0.29797
0.311072
0.31872
0.322314
0.322497
0.320005
0.315376
0.309092
0.301438
0.292535
0.282499
0.271937
0.262387
0.255309
0.254009
0.271815
0.287014
0.296616
0.301995
0.30381
0.302808
0.29954
0.2945
0.287987
0.280121
0.270995
0.261191
0.252319
0.246083
0.225084
0.24504
0.262366
0.273956
0.281149
0.284624
0.285138
0.283255
0.279483
0.274137
0.267331
0.259132
0.25009
0.241887
0.236496
0.195666
0.217773
0.237241
0.250839
0.259865
0.265017
0.267065
0.266584
0.264096
0.25993
0.254201
0.246948
0.238685
0.231147
0.226581
0.165904
0.190143
0.211755
0.227369
0.238235
0.245072
0.248661
0.24959
0.248398
0.245428
0.240793
0.234498
0.227006
0.220102
0.216359
0.13595
0.162285
0.186026
0.203652
0.216353
0.224872
0.23
0.232339
0.232445
0.230677
0.227143
0.221811
0.215089
0.208807
0.20587
0.105961
0.134336
0.160176
0.179794
0.194313
0.204501
0.211157
0.214895
0.216294
0.215734
0.213318
0.208964
0.202993
0.197265
0.195118
0.0760987
0.106435
0.134327
0.155904
0.17221
0.184043
0.192206
0.197325
0.200002
0.200645
0.199356
0.195987
0.190747
0.18551
0.184138
0.046525
0.0787256
0.108603
0.132087
0.150141
0.163584
0.173223
0.179695
0.183624
0.185458
0.185313
0.182968
0.178462
0.17358
0.172893
0.0174077
0.0513495
0.0831241
0.108453
0.1282
0.143207
0.154283
0.162071
0.167214
0.170214
0.171218
0.169938
0.166184
0.161508
0.161361
-0.0110833
0.0244441
0.0580082
0.0851078
0.106483
0.122994
0.135458
0.14452
0.150832
0.154951
0.1571
0.156956
0.154069
0.149494
0.149401
-0.0387688
-0.00186468
0.0333691
0.0621594
0.0850811
0.103023
0.116819
0.127108
0.134537
0.139713
0.142967
0.144016
0.142153
0.137705
0.136865
-0.0654621
-0.0274813
0.00931964
0.0397169
0.0640841
0.083371
0.0984327
0.109897
0.118391
0.124551
0.128835
0.131092
0.130494
0.12657
0.12368
-0.0909522
-0.0523528
-0.0140197
0.0178877
0.0435735
0.0641083
0.0803634
0.0929466
0.102454
0.109525
0.114732
0.118123
0.118954
0.116125
0.110192
-0.115021
-0.0764767
-0.0365077
-0.00323311
0.0236213
0.0453041
0.0626723
0.076309
0.0867799
0.0947004
0.100713
0.105083
0.107318
0.106101
0.100317
-0.137474
-0.0997847
-0.0579842
-0.02358
0.00429299
0.0270267
0.0454177
0.0600314
0.071412
0.080133
0.0868526
0.0920238
0.0954844
0.0962131
0.0923315
-0.158355
-0.121855
-0.0783199
-0.043117
-0.0143441
0.0093437
0.0286542
0.0441564
0.056386
0.0658672
0.0732283
0.0790522
0.0834972
0.0859526
0.0843212
-0.177673
-0.142245
-0.0975092
-0.0618008
-0.0322119
-0.00768132
0.012431
0.0287234
0.041732
0.0519332
0.0598973
0.0662661
0.0714676
0.0752337
0.0753404
-0.19532
-0.16068
-0.115666
-0.0795437
-0.0492273
-0.023994
-0.00320847
0.0137696
0.0274775
0.03835
0.0468876
0.0537275
0.0594949
0.0641959
0.0655448
-0.211161
-0.177286
-0.132705
-0.0962125
-0.0653197
-0.0395524
-0.0182262
-0.000669893
0.0136486
0.0251308
0.0342073
0.0414656
0.0476489
0.0530068
0.0554053
-0.225101
-0.192288
-0.148461
-0.111686
-0.0804444
-0.0543253
-0.0325884
-0.0145624
0.000270241
0.0122878
0.0218575
0.0294909
0.0359849
0.04182
0.0451921
-0.237089
-0.205755
-0.162812
-0.125942
-0.0945865
-0.0682884
-0.0462653
-0.0278795
-0.0126343
-0.000165254
0.00984179
0.0178104
0.0245456
0.0307521
0.0350058
-0.24711
-0.217634
-0.175675
-0.139064
-0.107753
-0.0814234
-0.0592334
-0.0405979
-0.0250441
-0.0122126
-0.00182969
0.0064348
0.0133552
0.0198615
0.0248991
-0.255183
-0.227865
-0.187073
-0.151061
-0.120006
-0.0937233
-0.0714783
-0.0527004
-0.0369411
-0.0238391
-0.0131429
-0.00462139
0.00242326
0.00915819
0.0149046
-0.261372
-0.236442
-0.197079
-0.161941
-0.131358
-0.105221
-0.0829992
-0.0641774
-0.0483099
-0.0350323
-0.024084
-0.0153407
-0.0082421
-0.0013687
0.00503009
-0.265798
-0.24343
-0.20579
-0.171733
-0.141783
-0.11594
-0.0938274
-0.0750313
-0.0591391
-0.0457827
-0.0346443
-0.0257083
-0.0186155
-0.0117364
-0.00472705
-0.268643
-0.24896
-0.213327
-0.180493
-0.151278
-0.125858
-0.103979
-0.0852967
-0.06943
-0.056078
-0.0448216
-0.0357206
-0.028647
-0.0219592
-0.0143755
-0.270143
-0.253225
-0.219835
-0.188286
-0.159863
-0.134962
-0.113437
-0.0949767
-0.0792327
-0.0658962
-0.0546208
-0.0453941
-0.0383044
-0.0320047
-0.0239418
-0.270597
-0.256512
-0.22547
-0.195183
-0.167571
-0.143265
-0.122193
-0.104055
-0.0885168
-0.0752764
-0.0640538
-0.0547632
-0.047598
-0.0417675
-0.0334934
-0.270315
-0.259192
-0.230365
-0.201242
-0.174441
-0.150793
-0.130259
-0.112525
-0.0972687
-0.084215
-0.0731216
-0.0638651
-0.0565852
-0.0510887
-0.0431313
-0.269684
-0.261486
-0.234589
-0.2065
-0.18051
-0.157585
-0.137662
-0.120399
-0.10549
-0.0926981
-0.0818044
-0.0726577
-0.0653379
-0.0598806
-0.0529226
-0.269091
-0.263449
-0.238128
-0.210963
-0.185814
-0.163683
-0.144435
-0.127696
-0.113189
-0.100718
-0.0900824
-0.0811103
-0.0738365
-0.0683779
-0.0625792
-0.268811
-0.265024
-0.240896
-0.214611
-0.190381
-0.169129
-0.150611
-0.134439
-0.120379
-0.108276
-0.0979473
-0.0892083
-0.082064
-0.0766943
-0.0717328
-0.268907
-0.266005
-0.242732
-0.217405
-0.194242
-0.173962
-0.156215
-0.140644
-0.127074
-0.115383
-0.105403
-0.0969493
-0.0900053
-0.0847966
-0.0802557
-0.269124
-0.265959
-0.243412
-0.219317
-0.19744
-0.178213
-0.161261
-0.146325
-0.133292
-0.122056
-0.112463
-0.104334
-0.0976364
-0.0926094
-0.0882138
-0.268802
-0.264135
-0.242674
-0.220353
-0.200026
-0.181897
-0.165752
-0.151493
-0.139051
-0.128316
-0.119141
-0.111365
-0.104934
-0.10009
-0.0957492
-0.266914
-0.259642
-0.240363
-0.22061
-0.202045
-0.185004
-0.169685
-0.156165
-0.144375
-0.134181
-0.12545
-0.118045
-0.111892
-0.107244
-0.102987
-0.26243
-0.251832
-0.23662
-0.220282
-0.203495
-0.187498
-0.173065
-0.160371
-0.149291
-0.139671
-0.131405
-0.124384
-0.118522
-0.114099
-0.110003
-0.255322
-0.241037
-0.23222
-0.219583
-0.204301
-0.189347
-0.175931
-0.164158
-0.15383
-0.144803
-0.137017
-0.130401
-0.12485
-0.12069
-0.116827
-0.24645
-0.229343
-0.228456
-0.218505
-0.204364
-0.190596
-0.178365
-0.167581
-0.158017
-0.149592
-0.142304
-0.136117
-0.130902
-0.127041
-0.123467
-0.237094
-0.220084
-0.225664
-0.216748
-0.203702
-0.191395
-0.180482
-0.170691
-0.161874
-0.154054
-0.147283
-0.141552
-0.136703
-0.133169
-0.129926
-0.228472
-0.215368
-0.223036
-0.214073
-0.202545
-0.191978
-0.182384
-0.173517
-0.165418
-0.158211
-0.151975
-0.146728
-0.142272
-0.139092
-0.136214
-0.221273
-0.214832
-0.219186
-0.210631
-0.201317
-0.192568
-0.184124
-0.176074
-0.16867
-0.162086
-0.156402
-0.151659
-0.147622
-0.144828
-0.14236
-0.215784
-0.215815
-0.213315
-0.207054
-0.200493
-0.193252
-0.185681
-0.178366
-0.171659
-0.16571
-0.160584
-0.156357
-0.152763
-0.150389
-0.148394
-0.211796
-0.215813
-0.206128
-0.204454
-0.200307
-0.193917
-0.187012
-0.180425
-0.174426
-0.169111
-0.164535
-0.160828
-0.1577
-0.155783
-0.154342
-0.208926
-0.214056
-0.200365
-0.203808
-0.200427
-0.19434
-0.188114
-0.182307
-0.177013
-0.172311
-0.168264
-0.165075
-0.162431
-0.161008
-0.160216
-0.20683
-0.21062
-0.199011
-0.204151
-0.200065
-0.194445
-0.189085
-0.184071
-0.179444
-0.175319
-0.171775
-0.169096
-0.166958
-0.166059
-0.166011
-0.205128
-0.206392
-0.201347
-0.202831
-0.198818
-0.194407
-0.190025
-0.185748
-0.18173
-0.17814
-0.175065
-0.172883
-0.171272
-0.170929
-0.171712
-0.203559
-0.202853
-0.203463
-0.198618
-0.197159
-0.194494
-0.190955
-0.187324
-0.183869
-0.180771
-0.178125
-0.176423
-0.175365
-0.175609
-0.177294
-0.20211
-0.200638
-0.203544
-0.194109
-0.196364
-0.194683
-0.191787
-0.188803
-0.185872
-0.183206
-0.180938
-0.17969
-0.179217
-0.180093
-0.182738
-0.200758
-0.199524
-0.201485
-0.193834
-0.196274
-0.194688
-0.192534
-0.190222
-0.187748
-0.18543
-0.183472
-0.182651
-0.182803
-0.184366
-0.18803
-0.199524
-0.198839
-0.198762
-0.196809
-0.194826
-0.194388
-0.193361
-0.191651
-0.189504
-0.187417
-0.185686
-0.185254
-0.186084
-0.188424
-0.193175
-0.198454
-0.198193
-0.197016
-0.198616
-0.192277
-0.1944
-0.194328
-0.193085
-0.191136
-0.189124
-0.187515
-0.187441
-0.189017
-0.192249
-0.198183
-0.197504
-0.197478
-0.196461
-0.197877
-0.192615
-0.194859
-0.195336
-0.194565
-0.192638
-0.190481
-0.18887
-0.189134
-0.191558
-0.195841
-0.203069
-0.196617
-0.196764
-0.19635
-0.196668
-0.195867
-0.19474
-0.196377
-0.196158
-0.193982
-0.191378
-0.18964
-0.190259
-0.193655
-0.199182
-0.207855
-0.195751
-0.196095
-0.196205
-0.196283
-0.198004
-0.194769
-0.197799
-0.197865
-0.195058
-0.191654
-0.189684
-0.190735
-0.195271
-0.202261
-0.212551
-0.194913
-0.195477
-0.195953
-0.196508
-0.19795
-0.19721
-0.199254
-0.199555
-0.195694
-0.1911
-0.188866
-0.19049
-0.19635
-0.20506
-0.21719
-0.194162
-0.194933
-0.195665
-0.196679
-0.197873
-0.200591
-0.200369
-0.201155
-0.19555
-0.189481
-0.187049
-0.189463
-0.196866
-0.207553
-0.221788
-0.193614
-0.194557
-0.195447
-0.196738
-0.198183
-0.201529
-0.20204
-0.202205
-0.194125
-0.186609
-0.184165
-0.187587
-0.196772
-0.209752
-0.226384
-0.193418
-0.194494
-0.195482
-0.196905
-0.19849
-0.200936
-0.204213
-0.201277
-0.19095
-0.182416
-0.180171
-0.184844
-0.196075
-0.211649
-0.231038
-0.193719
-0.194893
-0.195989
-0.197492
-0.198893
-0.200432
-0.203728
-0.197986
-0.185903
-0.176971
-0.175072
-0.181213
-0.194848
-0.213334
-0.235793
-0.194588
-0.195832
-0.197088
-0.198727
-0.199928
-0.200418
-0.200482
-0.193229
-0.179196
-0.17047
-0.168959
-0.17692
-0.193235
-0.214916
-0.240783
-0.195969
-0.197239
-0.198739
-0.200581
-0.201722
-0.201127
-0.197232
-0.187247
-0.172064
-0.163293
-0.162065
-0.172447
-0.191601
-0.21663
-0.246112
-0.197677
-0.198893
-0.200592
-0.202743
-0.203934
-0.202557
-0.195555
-0.182834
-0.166539
-0.156204
-0.155467
-0.168753
-0.190274
-0.219046
-0.251956
-0.199471
-0.200522
-0.202285
-0.20458
-0.205858
-0.204226