/*--------------------------------*- C++ -*----------------------------------*\
  =========                 |
  \\      /  F ield         | OpenFOAM: The Open Source CFD Toolbox
   \\    /   O peration     | Website:  https://openfoam.org
    \\  /    A nd           | Version:  7
     \\/     M anipulation  |
\*---------------------------------------------------------------------------*/
FoamFile
{
    version     2.0;
    format      ascii;
    class       surfaceScalarField;
    location    "26.0007";
    object      phi;
}
// * * * * * * * * * * * * * * * * * * * * * * * * * * * * * * * * * * * * * //

dimensions      [0 3 -1 0 0 0 0];

internalField   nonuniform List<scalar> 
37105
(
-1.0789e-05
1.03271e-05
4.61904e-07
-2.52483e-05
1.37909e-05
6.68369e-07
-4.0227e-05
1.42144e-05
7.64272e-07
-5.58428e-05
1.47274e-05
8.88338e-07
-7.21872e-05
1.53115e-05
1.03291e-06
-8.93239e-05
1.5946e-05
1.19074e-06
-0.00010731
1.66302e-05
1.35606e-06
-0.000126186
1.73531e-05
1.5226e-06
-0.000145995
1.81242e-05
1.68518e-06
-0.000166783
1.89496e-05
1.83843e-06
-0.000188604
1.98432e-05
1.97712e-06
-0.000211496
2.07982e-05
2.09412e-06
-0.000235481
2.18036e-05
2.1816e-06
-0.000260573
2.28581e-05
2.23354e-06
2.4019e-05
2.24742e-06
-0.000286839
-1.06318e-05
2.09589e-05
-2.49394e-05
2.80985e-05
-3.97701e-05
2.90451e-05
-5.52233e-05
3.01806e-05
-7.13861e-05
3.14743e-05
-8.83149e-05
3.28748e-05
-0.000106059
3.43743e-05
-0.00012465
3.5944e-05
-0.000144121
3.75954e-05
-0.000164505
3.93338e-05
-0.000185844
4.11815e-05
-0.000208166
4.3121e-05
-0.000231489
4.51261e-05
-0.000255814
4.71836e-05
4.94027e-05
-0.000281198
-1.03166e-05
3.12755e-05
-2.43205e-05
4.21023e-05
-3.88555e-05
4.35802e-05
-5.39848e-05
4.531e-05
-6.97871e-05
4.72766e-05
-8.63043e-05
4.93919e-05
-0.000103571
5.1641e-05
-0.000121602
5.39749e-05
-0.000140411
5.64051e-05
-0.00016001
5.89323e-05
-0.000180416
6.15876e-05
-0.000201644
6.43492e-05
-0.000223702
6.71837e-05
-0.00024658
7.00615e-05
7.3105e-05
-0.000270282
-9.84885e-06
4.11244e-05
-2.34022e-05
5.56557e-05
-3.74998e-05
5.76778e-05
-5.21537e-05
5.99639e-05
-6.74301e-05
6.2553e-05
-8.33512e-05
6.5313e-05
-9.99314e-05
6.82212e-05
-0.000117164
7.12077e-05
-0.00013504
7.42808e-05
-0.000153542
7.74341e-05
-0.000172662
8.0708e-05
-0.000192398
8.40844e-05
-0.000212748
8.75341e-05
-0.000233693
9.10065e-05
9.46028e-05
-0.000255191
-9.23851e-06
5.03629e-05
-2.21996e-05
6.86167e-05
-3.57259e-05
7.12042e-05
-4.97663e-05
7.40042e-05
-6.437e-05
7.71567e-05
-7.95356e-05
8.04786e-05
-9.52546e-05
8.39402e-05
-0.000111497
8.74502e-05
-0.000128229
9.10126e-05
-0.000145406
9.46118e-05
-0.000162997
9.8299e-05
-0.000180982
0.000102069
-0.000199358
0.00010591
-0.000218103
0.000109752
0.000113646
-0.000237146
-8.5123e-06
5.88752e-05
-2.07303e-05
8.08347e-05
-3.35612e-05
8.40351e-05
-4.68666e-05
8.73096e-05
-6.06723e-05
9.09624e-05
-7.49511e-05
9.47575e-05
-8.96707e-05
9.86598e-05
-0.000104779
0.000102558
-0.000120219
0.000106453
-0.000135926
0.000110319
-0.000151848
0.00011422
-0.000167951
0.000118173
-0.000184239
0.000122197
-0.0002007
0.000126213
0.000130208
-0.000217262
-7.65402e-06
6.65292e-05
-1.90034e-05
9.2184e-05
-3.1035e-05
9.60667e-05
-4.35034e-05
9.9778e-05
-5.64081e-05
0.000103867
-6.96972e-05
0.000108047
-8.33157e-05
0.000112278
-9.71912e-05
0.000116434
-0.00011125
0.000120512
-0.00012541
0.00012448
-0.000139607
0.000128416
-0.0001538
0.000132366
-0.000167999
0.000136396
-0.000182221
0.000140435
0.000144399
-0.000196412
-6.65433e-06
7.31836e-05
-1.70295e-05
0.000102559
-2.81782e-05
0.000107215
-3.97275e-05
0.000111327
-5.16504e-05
0.00011579
-6.38739e-05
0.00012027
-7.63224e-05
0.000124727
-8.89067e-05
0.000129018
-0.00010154
0.000133145
-0.000114133
0.000137072
-0.000126611
0.000140894
-0.000138933
0.000144688
-0.000151115
0.000148579
-0.000163206
0.000152525
0.000156383
-0.000175189
-5.53116e-06
7.87147e-05
-1.48269e-05
0.000111855
-2.50234e-05
0.000117412
-3.55901e-05
0.000121894
-4.64707e-05
0.000126671
-5.75762e-05
0.000131376
-6.88142e-05
0.000135965
-8.00812e-05
0.000140285
-9.12813e-05
0.000144345
-0.000102322
0.000148113
-0.000113129
0.000151701
-0.000123656
0.000155216
-0.000133924
0.000158846
-0.000144008
0.000162609
0.00016631
-0.000153935
-4.29593e-06
8.30107e-05
-1.2416e-05
0.000119975
-2.16059e-05
0.000126602
-3.1141e-05
0.000131429
-4.09365e-05
0.000136466
-5.08927e-05
0.000141332
-6.0902e-05
0.000145974
-7.085e-05
0.000150233
-8.06343e-05
0.000154129
-9.01633e-05
0.000157642
-9.93642e-05
0.000160902
-0.000108189
0.000164041
-0.000116649
0.000167306
-0.000124831
0.000170792
0.000174285
-0.000132806
-2.95463e-06
8.59653e-05
-9.81976e-06
0.00012684
-1.79601e-05
0.000134742
-2.64275e-05
0.000139897
-3.51105e-05
0.000145149
-4.39023e-05
0.000150124
-5.26823e-05
0.000154754
-6.13272e-05
0.000158878
-6.97288e-05
0.000162531
-7.77963e-05
0.00016571
-8.54617e-05
0.000168567
-9.26741e-05
0.000171253
-9.94205e-05
0.000174052
-0.000105772
0.000177143
0.000180363
-0.00011185
-1.50057e-06
8.74659e-05
-7.07208e-06
0.000132412
-1.41215e-05
0.000141792
-2.14928e-05
0.000147268
-2.905e-05
0.000152706
-3.6676e-05
0.000157749
-4.42379e-05
0.000162316
-5.16061e-05
0.000166246
-5.86672e-05
0.000169592
-6.53276e-05
0.00017237
-7.15223e-05
0.000174762
-7.72017e-05
0.000176932
-8.23193e-05
0.00017917
-8.68824e-05
0.000181706
0.000184554
-9.10733e-05
1.18238e-07
8.73476e-05
-4.21394e-06
0.000136744
-1.01143e-05
0.000147692
-1.63765e-05
0.00015353
-2.28077e-05
0.000159138
-2.92752e-05
0.000164217
-3.56382e-05
0.000168679
-4.17627e-05
0.000172371
-4.75287e-05
0.000175358
-5.28358e-05
0.000177677
-5.76144e-05
0.000179541
-6.18194e-05
0.000181137
-6.5388e-05
0.000182738
-6.8211e-05
0.000184529
0.0001868
-7.04573e-05
1.4879e-06
8.58597e-05
-1.29854e-06
0.00013953
-5.96951e-06
0.000152363
-1.11185e-05
0.000158679
-1.64326e-05
0.000164452
-2.17555e-05
0.00016954
-2.69427e-05
0.000173866
-3.1859e-05
0.000177287
-3.63742e-05
0.000179873
-4.03795e-05
0.000181683
-4.379e-05
0.000182951
-4.65554e-05
0.000183903
-4.86413e-05
0.000184824
-4.98417e-05
0.000185729
0.000186801
-4.98426e-05
2.99908e-06
8.28606e-05
1.76247e-06
0.000140767
-1.73628e-06
0.000155862
-5.76055e-06
0.000162703
-9.97102e-06
0.000168662
-1.41652e-05
0.000173734
-1.82036e-05
0.000177905
-2.1948e-05
0.000181031
-2.52518e-05
0.000183177
-2.80017e-05
0.000184432
-3.00913e-05
0.000185041
-3.14344e-05
0.000185246
-3.20143e-05
0.000185404
-3.17444e-05
0.000185459
0.000184703
-2.96468e-05
4.54481e-06
7.83158e-05
4.90447e-06
0.000140407
2.63453e-06
0.000158132
-3.7702e-07
0.000165715
-3.47396e-06
0.000171759
-6.55511e-06
0.000176815
-9.47208e-06
0.000180822
-1.20762e-05
0.000183635
-1.42037e-05
0.000185304
-1.57358e-05
0.000185965
-1.65475e-05
0.000185852
-1.65093e-05
0.000185208
-1.55134e-05
0.000184408
-1.37124e-05
0.000183658
0.00018117
-1.01792e-05
6.06273e-06
7.22531e-05
8.05783e-06
0.000138412
7.06914e-06
0.00015912
5.18045e-06
0.000167604
3.08289e-06
0.000173857
1.02094e-06
0.000178877
-8.35135e-07
0.000182678
-2.30546e-06
0.000185106
-3.28566e-06
0.000186285
-3.62314e-06
0.000186302
-3.1811e-06
0.00018541
-1.81347e-06
0.00018384
5.45896e-07
0.000182049
4.24711e-06
0.000179957
0.000176429
8.98848e-06
7.49077e-06
6.47623e-05
1.11659e-05
0.000134737
1.14886e-05
0.000158798
1.06843e-05
0.000168408
9.65322e-06
0.000174888
8.66168e-06
0.000179869
7.87606e-06
0.000183464
7.44804e-06
0.000185534
7.56157e-06
0.000186171
8.36542e-06
0.000185498
1.00007e-05
0.000183775
1.26833e-05
0.000181157
1.65813e-05
0.000178151
2.14222e-05
0.000175116
0.000169768
2.8083e-05
8.74599e-06
5.60163e-05
1.4141e-05
0.000129342
1.58482e-05
0.00015709
1.61397e-05
0.000168116
1.61307e-05
0.000174897
1.61582e-05
0.000179841
1.64059e-05
0.000183216
1.70345e-05
0.000184905
1.82257e-05
0.00018498
2.01561e-05
0.000183568
2.29634e-05
0.000180968
2.68828e-05
0.000177238
3.22619e-05
0.000172772
3.85085e-05
0.00016887
0.000161513
4.67637e-05
9.70981e-06
4.63065e-05
1.68726e-05
0.000122179
2.0077e-05
0.000153886
2.1501e-05
0.000166692
2.2488e-05
0.00017391
2.35032e-05
0.000178826
2.47534e-05
0.000181966
2.64093e-05
0.000183249
2.86521e-05
0.000182737
3.17004e-05
0.00018052
3.56921e-05
0.000176976
4.07707e-05
0.000172159
4.76751e-05
0.000165868
5.54055e-05
0.000161139
0.000151876
6.50426e-05
1.02211e-05
3.60854e-05
1.92298e-05
0.000113171
2.40818e-05
0.000149034
2.66994e-05
0.000164075
2.86777e-05
0.000171931
3.06527e-05
0.000176851
3.28769e-05
0.000179741
3.55327e-05
0.000180593
3.87999e-05
0.00017947
4.29445e-05
0.000176375
4.81615e-05
0.000171759
5.43201e-05
0.000166001
6.27326e-05
0.000157455
7.20579e-05
0.000151814
0.00014082
8.3114e-05
1.01035e-05
2.59819e-05
2.10766e-05
0.000102197
2.77392e-05
0.000142371
3.16456e-05
0.000160168
3.46372e-05
0.00016894
3.7554e-05
0.000173934
4.0721e-05
0.000176574
4.43493e-05
0.000176965
4.86141e-05
0.000175205
5.37923e-05
0.000171197
6.03118e-05
0.00016524
6.75068e-05
0.000158806
7.73416e-05
0.00014762
8.83652e-05
0.00014079
0.00012806
0.000101125
9.26904e-06
1.67128e-05
2.22821e-05
8.91844e-05
3.08879e-05
0.000133765
3.62246e-05
0.000154832
4.02944e-05
0.00016487
4.41451e-05
0.000170084
4.82148e-05
0.000172505
5.27842e-05
0.000172396
5.80453e-05
0.000169944
6.41372e-05
0.000165105
7.2047e-05
0.00015733
8.03039e-05
0.000150549
9.13371e-05
0.000136587
0.000104064
0.000128063
0.000112992
0.000119133
7.83769e-06
8.87515e-06
2.26868e-05
7.43354e-05
3.33299e-05
0.000123122
4.0301e-05
0.000147861
4.55551e-05
0.000159616
5.03529e-05
0.000165286
5.52871e-05
0.00016757
6.07343e-05
0.000166949
6.70228e-05
0.000163656
7.39035e-05
0.000158224
8.3209e-05
0.000148024
9.2746e-05
0.000141012
0.000104833
0.0001245
0.000118571
0.000114325
9.49225e-05
0.00013664
6.09055e-06
2.7846e-06
2.20869e-05
5.8339e-05
3.48527e-05
0.000110357
4.37101e-05
0.000139003
5.03033e-05
0.000153023
5.60767e-05
0.000159512
6.18533e-05
0.000161794
6.80725e-05
0.000160729
7.54568e-05
0.000156271
8.30293e-05
0.000150652
9.35e-05
0.000137554
0.000104543
0.000129969
0.000118301
0.000110742
0.000132199
0.000100427
7.42386e-05
0.000152882
4.28329e-06
-1.49869e-06
2.02955e-05
4.23268e-05
3.52489e-05
9.54032e-05
4.62519e-05
0.000128
5.43638e-05
0.000144911
6.1193e-05
0.000152683
6.7837e-05
0.00015515
7.46657e-05
0.000153901
8.31521e-05
0.000147785
9.15183e-05
0.000142285
0.00010281
0.000126262
0.000114995
0.000117784
0.000131312
9.44255e-05
0.000145604
8.61354e-05
5.15805e-05
0.000168262
2.59857e-06
-4.09726e-06
1.73405e-05
2.75849e-05
3.43449e-05
7.83987e-05
4.76526e-05
0.000114693
5.75188e-05
0.000135044
6.54967e-05
0.000144705
7.31185e-05
0.000147528
8.04685e-05
0.000146551
8.98583e-05
0.000138395
9.92021e-05
0.000132942
0.000111276
0.000114188
0.000123949
0.000105111
0.000142647
7.57282e-05
0.000158194
7.05876e-05
2.71672e-05
0.000182608
1.24267e-06
-5.33993e-06
1.36082e-05
1.52193e-05
3.20131e-05
5.99938e-05
4.75772e-05
9.91285e-05
5.94573e-05
0.000123164
6.87663e-05
0.000135396
7.74653e-05
0.000138829
8.53535e-05
0.000138662
9.53372e-05
0.000128411
0.000105799
0.00012248
0.000118756
0.000101231
0.000131842
9.20247e-05
0.000151706
5.58642e-05
0.000169124
5.31702e-05
1.46508e-06
0.000194826
3.99988e-07
-5.73992e-06
9.74819e-06
5.87113e-06
2.81047e-05
4.16373e-05
4.56694e-05
8.15638e-05
5.98296e-05
0.000109004
7.06206e-05
0.000124605
8.06194e-05
0.00012883
8.92725e-05
0.000130009
9.9266e-05
0.000118418
0.000110772
0.000110974
0.000124688
8.73153e-05
0.000138905
7.78075e-05
0.000157814
3.69548e-05
0.000178234
3.27505e-05
-2.50359e-05
0.000204735
1.6138e-08
-5.75605e-06
6.41608e-06
-5.28805e-07
2.27723e-05
2.52811e-05
4.16633e-05
6.26728e-05
5.81941e-05
9.24732e-05
7.07537e-05
0.000112046
8.18867e-05
0.000117697
9.19937e-05
0.000119902
0.000101896
0.000108516
0.000113822
9.90475e-05
0.000127216
7.3921e-05
0.000144797
6.02267e-05
0.000159495
2.22565e-05
0.000186046
6.19981e-06
-4.69753e-05
0.000207985
-1.15121e-07
-5.64093e-06
3.95687e-06
-4.6008e-06
1.69283e-05
1.23096e-05
3.56522e-05
4.39489e-05
5.40809e-05
7.40445e-05
6.8684e-05
9.74427e-05
8.1e-05
0.000105381
9.2219e-05
0.000108683
0.000102841
9.78938e-05
0.00011567
8.62187e-05
0.00012743
6.21612e-05
0.000147638
4.00189e-05
0.000161219
8.67525e-06
0.000187972
-2.05532e-05
-6.33737e-05
0.00020437
-1.8071e-08
-5.62286e-06
2.60217e-06
-7.22104e-06
1.18205e-05
3.09135e-06
2.83548e-05
2.74146e-05
4.73652e-05
5.50341e-05
6.37944e-05
8.10135e-05
7.73156e-05
9.18601e-05
9.01548e-05
9.58441e-05
0.000100209
8.784e-05
0.000116226
7.02014e-05
0.000124261
5.41261e-05
0.000147633
1.66473e-05
0.000157968
-1.66017e-06
0.000184604
-4.71894e-05
-8.15025e-05
0.000202733
2.04672e-07
-5.82753e-06
2.15427e-06
-9.17064e-06
8.26455e-06
-3.01893e-06
2.11604e-05
1.45187e-05
3.86142e-05
3.75804e-05
5.59884e-05
6.36393e-05
7.00949e-05
7.77536e-05
8.48206e-05
8.11185e-05
9.42788e-05
7.83817e-05
0.000111483
5.29969e-05
0.000120242
4.53679e-05
0.000143902
-7.0137e-06
0.000151237
-8.99515e-06
0.000183116
-7.90676e-05
-8.71725e-05
0.000188786
4.97021e-07
-6.32455e-06
2.1798e-06
-1.08534e-05
6.24405e-06
-7.08318e-06
1.52915e-05
5.4713e-06
2.92336e-05
2.36383e-05
4.57082e-05
4.71646e-05
5.9862e-05
6.35998e-05
7.45657e-05
6.64147e-05
8.57072e-05
6.72402e-05
0.000100165
3.85387e-05
0.000112875
3.26584e-05
0.000130707
-2.48455e-05
0.000141469
-1.97576e-05
0.000171194
-0.000108792
-8.75371e-05
0.000171559
7.34038e-07
-7.05859e-06
2.23407e-06
-1.23535e-05
5.01745e-06
-9.86656e-06
1.08818e-05
-3.93009e-07
2.06163e-05
1.39037e-05
3.40344e-05
3.37466e-05
4.72484e-05
5.03859e-05
6.01139e-05
5.35493e-05
7.19007e-05
5.54534e-05
8.37524e-05
2.6687e-05
9.69772e-05
1.94336e-05
0.000106242
-3.41107e-05
0.000124221
-3.77364e-05
0.000142139
-0.000126711
-0.000120719
0.000175322
7.89356e-07
-7.84795e-06
1.93216e-06
-1.34963e-05
3.70187e-06
-1.16363e-05
7.13304e-06
-3.82418e-06
1.30515e-05
7.98527e-06
2.22907e-05
2.45073e-05
3.30233e-05
3.96533e-05
4.29982e-05
4.35744e-05
5.33184e-05
4.51331e-05
6.30559e-05
1.69496e-05
7.54152e-05
7.07422e-06
8.52938e-05
-4.39893e-05
0.000116813
-6.92554e-05
0.000146504
-0.000156401
-0.000188093
0.000213877
5.78205e-07
-8.42615e-06
1.04649e-06
-1.39645e-05
1.67365e-06
-1.22634e-05
3.11953e-06
-5.27006e-06
5.87561e-06
5.22919e-06
1.10553e-05
1.93276e-05
1.81019e-05
3.26068e-05
2.50145e-05
3.66617e-05
3.24076e-05
3.774e-05
3.94332e-05
9.92394e-06
5.67677e-05
-1.02602e-05
8.30097e-05
-7.02312e-05
0.000133838
-0.000120083
0.000184627
-0.000207191
-0.000250742
0.000247276
8.59652e-08
-8.51212e-06
-4.41394e-07
-1.34372e-05
-1.17572e-06
-1.15291e-05
-1.62726e-06
-4.81852e-06
-1.61058e-06
5.2125e-06
1.50162e-07
1.75669e-05
2.8199e-06
2.9937e-05
6.57679e-06
3.29049e-05
1.20547e-05
3.22621e-05
2.37367e-05
-1.75805e-06
5.84393e-05
-4.49628e-05
0.00010554
-0.000117332
0.000166705
-0.000181249
0.000212677
-0.000253162
-0.000292684
0.000254619
-6.30673e-07
-7.88145e-06
-2.35147e-06
-1.17164e-05
-4.58276e-06
-9.29781e-06
-6.9398e-06
-2.46148e-06
-9.27703e-06
7.54974e-06
-1.12981e-05
1.9588e-05
-1.22693e-05
3.09082e-05
-1.01555e-05
3.0791e-05
2.18628e-06
1.99203e-05
3.16653e-05
-3.12371e-05
8.3722e-05
-9.70196e-05
0.000138208
-0.000171818
0.000190367
-0.000233408
0.000224717
-0.000287512
-0.00032642
0.000258453
-1.43799e-06
-6.44346e-06
-4.39208e-06
-8.7623e-06
-8.10065e-06
-5.58924e-06
-1.22112e-05
1.64909e-06
-1.65536e-05
1.18921e-05
-2.07937e-05
2.3828e-05
-2.30301e-05
3.31447e-05
-1.66504e-05
2.44113e-05
1.13178e-05
-8.04784e-06
5.89641e-05
-7.88833e-05
0.000114963
-0.000153018
0.000162571
-0.000219426
0.000201732
-0.00027257
0.000231526
-0.000317306
-0.000351872
0.000256978
-2.1545e-06
-4.28896e-06
-6.1158e-06
-4.801e-06
-1.09354e-05
-7.69692e-07
-1.61134e-05
6.82711e-06
-2.12076e-05
1.69864e-05
-2.48954e-05
2.75158e-05
-2.3867e-05
3.21162e-05
-6.20539e-06
6.74966e-06
3.63701e-05
-5.06233e-05
8.9096e-05
-0.000131609
0.000137925
-0.000201847
0.000176918
-0.000258419
0.000208482
-0.000304134
0.000231988
-0.000340811
-0.000371291
0.000251407
-2.6027e-06
-1.68626e-06
-7.11145e-06
-2.92255e-07
-1.22993e-05
4.41817e-06
-1.74515e-05
1.19793e-05
-2.15199e-05
2.10547e-05
-2.20325e-05
2.80285e-05
-1.39963e-05
2.408e-05
1.64315e-05
-2.36781e-05
6.55972e-05
-9.97891e-05
0.000113181
-0.000179193
0.000153511
-0.000242177
0.00018557
-0.000290478
0.000209842
-0.000328406
0.000228668
-0.000359637
-0.000388598
0.000245974
-2.68692e-06
1.00066e-06
-7.16556e-06
4.18639e-06
-1.19809e-05
9.23346e-06
-1.60199e-05
1.60183e-05
-1.77409e-05
2.27757e-05
-1.43736e-05
2.46612e-05
2.92609e-06
6.78039e-06
4.2549e-05
-6.3301e-05
8.9827e-05
-0.000147067
0.000130843
-0.00022021
0.000163561
-0.000274895
0.000188651
-0.000315568
0.000208118
-0.000347873
0.000224285
-0.000375803
-0.000402733
0.00023842
-2.43022e-06
3.43089e-06
-6.4008e-06
8.15697e-06
-1.02651e-05
1.30977e-05
-1.25822e-05
1.83355e-05
-1.13839e-05
2.15774e-05
-4.31221e-06
1.75895e-05
2.22444e-05
-1.97762e-05
6.60979e-05
-0.000107155
0.00010833
-0.000189299
0.000142648
-0.000254528
0.000168576
-0.000300822
0.000188679
-0.000335671
0.000204664
-0.000363859
0.000217962
-0.000389101
-0.000415702
0.000230931
-1.94444e-06
5.37532e-06
-5.1082e-06
1.13207e-05
-7.75702e-06
1.57466e-05
-8.29576e-06
1.88742e-05
-4.96531e-06
1.8247e-05
7.58492e-06
5.03925e-06
4.27496e-05
-5.49409e-05
8.50718e-05
-0.000149477
0.000121639
-0.000225866
0.000149561
-0.000282451
0.000170287
-0.000321549
0.000186374
-0.000351758
0.000199449
-0.000376934
0.000211539
-0.000401191
-0.000427434
0.000223271
-1.37188e-06
6.7472e-06
-3.63366e-06
1.35825e-05
-5.1038e-06
1.72167e-05
-4.12315e-06
1.78935e-05
3.16628e-07
1.38072e-05
2.03285e-05
-1.49726e-05
6.17761e-05
-9.63885e-05
9.99311e-05
-0.000187632
0.00013035
-0.000256285
0.000152781
-0.000304881
0.00016926
-0.000338028
0.000182417
-0.000364915
0.000193842
-0.000388359
0.00020455
-0.000411899
-0.000437918
0.000215035
-8.40072e-07
7.58728e-06
-2.2661e-06
1.50085e-05
-2.73876e-06
1.76894e-05
-8.6521e-07
1.602e-05
6.29537e-06
6.64663e-06
3.50536e-05
-4.37308e-05
7.6831e-05
-0.000138166
0.000110498
-0.000221299
0.000135342
-0.000281128
0.000153141
-0.00032268
0.000166496
-0.000351383
0.000177653
-0.000376072
0.000187502
-0.000398208
0.000197302
-0.000421698
-0.000447862
0.000207246
-4.382e-07
8.02548e-06
-1.20906e-06
1.57794e-05
-8.81399e-07
1.73617e-05
1.09206e-06
1.40465e-05
1.41461e-05
-6.40739e-06
5.07477e-05
-8.03325e-05
8.85505e-05
-0.000175969
0.000117264
-0.000250013
0.000137355
-0.000301219
0.000151562
-0.000336887
0.000162547
-0.000362369
0.000172069
-0.000385594
0.000180992
-0.000407131
0.000190101
-0.000430808
-0.000456719
0.000198958
-2.09671e-07
8.23515e-06
-5.11653e-07
1.60814e-05
2.56413e-07
1.65936e-05
3.01429e-06
1.12887e-05
2.40269e-05
-2.742e-05
6.41862e-05
-0.000120492
9.71848e-05
-0.000208967
0.000120865
-0.000273694
0.000137079
-0.000317432
0.000148539
-0.000348347
0.000157767
-0.000371597
0.000166216
-0.000394043
0.000174289
-0.000415204
0.000182593
-0.000439111
-0.000465056
0.00019093
-1.53359e-07
8.38851e-06
-7.8352e-08
1.60064e-05
5.69732e-07
1.59455e-05
7.11616e-06
4.74223e-06
3.67124e-05
-5.70163e-05
7.40773e-05
-0.000157857
0.000102659
-0.000237549
0.000122066
-0.0002931
0.000135133
-0.000330499
0.000144555
-0.00035777
0.000152531
-0.000379573
0.000160018
-0.000401529
0.000167416
-0.000422602
0.000175216
-0.000446911
-0.000472601
0.000182761
-2.12889e-07
8.6014e-06
3.37451e-08
1.57598e-05
4.05886e-07
1.55734e-05
1.33262e-05
-8.17807e-06
4.92076e-05
-9.28977e-05
8.16965e-05
-0.000190346
0.000105537
-0.00026139
0.000121346
-0.000308908
0.000131982
-0.000341135
0.000139902
-0.00036569
0.000146901
-0.000386572
0.000153695
-0.000408323
0.00016054
-0.000429447
0.000167645
-0.000454016
-0.000479531
0.000174574
-3.20032e-07
8.92143e-06
-8.19244e-08
1.55216e-05
1.34086e-06
1.41506e-05
2.14351e-05
-2.82723e-05
5.84913e-05
-0.000129954
8.69053e-05
-0.000218759
0.000106437
-0.000280922
0.000119243
-0.000321715
0.000128004
-0.000349897
0.000134803
-0.000372489
0.000141088
-0.000392857
0.000147249
-0.000414484
0.000153523
-0.000435722
0.000160115
-0.000460608
-0.00048589
0.000166475
-3.54876e-07
9.2763e-06
-3.47975e-07
1.55147e-05
4.57974e-06
9.22291e-06
3.18575e-05
-5.55501e-05
6.5007e-05
-0.000163103
8.97182e-05
-0.000243471
0.000105787
-0.000296991
0.000116146
-0.000332073
0.000123453
-0.000357203
0.000129415
-0.000378451
0.000135089
-0.000398531
0.000140718
-0.000420112
0.000146532
-0.000441536
0.000152515
-0.000466591
-0.00049162
0.000158244
-3.91243e-07
9.66755e-06
-7.30384e-07
1.58539e-05
9.29504e-06
-8.02519e-07
4.15851e-05
-8.78401e-05
7.0079e-05
-0.000191597
9.06302e-05
-0.000264022
0.000103827
-0.000310188
0.000112334
-0.00034058
0.000118541
-0.000363411
0.000123835
-0.000383744
0.000129011
-0.000403707
0.000134155
-0.000425256
0.000139458
-0.00044684
0.000144901
-0.000472034
-0.000496874
0.000150155
-3.93904e-07
1.00615e-05
-5.74444e-07
1.60344e-05
1.47156e-05
-1.60926e-05
4.83432e-05
-0.000121468
7.34073e-05
-0.000216661
9.02664e-05
-0.000280881
0.000100985
-0.000320907
0.000108025
-0.00034762
0.000113379
-0.000368764
0.000118135
-0.000388501
0.000122847
-0.000408419
0.000127533
-0.000429943
0.000132402
-0.000451708
0.0001373
-0.000476931
-0.000501536
0.000141962
-2.57675e-07
1.03191e-05
9.14158e-07
1.48626e-05
2.18855e-05
-3.70639e-05
5.25527e-05
-0.000152135
7.49206e-05
-0.000239029
8.88753e-05
-0.000294836
9.75146e-05
-0.000329546
0.000103378
-0.000353483
0.000108064
-0.000373451
0.000112357
-0.000392793
0.000116649
-0.000412711
0.00012091
-0.000434204
0.000125307
-0.000456105
0.000129671
-0.000481295
-0.000505751
0.000133887
-2.47101e-07
1.05662e-05
3.66097e-06
1.09545e-05
2.91572e-05
-6.25601e-05
5.58635e-05
-0.000178841
7.48964e-05
-0.000258062
8.65111e-05
-0.00030645
9.35892e-05
-0.000336624
9.85288e-05
-0.000358423
0.000102653
-0.000377576
0.000106532
-0.000396672
0.000110416
-0.000416594
0.000114252
-0.000438041
0.000118214
-0.000460067
0.000122086
-0.000485167
-0.000509447
0.000125781
-2.92571e-07
1.08588e-05
6.84762e-06
3.81433e-06
3.50608e-05
-9.07734e-05
5.80863e-05
-0.000201867
7.38583e-05
-0.000273834
8.34297e-05
-0.000316022
8.93086e-05
-0.000342503
9.35389e-05
-0.000362653
9.71951e-05
-0.000381232
0.000100685
-0.000400162
0.000104173
-0.000420083
0.000107606
-0.000441474
0.000111115
-0.000463576
0.000114481
-0.000488533
-0.000512723
0.000117757
-3.07026e-07
1.11658e-05
1.01627e-05
-6.65542e-06
3.887e-05
-0.000119481
5.92415e-05
-0.000222238
7.21334e-05
-0.000286726
7.9889e-05
-0.000323777
8.47948e-05
-0.000347409
8.84658e-05
-0.000366324
9.17099e-05
-0.000384476
9.48275e-05
-0.000403279
9.79257e-05
-0.000423181
0.000100948
-0.000444496
0.000104021
-0.000466648
0.000106929
-0.000491441
-0.000515553
0.000109759
-3.21297e-07
1.14871e-05
1.40681e-05
-2.10449e-05
4.06097e-05
-0.000146022
5.91328e-05
-0.000240761
6.98658e-05
-0.000297459
7.60925e-05
-0.000330004
8.01576e-05
-0.000351474
8.33436e-05
-0.00036951
8.62172e-05
-0.00038735
8.89749e-05
-0.000406037
9.16873e-05
-0.000425893
9.43118e-05
-0.000447121
9.69447e-05
-0.000469281
9.9385e-05
-0.000493881
-0.000517985
0.000101817
-1.69262e-07
1.16564e-05
1.80168e-05
-3.92309e-05
4.17323e-05
-0.000169738
5.79499e-05
-0.000256979
6.70488e-05
-0.000306558
7.2112e-05
-0.000335067
7.5474e-05
-0.000354836
7.82185e-05
-0.000372254
8.07313e-05
-0.000389862
8.31322e-05
-0.000408438
8.54621e-05
-0.000428223
8.76835e-05
-0.000449342
8.98854e-05
-0.000471483
9.18952e-05
-0.000495891
-0.000519996
9.3906e-05
4.20733e-07
1.12357e-05
2.13728e-05
-6.0183e-05
4.22947e-05
-0.00019066
5.61322e-05
-0.000270816
6.37853e-05
-0.000314211
6.79811e-05
-0.000339263
7.07801e-05
-0.000357635
7.31127e-05
-0.000374587
7.52682e-05
-0.000392018
7.73116e-05
-0.000410481
7.92601e-05
-0.000430172
8.10862e-05
-0.000451168
8.28602e-05
-0.000473257
8.44317e-05
-0.000497463
-0.000521591
8.60268e-05
1.3375e-06
9.89815e-06
2.3951e-05
-8.27966e-05
4.22921e-05
-0.000209001
5.39099e-05
-0.000282434
6.02382e-05
-0.000320539
6.37342e-05
-0.000342759
6.60839e-05
-0.000359985
6.80428e-05
-0.000376546
6.98396e-05
-0.000393815
7.15193e-05
-0.000412161
7.30858e-05
-0.000431738
7.45129e-05
-0.000452595
7.58617e-05
-0.000474606
7.70131e-05
-0.000498614
-0.000522759
7.81807e-05
2.73334e-06
7.16482e-06
2.56393e-05
-0.000105703
4.18571e-05
-0.000225218
5.14484e-05
-0.000292025
5.65644e-05
-0.000325655
5.9437e-05
-0.000345632
6.13956e-05
-0.000361943
6.30071e-05
-0.000378157
6.44513e-05
-0.000395259
6.57655e-05
-0.000413475
6.69487e-05
-0.000432921
6.79806e-05
-0.000453627
6.89064e-05
-0.000475532
6.9619e-05
-0.000499327
-0.00052346
7.03206e-05
4.58234e-06
2.58248e-06
2.64832e-05
-0.000127603
4.09939e-05
-0.000239729
4.88252e-05
-0.000299857
5.28499e-05
-0.00032968
5.51388e-05
-0.000347921
5.67293e-05
-0.000363534
5.80098e-05
-0.000379438
5.91068e-05
-0.000396356
6.00537e-05
-0.000414422
6.08523e-05
-0.00043372
6.14857e-05
-0.000454261
6.19878e-05
-0.000476034
6.22675e-05
-0.000499606
-0.000523696
6.2503e-05
6.67309e-06
-4.09061e-06
2.64418e-05
-0.000147372
3.95902e-05
-0.000252878
4.60663e-05
-0.000306333
4.91451e-05
-0.000332759
5.08831e-05
-0.000349659
5.21039e-05
-0.000364755
5.30537e-05
-0.000380388
5.38077e-05
-0.00039711
5.43903e-05
-0.000415005
5.48042e-05
-0.000434134
5.50396e-05
-0.000454496
5.512e-05
-0.000476114
5.49607e-05
-0.000499447
-0.000523455
5.47195e-05
8.93075e-06
-1.30214e-05
2.64137e-05
-0.000164855
3.77691e-05
-0.000264233
4.31268e-05
-0.000311691
4.54478e-05
-0.00033508
4.66846e-05
-0.000350895
4.75335e-05
-0.000365603
4.81483e-05
-0.000381003
4.85594e-05
-0.000397521
4.87781e-05
-0.000415223
4.88071e-05
-0.000434163
4.86402e-05
-0.000454329
4.82971e-05
-0.000475771
4.77105e-05
-0.000498861
-0.000522741
4.69964e-05
1.06599e-05
-2.36812e-05
2.61795e-05
-0.000180375
3.57174e-05
-0.000273771
4.00207e-05
-0.000315994
4.17357e-05
-0.000336795
4.25428e-05
-0.000351703
4.3028e-05
-0.000366089
4.33009e-05
-0.000381275
4.33669e-05
-0.000397587
4.32239e-05
-0.00041508
4.28691e-05
-0.000433808
4.22979e-05
-0.000453758
4.15292e-05
-0.000475003
4.05164e-05
-0.000497848
-0.000521552
3.93273e-05
1.17698e-05
-3.5451e-05
2.55628e-05
-0.000194168
3.34778e-05
-0.000281686
3.68151e-05
-0.000319331
3.80132e-05
-0.000337993
3.84493e-05
-0.000352139
3.85893e-05
-0.000366229
3.85195e-05
-0.000381206
3.82376e-05
-0.000397305
3.77327e-05
-0.000414575
3.69957e-05
-0.000433071
3.60183e-05
-0.000452781
3.48165e-05
-0.000473801
3.3376e-05
-0.000496407
-0.000519907
3.17311e-05
1.22861e-05
-4.77371e-05
2.45954e-05
-0.000206477
3.11015e-05
-0.000288192
3.35774e-05
-0.000321807
3.431e-05
-0.000338725
3.44077e-05
-0.000352236
3.42179e-05
-0.000366039
3.38077e-05
-0.000380795
3.31766e-05
-0.000396674
3.23108e-05
-0.00041371
3.11958e-05
-0.000431956
2.98188e-05
-0.000451404
2.8185e-05
-0.000472167
2.62854e-05
-0.000494508
-0.000517815
2.41932e-05
1.23224e-05
-6.00596e-05
2.33143e-05
-0.000217469
2.86135e-05
-0.000293491
3.03453e-05
-0.000323539
3.06501e-05
-0.00033903
3.04242e-05
-0.00035201
2.99147e-05
-0.000365529
2.91691e-05
-0.00038005
2.81892e-05
-0.000395694
2.69624e-05
-0.000412483
2.54731e-05
-0.000430467
2.37075e-05
-0.000449638
2.16604e-05
-0.00047012
1.92587e-05
-0.000492106
-0.000515264
1.6708e-05
1.20224e-05
-7.2082e-05
2.18012e-05
-0.000227248
2.60572e-05
-0.000297747
2.71446e-05
-0.000324626
2.70526e-05
-0.000338938
2.65092e-05
-0.000351467
2.56838e-05
-0.000364704
2.46061e-05
-0.000378972
2.3279e-05
-0.000394367
2.16926e-05
-0.000410896
1.98316e-05
-0.000428606
1.76868e-05
-0.000447493
1.52586e-05
-0.000467692
1.23567e-05
-0.000489204
-0.000512155
9.24803e-06
1.14903e-05
-8.35723e-05
2.01201e-05
-0.000235877
2.34619e-05
-0.000301089
2.39906e-05
-0.000325155
2.35294e-05
-0.000338477
2.26704e-05
-0.000350608
2.15295e-05
-0.000363563
2.01226e-05
-0.000377565
1.84506e-05
-0.000392695
1.6505e-05
-0.000408951
1.42721e-05
-0.000426373
1.17519e-05
-0.000444973
8.93878e-06
-0.000464879
5.68953e-06
-0.000485955
-0.000508194
1.72867e-06
1.0797e-05
-9.43693e-05
1.8333e-05
-0.000243414
2.08657e-05
-0.000303622
2.09003e-05
-0.00032519
2.009e-05
-0.000337667
1.89156e-05
-0.000349434
1.74569e-05
-0.000362104
1.57213e-05
-0.00037583
1.37068e-05
-0.00039068
1.14038e-05
-0.000406648
8.7981e-06
-0.000423767
5.91015e-06
-0.000442085
2.62356e-06
-0.000461592
-6.13835e-07
-0.000482718
-0.000503635
-5.17304e-06
9.96605e-06
-0.000104335
1.64852e-05
-0.000249933
1.82985e-05
-0.000305435
1.78876e-05
-0.000324779
1.67411e-05
-0.00033652
1.52493e-05
-0.000347942
1.34699e-05
-0.000360325
1.14041e-05
-0.000373764
9.04987e-06
-0.000388326
6.38934e-06
-0.000403987
3.41337e-06
-0.000420791
7.49574e-08
-0.000438747
-3.44882e-06
-0.000458068
-7.4225e-06
-0.000478744
-0.000499149
-1.19089e-05
9.02698e-06
-0.000113362
1.46234e-05
-0.000255529
1.57882e-05
-0.0003066
1.49652e-05
-0.000323956
1.34865e-05
-0.000335041
1.16751e-05
-0.00034613
9.57124e-06
-0.000358221
7.16987e-06
-0.000371362
4.47567e-06
-0.000385632
1.45299e-06
-0.000400964
-1.85604e-06
-0.000417482
-5.45245e-06
-0.00043515
-9.35433e-06
-0.000454166
-1.38827e-05
-0.000474215
-0.000494438
-1.85933e-05
8.15193e-06
-0.000121514
1.27913e-05
-0.000260169
1.33469e-05
-0.000307155
1.21328e-05
-0.000322742
1.03272e-05
-0.000333236
8.19405e-06
-0.000343997
5.7602e-06
-0.000355787
3.01498e-06
-0.000368617
-6.22061e-08
-0.000382555
-3.36033e-06
-0.000397666
-7.00221e-06
-0.00041384
-1.09423e-05
-0.00043121
-1.52427e-05
-0.000449866
-2.01618e-05
-0.000469296
-0.000489405
-2.5195e-05
7.29592e-06
-0.00012881
1.10152e-05
-0.000263888
1.09869e-05
-0.000307127
9.39202e-06
-0.000321147
7.26286e-06
-0.000331107
4.80285e-06
-0.000341537
2.02555e-06
-0.00035301
-1.04749e-06
-0.000365544
-4.37729e-06
-0.000379225
-8.06279e-06
-0.000393981
-1.20486e-05
-0.000409855
-1.63494e-05
-0.000426909
-2.10633e-05
-0.000445152
-2.6294e-05
-0.000464066
-0.000484001
-3.16983e-05
6.45526e-06
-0.000135265
9.30559e-06
-0.000266738
8.71344e-06
-0.000306535
6.74639e-06
-0.00031918
4.29058e-06
-0.000328651
1.48587e-06
-0.000338733
-1.59648e-06
-0.000349928
-4.95767e-06
-0.000362183
-8.64618e-06
-0.000375536
-1.26669e-05
-0.00038996
-1.69976e-05
-0.000405524
-2.16685e-05
-0.000422238
-2.67971e-05
-0.000440023
-3.23101e-05
-0.000458553
-0.000478232