/*--------------------------------*- C++ -*----------------------------------*\
  =========                 |
  \\      /  F ield         | OpenFOAM: The Open Source CFD Toolbox
   \\    /   O peration     | Website:  https://openfoam.org
    \\  /    A nd           | Version:  7
     \\/     M anipulation  |
\*---------------------------------------------------------------------------*/
FoamFile
{
    version     2.0;
    format      ascii;
    class       volScalarField;
    location    "0.15625";
    object      p;
}
// * * * * * * * * * * * * * * * * * * * * * * * * * * * * * * * * * * * * * //

dimensions      [0 2 -2 0 0 0 0];

internalField   nonuniform List<scalar> 
10000
(
1.16325e-08
-1.01821e-05
-3.50072e-05
-6.8862e-05
-0.000107101
-0.000147629
-0.000188323
-0.000227272
-0.000263029
-0.000294623
-0.000321401
-0.000342852
-0.000358541
-0.000368151
-0.000371517
-0.000368611
-0.000359463
-0.00034408
-0.000322456
-0.000294624
-0.000260709
-0.000220897
-0.000175353
-0.00012418
-6.74398e-05
-5.2096e-06
6.24002e-05
0.000135263
0.000213264
0.000296318
0.000384355
0.000477305
0.000575095
0.000677641
0.00078486
0.000896672
0.00101299
0.00113373
0.00125876
0.00138799
0.00152128
0.00165851
0.00179953
0.00194417
0.00209224
0.00224353
0.00239781
0.00255487
0.00271446
0.00287633
0.00304019
0.00320572
0.00337261
0.00354053
0.00370912
0.00387806
0.00404699
0.00421554
0.00438337
0.00455007
0.00471527
0.00487857
0.00503957
0.00519788
0.00535309
0.0055048
0.00565262
0.00579612
0.00593489
0.0060685
0.00619652
0.00631854
0.00643416
0.006543
0.0066447
0.00673891
0.00682532
0.00690364
0.00697362
0.00703504
0.00708771
0.00713151
0.00716636
0.00719227
0.0072093
0.0072176
0.00721741
0.00720906
0.00719301
0.00716986
0.00714036
0.00710545
0.00706634
0.00702449
0.00698173
0.00694032
0.00690303
0.00687322
0.006855
0.00685057
-1.90993e-06
-1.15044e-05
-3.19723e-05
-5.94553e-05
-9.07769e-05
-0.000124056
-0.000157648
-0.000190049
-0.000219935
-0.000246307
-0.000268472
-0.000285923
-0.000298256
-0.000305133
-0.000306303
-0.000301644
-0.000291141
-0.00027481
-0.00025265
-0.000224657
-0.00019087
-0.000151386
-0.000106338
-5.58348e-05
4.6023e-08
6.12336e-05
0.000127644
0.000199186
0.000275777
0.000357338
0.000443791
0.000535058
0.000631058
0.000731718
0.000836965
0.000946725
0.00106091
0.00117944
0.00130217
0.001429
0.00155981
0.00169446
0.00183282
0.00197471
0.00211995
0.00226831
0.00241958
0.00257353
0.00272993
0.00288852
0.00304902
0.00321113
0.00337452
0.00353886
0.00370383
0.00386907
0.00403427
0.00419906
0.00436309
0.00452598
0.00468736
0.00484683
0.00500401
0.00515852
0.00530996
0.00545796
0.00560213
0.00574206
0.00587734
0.00600757
0.00613234
0.00625126
0.00636396
0.00647008
0.00656929
0.00666127
0.00674575
0.00682246
0.00689118
0.00695173
0.00700396
0.00704778
0.00708316
0.00711013
0.00712881
0.00713937
0.00714209
0.00713734
0.00712558
0.00710745
0.00708368
0.00705522
0.00702317
0.00698889
0.00695399
0.00692036
0.00689017
0.00686588
0.0068505
0.0068461
5.83405e-06
-4.4204e-06
-2.25957e-05
-4.65897e-05
-7.39163e-05
-0.000102755
-0.000131741
-0.00015967
-0.000185419
-0.000208047
-0.000226831
-0.000241269
-0.000251001
-0.000255713
-0.000255143
-0.000249102
-0.000237508
-0.000220361
-0.000197677
-0.000169459
-0.000135715
-9.64791e-05
-5.18233e-05
-1.83975e-06
5.33818e-05
0.000113761
0.000179224
0.000249706
0.000325148
0.000405489
0.000490648
0.00058054
0.000675084
0.000774209
0.00087785
0.00098594
0.0010984
0.00121511
0.00133598
0.00146086
0.00158966
0.00172223
0.00185844
0.00199812
0.00214106
0.00228706
0.0024359
0.00258736
0.00274121
0.00289719
0.00305503
0.00321442
0.00337503
0.00353655
0.00369866
0.00386103
0.00402332
0.00418519
0.00434629
0.00450626
0.00466471
0.00482126
0.00497553
0.00512715
0.00527575
0.00542094
0.00556235
0.00569958
0.00583223
0.00595991
0.00608222
0.0061988
0.0063093
0.00641337
0.00651071
0.00660101
0.00668404
0.00675955
0.00682734
0.00688726
0.00693918
0.00698304
0.00701884
0.00704663
0.00706656
0.00707882
0.00708371
0.0070816
0.00707297
0.00705843
0.00703871
0.00701467
0.00698736
0.00695798
0.00692792
0.00689877
0.00687226
0.0068503
0.00683497
0.00682783
2.45027e-05
1.09246e-05
-7.71163e-06
-3.0486e-05
-5.5939e-05
-8.24371e-05
-0.000108688
-0.000133676
-0.00015653
-0.000176442
-0.000192742
-0.000204927
-0.000212626
-0.000215572
-0.000213553
-0.000206384
-0.000193928
-0.00017612
-0.000152957
-0.000124473
-9.06921e-05
-5.16273e-05
-7.3021e-06
4.223e-05
9.68931e-05
0.000156604
0.000221287
0.00029089
0.000365368
0.000444667
0.000528713
0.000617424
0.000710727
0.000808555
0.000910845
0.00101752
0.00112851
0.0012437
0.00136297
0.00148621
0.00161332
0.00174415
0.00187856
0.00201637
0.00215739
0.00230141
0.00244822
0.0025976
0.00274932
0.00290314
0.00305877
0.00321591
0.00337425
0.00353347
0.00369326
0.0038533
0.00401327
0.00417282
0.00433161
0.00448927
0.00464543
0.00479971
0.00495174
0.00510114
0.00524755
0.00539058
0.00552987
0.00566503
0.00579565
0.00592136
0.00604178
0.00615656
0.00626535
0.00636784
0.00646373
0.00655275
0.00663467
0.00670925
0.00677634
0.00683578
0.00688748
0.00693139
0.00696751
0.00699594
0.00701682
0.00703036
0.00703685
0.00703668
0.0070303
0.0070183
0.00700136
0.00698029
0.00695601
0.00692959
0.00690221
0.0068752
0.00684996
0.00682802
0.00681046
0.006798
5.15347e-05
3.22624e-05
1.12027e-05
-1.18267e-05
-3.66141e-05
-6.18876e-05
-8.64618e-05
-0.000109457
-0.000130156
-0.000147932
-0.000162239
-0.0001726
-0.000178634
-0.000180083
-0.000176774
-0.000168567
-0.000155332
-0.000136961
-0.000113411
-8.46983e-05
-5.08576e-05
-1.19077e-05
3.21392e-05
8.12528e-05
0.00013538
0.000194454
0.000258413
0.000327213
0.000400812
0.000479152
0.000562161
0.00064977
0.00074192
0.00083855
0.000939596
0.00104498
0.00115461
0.00126839
0.00138621
0.00150795
0.0016335
0.00176274
0.00189551
0.00203163
0.00217089
0.0023131
0.00245806
0.00260555
0.00275536
0.00290723
0.00306087
0.00321599
0.0033723
0.00352948
0.00368723
0.00384524
0.00400319
0.00416074
0.00431755
0.00447325
0.00462747
0.00477984
0.00492998
0.00507752
0.0052221
0.00536334
0.00550086
0.00563428
0.0057632
0.00588726
0.00600609
0.00611936
0.00622673
0.00632789
0.00642257
0.00651051
0.00659149
0.00666532
0.00673181
0.00679086
0.00684236
0.0068863
0.0069227
0.00695165
0.00697329
0.00698786
0.00699563
0.00699698
0.00699234
0.00698227
0.00696739
0.00694843
0.00692622
0.00690167
0.00687577
0.0068496
0.00682431
0.00680108
0.00677997
0.00676071
8.33728e-05
5.74003e-05
3.272e-05
8.23812e-06
-1.68853e-05
-4.17704e-05
-6.54819e-05
-8.72742e-05
-0.000106536
-0.000122761
-0.000135516
-0.00014442
-0.000149139
-0.000149408
-0.000145051
-0.000135945
-0.000121993
-0.000103114
-7.92509e-05
-5.03838e-05
-1.65179e-05
2.23317e-05
6.6144e-05
0.000114886
0.000168518
0.000226995
0.00029028
0.000358339
0.000431128
0.000508588
0.00059065
0.000677254
0.00076835
0.000863887
0.000963799
0.001068
0.00117641
0.00128891
0.00140541
0.0015258
0.00164996
0.00177777
0.00190905
0.00204364
0.00218133
0.00232193
0.00246523
0.00261105
0.00275916
0.0029093
0.00306119
0.00321455
0.00336908
0.0035245
0.00368051
0.0038368
0.00399305
0.00414893
0.0043041
0.00445818
0.00461081
0.00476161
0.00491022
0.00505627
0.00519937
0.00533917
0.00547526
0.00560728
0.00573484
0.00585757
0.00597513
0.00608717
0.00619338
0.00629348
0.00638718
0.00647426
0.00655449
0.0066277
0.00669372
0.00675244
0.00680379
0.00684776
0.00688436
0.00691371
0.00693595
0.0069513
0.00696003
0.00696251
0.00695914
0.00695043
0.00693695
0.00691936
0.00689838
0.00687478
0.00684939
0.00682306
0.00679673
0.00677131
0.00674588
0.00671922
0.000117196
8.43614e-05
5.54724e-05
2.87056e-05
2.39743e-06
-2.28512e-05
-4.63552e-05
-6.75732e-05
-8.60175e-05
-0.000101252
-0.000112912
-0.000120712
-0.000124406
-0.000123773
-0.000118622
-0.000108817
-9.42795e-05
-7.49638e-05
-5.08328e-05
-2.18504e-05
1.2006e-05
5.07368e-05
9.43193e-05
0.000142718
0.000195899
0.000253838
0.000316512
0.000383893
0.000455938
0.000532592
0.000613795
0.000699495
0.000789651
0.000884211
0.000983106
0.00108625
0.00119356
0.00130492
0.00142026
0.00153946
0.00166239
0.00178894
0.00191892
0.00205216
0.00218846
0.00232765
0.00246952
0.00261389
0.00276053
0.00290918
0.00305958
0.00321145
0.0033645
0.00351845
0.00367302
0.00382791
0.0039828
0.00413735
0.00429122
0.00444403
0.00459542
0.00474502
0.00489245
0.00503735
0.00517934
0.00531804
0.00545306
0.00558402
0.00571054
0.00583227
0.00594886
0.00605998
0.00616532
0.00626461
0.00635758
0.00644401
0.00652368
0.00659643
0.0066621
0.00672059
0.00677182
0.0068158
0.00685256
0.0068822
0.00690486
0.00692076
0.00693015
0.00693338
0.00693084
0.00692298
0.00691032
0.00689343
0.00687296
0.00684955
0.00682388
0.00679661
0.00676853
0.00674033
0.0067102
0.00667616
0.00015078
0.000111274
7.80387e-05
4.85772e-05
2.04934e-05
-5.73135e-06
-2.9584e-05
-5.07234e-05
-6.88129e-05
-8.351e-05
-9.45054e-05
-0.000101564
-0.000104513
-0.000103191
-9.74351e-05
-8.71179e-05
-7.21612e-05
-5.25274e-05
-2.81892e-05
8.83645e-07
3.4715e-05
7.33104e-05
0.000116653
0.000164714
0.000217477
0.00027493
0.000337054
0.00040382
0.000475187
0.000551108
0.000631535
0.000716429
0.000805749
0.000899442
0.000997433
0.00109964
0.00120597
0.00131635
0.00143067
0.00154882
0.0016707
0.00179614
0.00192499
0.00205706
0.00219218
0.00233016
0.00247082
0.00261396
0.00275936
0.00290677
0.00305594
0.00320658
0.00335843
0.00351122
0.00366466
0.00381847
0.00397231
0.00412586
0.00427876
0.00443064
0.00458113
0.00472986
0.00487646
0.00502055
0.00516175
0.00529969
0.00543396
0.00556418
0.00568999
0.00581103
0.00592695
0.00603744
0.00614219
0.00624093
0.00633341
0.0064194
0.00649871
0.00657115
0.00663658
0.00669491
0.00674608
0.00679008
0.00682695
0.00685677
0.00687971
0.00689594
0.00690574
0.00690941
0.0069073
0.00689985
0.00688752
0.00687081
0.00685026
0.00682645
0.00679991
0.00677115
0.00674084
0.00670953
0.00667465
0.00663353
0.000182518
0.000136645
9.9103e-05
6.67786e-05
3.66162e-05
8.99917e-06
-1.56558e-05
-3.71347e-05
-5.52307e-05
-6.97264e-05
-8.04011e-05
-8.70578e-05
-8.95449e-05
-8.7741e-05
-8.15414e-05
-7.08595e-05
-5.56273e-05
-3.57962e-05
-1.13325e-05
1.77854e-05
5.15673e-05
9.00123e-05
0.000133109
0.000180846
0.000233219
0.000290226
0.000351847
0.000418053
0.000488806
0.00056407
0.000643808
0.000727988
0.000816571
0.000909498
0.00100669
0.00110808
0.00121357
0.00132308
0.00143653
0.0015538
0.00167476
0.00179926
0.00192715
0.00205824
0.00219236
0.00232934
0.002469
0.00261114
0.00275554
0.00290196
0.00305014
0.00319983
0.00335077
0.00350269
0.00365531
0.00380835
0.00396146
0.00411433
0.00426658
0.00441784
0.00456775
0.00471594
0.00486202
0.00500563
0.00514637
0.00528385
0.00541768
0.00554749
0.00567289
0.00579353
0.00590909
0.00601923
0.00612366
0.00622211
0.00631433
0.0064001
0.00647922
0.00655151
0.00661683
0.0066751
0.00672625
0.00677027
0.00680721
0.00683715
0.00686023
0.00687663
0.0068866
0.00689043
0.00688845
0.00688104
0.00686863
0.00685166
0.00683061
0.00680594
0.0067781
0.00674749
0.00671468
0.00668012
0.0066406
0.0065929
0.000211251
0.000159348
0.000117579
8.23431e-05
4.996e-05
2.07111e-05
-5.05253e-06
-2.72081e-05
-4.56292e-05
-6.02043e-05
-7.08175e-05
-7.73259e-05
-7.95929e-05
-7.75227e-05
-7.10572e-05
-6.01505e-05
-4.47528e-05
-2.48154e-05
-3.03122e-07
2.87982e-05
6.24872e-05
0.000100759
0.000143609
0.000191039
0.000243054
0.00029965
0.000360808
0.000426501
0.000496702
0.000571384
0.000650519
0.000734077
0.000822016
0.000914275
0.00101078
0.00111146
0.00121623
0.00132502
0.00143773
0.00155425
0.00167445
0.00179817
0.00192526
0.00205554
0.00218887
0.00232505
0.00246393
0.00260529
0.00274893
0.00289461
0.00304208
0.00319109
0.00334141
0.00349275
0.00364486
0.00379742
0.00395012
0.00410261
0.00425452
0.00440548
0.00455512
0.00470307
0.00484896
0.00499239
0.00513297
0.00527031
0.00540401
0.0055337
0.00565899
0.00577955
0.00589502
0.00600509
0.00610947
0.00620788
0.00630008
0.00638584
0.00646495
0.00653725
0.00660259
0.00666089
0.00671207
0.00675614
0.00679313
0.00682312
0.00684623
0.00686266
0.00687261
0.00687637
0.00687425
0.0068666
0.00685379
0.00683623
0.00681431
0.00678846
0.00675902
0.00672632
0.00669087
0.00665304
0.00660911
0.0065554
0.000235987
0.00017846
0.000132626
9.44673e-05
5.97787e-05
2.87761e-05
1.7325e-06
-2.13301e-05
-4.03479e-05
-5.52618e-05
-6.60263e-05
-7.25676e-05
-7.47973e-05
-7.26522e-05
-6.60975e-05
-5.51043e-05
-3.96395e-05
-1.96712e-05
4.82216e-06
3.38462e-05
6.7396e-05
0.00010547
0.000148074
0.000195215
0.000246897
0.000303113
0.000363845
0.000429075
0.000498784
0.000572957
0.00065157
0.000734591
0.000821974
0.00091366
0.00100958
0.00110966
0.00121383
0.00132202
0.00143414
0.00155005
0.00166963
0.00179272
0.00191918
0.00204885
0.00218156
0.00231716
0.00245547
0.00259629
0.00273941
0.0028846
0.00303162
0.00318025
0.00333022
0.00348128
0.00363317
0.00378557
0.00393815
0.00409056
0.00424244
0.0043934
0.00454308
0.0046911
0.00483709
0.00498065
0.00512138
0.00525888
0.00539275
0.00552261
0.0056481
0.00576886
0.00588453
0.00599482
0.00609941
0.00619803
0.00629044
0.0063764
0.0064557
0.00652816
0.00659365
0.00665207
0.00670336
0.00674751
0.00678454
0.00681453
0.0068376
0.00685392
0.00686371
0.00686722
0.00686474
0.0068566
0.00684314
0.00682471
0.00680168
0.0067744
0.00674317
0.00670823
0.00667008
0.00662907
0.006581
0.00652185
0.000255844
0.000193166
0.000143507
0.000102483
6.54559e-05
3.26181e-05
4.18913e-06
-1.99187e-05
-3.97203e-05
-5.51805e-05
-6.62822e-05
-7.30157e-05
-7.53605e-05
-7.32919e-05
-6.67878e-05
-5.58269e-05
-4.03909e-05
-2.04699e-05
3.9381e-06
3.28304e-05
6.62055e-05
0.000104068
0.000146428
0.000193291
0.000244656
0.000300518
0.000360863
0.000425679
0.00049496
0.000568695
0.000646861
0.000729422
0.000816334
0.000907538
0.00100297
0.00110257
0.00120626
0.00131398
0.00142562
0.00154106
0.00166016
0.00178278
0.00190878
0.00203801
0.00217032
0.00230554
0.0024435
0.002584
0.00272685
0.00287181
0.00301866
0.00316717
0.00331709
0.00346817
0.00362013
0.00377266
0.00392542
0.00407806
0.00423019
0.00438146
0.00453148
0.00467988
0.00482627
0.00497025
0.00511142
0.00524938
0.00538372
0.00551407
0.00564005
0.0057613
0.00587747
0.00598824
0.00609331
0.0061924
0.00628525
0.00637161
0.00645128
0.00652407
0.00658984
0.00664849
0.00669995
0.00674421
0.00678128
0.00681124
0.0068342
0.00685033
0.00685983
0.00686295
0.00685994
0.00685113
0.00683681
0.00681731
0.00679297
0.00676409
0.00673092
0.00669369
0.00665285
0.00660875
0.00655686
0.00649281
0.000270127
0.000202756
0.000149543
0.000105798
6.64714e-05
3.17435e-05
1.83761e-06
-2.34095e-05
-4.4099e-05
-6.02364e-05
-7.18276e-05
-7.89071e-05
-8.15058e-05
-7.96324e-05
-7.32816e-05
-6.24463e-05
-4.71264e-05
-2.73313e-05
-3.07276e-06
2.56432e-05
5.88192e-05
9.64627e-05
0.00013858
0.000185171
0.000236235
0.000291768
0.000351763
0.000416218
0.000485131
0.000558494
0.000636282
0.000718459
0.000804981
0.000895794
0.000990842
0.00109006
0.00119339
0.00130076
0.00141204
0.00152714
0.0016459
0.00176821
0.00189392
0.00202289
0.00215499
0.00229004
0.00242787
0.0025683
0.00271111
0.00285611
0.00300306
0.00315173
0.00330189
0.00345328
0.00360561
0.00375857
0.0039118
0.00406495
0.00421765
0.00436951
0.00452017
0.00466925
0.00481634
0.00496105
0.00510297
0.00524169
0.00537681
0.00550795
0.00563471
0.00575675
0.0058737
0.00598523
0.00609105
0.00619085
0.00628437
0.00637134
0.00645156
0.00652484
0.00659102
0.00664999
0.0067017
0.00674611
0.00678324
0.00681316
0.00683597
0.00685184
0.00686095
0.00686355
0.00685989
0.00685025
0.00683492
0.0068142
0.00678839
0.00675778
0.00672261
0.00668304
0.00663956
0.00659253
0.00653709
0.00646865
0.00027833
0.000206674
0.000150167
0.000103857
6.23287e-05
2.57167e-05
-5.73356e-06
-3.2197e-05
-5.3838e-05
-7.0732e-05
-8.29269e-05
-9.04811e-05
-9.34495e-05
-9.18662e-05
-8.57509e-05
-7.51197e-05
-5.99922e-05
-4.03912e-05
-1.6334e-05
1.21731e-05
4.51329e-05
8.25494e-05
0.000124422
0.000170749
0.000221528
0.000276759
0.000336445
0.000400588
0.000469191
0.000542243
0.000619718
0.000701582
0.000787793
0.000878305
0.000973065
0.00107202
0.00117509
0.00128221
0.00139327
0.00150815
0.00162672
0.00174886
0.00187445
0.00200336
0.00213544
0.00227053
0.00240846
0.00254904
0.00269208
0.00283737
0.00298469
0.00313382
0.00328451
0.0034365
0.00358949
0.00374316
0.00389716
0.00405112
0.00420467
0.00435743
0.00450904
0.00465909
0.0048072
0.00495294
0.00509591
0.00523571
0.00537191
0.00550414
0.005632
0.00575512
0.00587314
0.00598571
0.00609253
0.00619329
0.00628769
0.00637549
0.00645644
0.00653035
0.00659707
0.00665647
0.0067085
0.00675311
0.00679031
0.00682018
0.00684282
0.00685837
0.00686704
0.00686903
0.0068646
0.00685401
0.00683754
0.00681547
0.00678809
0.00675568
0.00671844
0.00667655
0.0066305
0.00658067
0.00652196
0.00644957
0.000280064
0.000204505
0.000144927
9.61758e-05
5.25484e-05
1.41157e-05
-1.88863e-05
-4.66168e-05
-6.92683e-05
-8.69851e-05
-9.98645e-05
-0.000107982
-0.000111404
-0.000110187
-0.000104379
-9.40211e-05
-7.91503e-05
-5.97964e-05
-3.59771e-05
-7.70037e-06
2.503e-05
6.22112e-05
0.000103838
0.000149907
0.000200419
0.000255381
0.000314798
0.000378678
0.000447024
0.000519821
0.000597046
0.000678665
0.000764645
0.000854942
0.000949509
0.00104829
0.00115122
0.0012582
0.00136915
0.00148394
0.00160246
0.0017246
0.00185024
0.00197927
0.00211153
0.00224687
0.00238512
0.00252609
0.00266961
0.00281546
0.00296343
0.0031133
0.00326481
0.00341769
0.00357163
0.00372631
0.00388137
0.00403644
0.00419114
0.00434511
0.00449796
0.00464931
0.00479873
0.00494582
0.00509017
0.00523135
0.00536896
0.00550259
0.00563185
0.00575635
0.00587572
0.00598962
0.0060977
0.00619965
0.00629516
0.00638396
0.00646581
0.00654051
0.00660789
0.00666782
0.00672024
0.0067651
0.00680241
0.00683224
0.00685468
0.00686989
0.00687804
0.00687935
0.00687406
0.00686242
0.00684471
0.00682119
0.00679216
0.00675788
0.00671856
0.00667437
0.00662582
0.00657333
0.00651161
0.00643565
0.000274979
0.000195881
0.000133459
8.23707e-05
3.67135e-05
-3.46094e-06
-3.79688e-05
-6.6983e-05
-9.07007e-05
-0.0001093
-0.000122917
-0.000131651
-0.000135585
-0.000134798
-0.00012936
-0.000119335
-0.00010477
-8.56991e-05
-6.2142e-05
-3.41125e-05
-1.62336e-06
3.53157e-05
7.66975e-05
0.00012252
0.000172788
0.000227512
0.000286702
0.000350366
0.000418502
0.000491099
0.000568133
0.000649577
0.000735402
0.00082557
0.000920035
0.00101874
0.00112162
0.00122858
0.00133953
0.00145436
0.00157298
0.00169528
0.00182116
0.00195049
0.00208312
0.00221892
0.00235772
0.00249933
0.00264358
0.00279026
0.00293916
0.00309004
0.00324266
0.00339672
0.00355191
0.00370789
0.0038643
0.00402077
0.00417694
0.00433243
0.00448684
0.00463979
0.00479085
0.00493962
0.00508566
0.00522856
0.0053679
0.00550326
0.00563422
0.0057604
0.00588142
0.0059969
0.0061065
0.00620987
0.0063067
0.0063967
0.00647962
0.00655524
0.0066234
0.00668396
0.00673685
0.00678201
0.00681946
0.00684926
0.0068715
0.00688632
0.00689392
0.00689448
0.00688825
0.00687548
0.00685644
0.0068314
0.00680065
0.00676446
0.00672305
0.00667658
0.00662562
0.0065706
0.00650607
0.00642687
0.000262753
0.000180446
0.000115417
6.21207e-05
1.44956e-05
-2.73646e-05
-6.33252e-05
-9.36126e-05
-0.000118429
-0.000137952
-0.000152343
-0.000161729
-0.000166218
-0.00016591
-0.000160896
-0.000151249
-0.000137023
-0.000118258
-9.49795e-05
-6.72117e-05
-3.49743e-05
1.71888e-06
4.2861e-05
8.84525e-05
0.000138502
0.000193023
0.000252026
0.000315515
0.000383489
0.000455937
0.00053284
0.000614177
0.000699922
0.000790043
0.000884493
0.000983215
0.00108614
0.00119318
0.00130426
0.00141928
0.00153814
0.00166077
0.00178705
0.00191686
0.00205008
0.00218655
0.00232612
0.00246861
0.00261385
0.00276163
0.00291173
0.00306391
0.00321792
0.00337344
0.00353017
0.00368774
0.00384581
0.004004
0.00416195
0.00431927
0.00447557
0.00463045
0.00478349
0.00493427
0.00508235
0.0052273
0.0053687
0.0055061
0.00563908
0.00576725
0.00589019
0.00600753
0.00611889
0.00622391
0.00632226
0.00641364
0.00649779
0.00657448
0.00664354
0.00670483
0.00675825
0.00680377
0.0068414
0.00687118
0.00689321
0.00690763
0.00691461
0.00691437
0.00690713
0.00689315
0.00687271
0.00684608
0.00681356
0.00677544
0.00673193
0.00668322
0.0066299
0.00657248
0.00650533
0.00642317
0.000243157
0.000157889
9.04679e-05
3.51239e-05
-1.43821e-05
-5.7894e-05
-9.52781e-05
-0.000126816
-0.000152731
-0.000173195
-0.000188382
-0.000198448
-0.000203528
-0.000203741
-0.000199188
-0.000189948
-0.000176081
-0.000157636
-0.000134651
-0.000107157
-7.51786e-05
-3.87305e-05
2.18203e-06
4.75628e-05
9.74229e-05
0.000151775
0.000210626
0.000273981
0.000341839
0.00041419
0.000491021
0.000572317
0.000658056
0.000748208
0.000842726
0.000941553
0.00104462
0.00115186
0.00126318
0.00137852
0.00149779
0.0016209
0.00174776
0.00187825
0.00201225
0.00214961
0.00229018
0.0024338
0.00258028
0.00272942
0.002881
0.00303476
0.00319044
0.00334771
0.00350626
0.00366573
0.00382577
0.003986
0.00414604
0.00430553
0.00446405
0.0046212
0.00477657
0.0049297
0.00508017
0.00522752
0.0053713
0.00551108
0.0056464
0.00577685
0.00590201
0.00602147
0.00613483
0.00624172
0.0063418
0.00643474
0.00652028
0.00659818
0.00666826
0.00673036
0.00678441
0.00683034
0.00686817
0.00689795
0.00691976
0.00693375
0.00694008
0.00693898
0.00693067
0.00691541
0.00689349
0.00686522
0.00683089
0.0067908
0.00674519
0.00669428
0.00663868
0.00657895
0.00650934
0.00642444
0.000216057
0.000127986
5.83216e-05
1.08531e-06
-5.01942e-05
-9.53193e-05
-0.000134111
-0.000166876
-0.000193867
-0.00021527
-0.000231268
-0.00024204
-0.000247741
-0.000248501
-0.00024443
-0.000235612
-0.000222118
-0.000204007
-0.000181328
-0.000154116
-0.000122399
-8.61889e-05
-4.54899e-05
-2.96214e-07
4.94028e-05
0.000103617
0.000162353
0.000225613
0.000293398
0.000365704
0.000442523
0.000523842
0.000609646
0.000699904
0.000794568
0.000893585
0.000996894
0.00110443
0.00121613
0.00133193
0.00145175
0.00157552
0.00170314
0.0018345
0.00196949
0.00210796
0.00224976
0.00239474
0.00254272
0.00269349
0.00284681
0.00300243
0.00316005
0.00331936
0.00348003
0.0036417
0.00380401
0.0039666
0.00412908
0.00429107
0.00445216
0.00461195
0.00476999
0.00492585
0.00507906
0.00522915
0.00537567
0.00551815
0.00565613
0.00578916
0.00591682
0.00603866
0.00615427
0.00626326
0.00636526
0.00645995
0.00654704
0.00662629
0.00669751
0.00676054
0.00681528
0.00686169
0.00689976
0.00692954
0.00695113
0.00696465
0.0069703
0.00696827
0.00695882
0.00694223
0.00691879
0.00688881
0.00685264
0.00681056
0.00676285
0.00670975
0.00665192
0.00658997
0.00651802
0.00643056
0.000181332
9.05815e-05
1.87605e-05
-4.02682e-05
-9.32188e-05
-0.000139895
-0.000180067
-0.000214034
-0.000242078
-0.000264412
-0.000281232
-0.000292729
-0.000299069
-0.000300391
-0.00029681
-0.000288423
-0.000275313
-0.000257548
-0.000235183
-0.000208257
-0.000176797
-0.000140813
-0.000100308
-5.52771e-05
-5.712e-06
4.83941e-05
0.000107047
0.00017025
0.000238008
0.00031032
0.000387183
0.000468591
0.000554526
0.000644959
0.000739845
0.000839137
0.000942785
0.00105074
0.00116294
0.00127934
0.00139987
0.00152445
0.00165301
0.00178544
0.00192162
0.00206142
0.00220469
0.00235128
0.002501
0.00265365
0.00280898
0.00296672
0.00312656
0.0032882
0.00345128
0.00361546
0.00378037
0.00394565
0.00411091
0.00427575
0.00443978
0.00460256
0.00476366
0.0049226
0.00507892
0.00523212
0.00538171
0.00552723
0.00566819
0.00580412
0.00593455
0.00605904
0.00617714
0.00628846
0.00639259
0.00648922
0.00657804
0.0066588
0.00673128
0.00679534
0.00685086
0.0068978
0.00693614
0.00696594
0.00698729
0.00700033
0.00700524
0.00700225
0.0069916
0.00697361
0.00694859
0.00691687
0.0068788
0.00683472
0.0067849
0.00672963
0.00666962
0.00660551
0.00653132
0.00644141
0.000138822
4.55241e-05
-2.83844e-05
-8.91584e-05
-0.000143705
-0.000191856
-0.000233363
-0.000268509
-0.000297592
-0.000320852
-0.000338499
-0.000350728
-0.000357712
-0.000359597
-0.000356511
-0.000348563
-0.000335846
-0.000318435
-0.000296389
-0.000269748
-0.000238535
-0.000202761
-0.000162429
-0.000117538
-6.80825e-05
-1.40569e-05
4.45448e-05
0.000107729
0.000175504
0.000247872
0.000324836
0.00040639
0.000492519
0.000583194
0.000678377
0.000778029
0.000882115
0.000990596
0.00110343
0.00122057
0.00134196
0.00146753
0.0015972
0.00173089
0.00186846
0.00200981
0.00215477
0.00230321
0.00245492
0.0026097
0.00276729
0.00292742
0.00308976
0.003254
0.00341979
0.00358679
0.00375463
0.00392294
0.00409133
0.0042594
0.00442673
0.00459289
0.00475742
0.00491983
0.00507962
0.00523628
0.00538932
0.00553821
0.00568248
0.0058216
0.00595511
0.00608252
0.00620337
0.00631725
0.00642375
0.00652252
0.00661324
0.00669566
0.00676955
0.00683475
0.00689114
0.00693866
0.00697732
0.00700716
0.00702827
0.00704079
0.00704493
0.00704092
0.00702904
0.00700959
0.00698294
0.00694943
0.00690943
0.00686331
0.00681138
0.00675395
0.00669177
0.00662554
0.00654916
0.00645689
8.83379e-05
-7.36083e-06
-8.32715e-05
-0.000145756
-0.000201854
-0.000251416
-0.000294208
-0.000330511
-0.000360627
-0.000384809
-0.000403279
-0.000416235
-0.000423858
-0.000426307
-0.000423719
-0.000416218
-0.000403901
-0.000386849
-0.000365119
-0.000338752
-0.000307772
-0.00027219
-0.000232013
-0.000187243
-0.000137875
-8.39046e-05
-2.53232e-05
3.78787e-05
0.000105712
0.000178186
0.000255304
0.00033706
0.00042344
0.00051442
0.000609974
0.000710073
0.000814696
0.000923818
0.00103741
0.00115543
0.00127782
0.00140455
0.00153552
0.00167065
0.00180982
0.00195292
0.0020998
0.00225031
0.00240426
0.00256141
0.00272151
0.00288427
0.00304938
0.00321651
0.00338532
0.00355545
0.00372656
0.00389824
0.00407012
0.00424179
0.00441281
0.00458274
0.00475108
0.00491734
0.00508098
0.00524149
0.00539832
0.00555095
0.00569885
0.00584149
0.00597837
0.00610899
0.00623287
0.00634956
0.00645866
0.00655979
0.00665263
0.00673688
0.00681233
0.00687878
0.00693614
0.00698432
0.00702333
0.00705322
0.00707409
0.00708609
0.00708943
0.00708436
0.00707118
0.00705024
0.0070219
0.00698654
0.00694457
0.00689638
0.00684231
0.0067827
0.00671836
0.00665002
0.00657148
0.00647689
2.97265e-05
-6.82459e-05
-0.000146064
-0.000210208
-0.000267828
-0.000318764
-0.000362806
-0.000400248
-0.000431388
-0.000456484
-0.000475764
-0.000489438
-0.000497695
-0.000500707
-0.000498624
-0.000491573
-0.000479658
-0.000462961
-0.00044154
-0.000415435
-0.000384672
-0.000349267
-0.00030923
-0.000264564
-0.000215265
-0.000161325
-0.000102735
-3.94801e-05
2.84539e-05
0.000101078
0.000178397
0.000260404
0.000347089
0.000438439
0.000534437
0.000635071
0.000740331
0.000850205
0.000964674
0.00108371
0.00120727
0.0013353
0.00146774
0.00160449
0.00174546
0.00189052
0.00203954
0.00219234
0.00234874
0.0025085
0.00267135
0.002837
0.00300514
0.00317543
0.00334756
0.00352116
0.00369586
0.00387128
0.00404702
0.00422267
0.00439777
0.00457186
0.00474441
0.0049149
0.00508279
0.00524752
0.00540852
0.00556524
0.00571712
0.00586362
0.0060042
0.00613834
0.00626554
0.00638533
0.00649729
0.00660102
0.00669618
0.00678246
0.00685962
0.00692747
0.00698589
0.00703481
0.00707423
0.0071042
0.00712484
0.0071363
0.00713881
0.00713264
0.00711813
0.00709563
0.00706555
0.0070283
0.0069843
0.00693399
0.00687774
0.00681593
0.0067494
0.00667893
0.00659821
0.00650128
-3.70954e-05
-0.000137268
-0.000216919
-0.000282667
-0.000341784
-0.00039408
-0.000439354
-0.000477917
-0.000510067
-0.000536061
-0.000556138
-0.000570519
-0.000579408
-0.000582986
-0.00058141
-0.000574811
-0.000563295
-0.000546945
-0.00052582
-0.000499964
-0.000469406
-0.000434167
-0.000394258
-0.000349682
-0.000300434
-0.000246503
-0.000187877
-0.000124536
-5.64646e-05
1.63492e-05
9.39086e-05
0.000176212
0.000263255
0.000355037
0.000451554
0.000552809
0.000658804
0.00076954
0.00088501
0.00100519
0.00113006
0.00125955
0.00139362
0.00153218
0.00167513
0.00182234
0.00197369
0.00212899
0.00228806
0.00245064
0.00261647
0.00278526
0.00295669
0.00313044
0.00330619
0.00348357
0.00366222
0.00384174
0.00402173
0.00420174
0.00438132
0.00455996
0.00473712
0.00491225
0.00508478
0.00525412
0.00541968
0.00558087
0.00573711
0.00588782
0.00603245
0.00617044
0.00630128
0.00642449
0.00653959
0.00664619
0.0067439
0.00683241
0.00691145
0.00698085
0.00704045
0.0070902
0.00713009
0.00716019
0.0071806
0.00719152
0.00719318
0.00718588
0.00716998
0.00714587
0.00711399
0.00707477
0.00702868
0.00697618
0.00691769
0.00685361
0.00678484
0.0067122
0.00662926
0.00652994
-0.000112172
-0.000214535
-0.000295986
-0.000363297
-0.000423888
-0.00047754
-0.000524037
-0.000563702
-0.000596843
-0.00062372
-0.000644584
-0.000659671
-0.000669193
-0.000673339
-0.000672268
-0.000666117
-0.000654991
-0.000638977
-0.000618136
-0.000592519
-0.000562159
-0.000527078
-0.000487289
-0.000442791
-0.000393579
-0.000339637
-0.000280947
-0.000217491
-0.000149251
-7.62169e-05
1.61845e-06
8.42591e-05
0.000171712
0.000263987
0.000361097
0.000463057
0.000569884
0.00068159
0.000798177
0.000919633
0.00104593
0.00117704
0.00131289
0.00145342
0.00159852
0.00174807
0.00190193
0.00205993
0.00222186
0.00238748
0.00255651
0.00272867
0.00290366
0.00308116
0.00326084
0.00344234
0.00362528
0.00380927
0.00399388
0.00417866
0.00436312
0.00454671
0.00472889
0.00490907
0.00508665
0.00526101
0.00543153
0.00559759
0.00575859
0.0059139
0.00606296
0.00620518
0.00634002
0.00646697
0.00658553
0.00669527
0.00679579
0.00688675
0.00696789
0.00703898
0.0070999
0.00715059
0.00719103
0.00722129
0.0072415
0.00725187
0.00725266
0.00724419
0.00722685
0.00720106
0.0071673
0.00712603
0.00707776
0.00702299
0.00696217
0.00689574
0.00682465
0.00674975
0.0066645
0.0065627
-0.000195562
-0.000300142
-0.000383402
-0.000452262
-0.000514312
-0.000569312
-0.000617022
-0.000657774
-0.00069189
-0.000719643
-0.000741294
-0.000757089
-0.000767246
-0.000771958
-0.000771389
-0.000765676
-0.000754931
-0.000739242
-0.000718679
-0.000693297
-0.000663131
-0.000628204
-0.000588527
-0.000544097
-0.000494905
-0.000440933
-0.000382159
-0.000318565
-0.000250134
-0.000176854
-9.87127e-05
-1.56957e-05
7.22152e-05
0.000165044
0.000262818
0.000365566
0.000473316
0.000586092
0.000703905
0.000826752
0.000954617
0.00108747
0.00122525
0.00136789
0.0015153
0.00166735
0.0018239
0.00198477
0.00214975
0.0023186
0.00249105
0.00266683
0.00284564
0.00302718
0.0032111
0.00339704
0.00358464
0.00377347