/*--------------------------------*- C++ -*----------------------------------*\
  =========                 |
  \\      /  F ield         | OpenFOAM: The Open Source CFD Toolbox
   \\    /   O peration     | Website:  https://openfoam.org
    \\  /    A nd           | Version:  7
     \\/     M anipulation  |
\*---------------------------------------------------------------------------*/
FoamFile
{
    version     2.0;
    format      ascii;
    class       surfaceScalarField;
    location    "0.15625";
    object      phi;
}
// * * * * * * * * * * * * * * * * * * * * * * * * * * * * * * * * * * * * * //

dimensions      [0 3 -1 0 0 0 0];

internalField   nonuniform List<scalar> 
19800
(
6.009e-11
-6.01436e-11
1.41317e-10
-8.1222e-11
1.75463e-10
-3.4158e-11
1.3848e-10
3.69811e-11
2.11419e-11
1.17336e-10
-1.75661e-10
1.96805e-10
-4.46498e-10
2.70837e-10
-7.84014e-10
3.37521e-10
-1.1803e-09
3.96284e-10
-1.62758e-09
4.47293e-10
-2.11854e-09
4.9096e-10
-2.64626e-09
5.27716e-10
-3.20431e-09
5.58057e-10
-3.78685e-09
5.82544e-10
-4.38866e-09
6.01803e-10
-5.0051e-09
6.16452e-10
-5.63215e-09
6.27044e-10
-6.26618e-09
6.34026e-10
-6.90395e-09
6.37771e-10
-7.54262e-09
6.38662e-10
-8.17977e-09
6.3715e-10
-8.81338e-09
6.33614e-10
-9.44168e-09
6.283e-10
-1.00631e-08
6.21397e-10
-1.06761e-08
6.13078e-10
-1.12796e-08
6.03493e-10
-1.18724e-08
5.92797e-10
-1.24536e-08
5.81134e-10
-1.30222e-08
5.68594e-10
-1.35774e-08
5.55203e-10
-1.41184e-08
5.40975e-10
-1.46443e-08
5.25941e-10
-1.51544e-08
5.10135e-10
-1.5648e-08
4.93562e-10
-1.61242e-08
4.76216e-10
-1.65823e-08
4.58093e-10
-1.70215e-08
4.39192e-10
-1.7441e-08
4.19502e-10
-1.784e-08
3.99003e-10
-1.82177e-08
3.77691e-10
-1.85733e-08
3.55567e-10
-1.89059e-08
3.32628e-10
-1.92148e-08
3.08855e-10
-1.9499e-08
2.84231e-10
-1.97577e-08
2.58754e-10
-1.99902e-08
2.32434e-10
-2.01954e-08
2.0528e-10
-2.03727e-08
1.77289e-10
-2.05212e-08
1.48464e-10
-2.064e-08
1.18819e-10
-2.07284e-08
8.83856e-11
-2.07856e-08
5.71959e-11
-2.08109e-08
2.52833e-11
-2.08036e-08
-7.31095e-12
-2.07631e-08
-4.05299e-11
-2.06888e-08
-7.43078e-11
-2.05802e-08
-1.08579e-10
-2.04369e-08
-1.43281e-10
-2.02585e-08
-1.78351e-10
-2.00448e-08
-2.13712e-10
-1.97956e-08
-2.49271e-10
-1.95106e-08
-2.84926e-10
-1.91901e-08
-3.20569e-10
-1.8834e-08
-3.56091e-10
-1.84426e-08
-3.91377e-10
-1.80163e-08
-4.26298e-10
-1.75556e-08
-4.60711e-10
-1.70611e-08
-4.94462e-10
-1.65338e-08
-5.27382e-10
-1.59745e-08
-5.59293e-10
-1.53845e-08
-5.90001e-10
-1.47652e-08
-6.19297e-10
-1.41182e-08
-6.46958e-10
-1.34455e-08
-6.72747e-10
-1.2749e-08
-6.96413e-10
-1.20314e-08
-7.1769e-10
-1.12951e-08
-7.36295e-10
-1.05431e-08
-7.51928e-10
-9.77887e-09
-7.64269e-10
-9.00589e-09
-7.72982e-10
-8.22817e-09
-7.77716e-10
-7.45006e-09
-7.78107e-10
-6.67628e-09
-7.73778e-10
-5.91194e-09
-7.6434e-10
-5.16254e-09
-7.49393e-10
-4.434e-09
-7.28531e-10
-3.73266e-09
-7.01345e-10
-3.06523e-09
-6.67427e-10
-2.43884e-09
-6.26388e-10
-1.86096e-09
-5.77875e-10
-1.33936e-09
-5.21597e-10
-8.81993e-10
-4.57372e-10
-4.96789e-10
-3.85206e-10
-1.91325e-10
-3.05465e-10
2.7877e-11
-2.19202e-10
1.56716e-10
-1.28839e-10
1.95892e-10
-3.91773e-11
1.5588e-10
4.00107e-11
6.7459e-11
8.84195e-11
6.74567e-11
7.20058e-11
-1.32145e-10
1.2234e-10
-1.31549e-10
5.75507e-11
3.06493e-11
-1.74417e-10
2.68957e-10
-5.94956e-10
5.37882e-10
-1.20744e-09
8.0929e-10
-2.00437e-09
1.06776e-09
-2.97209e-09
1.30524e-09
-4.09394e-09
1.51813e-09
-5.35203e-09
1.70538e-09
-6.72836e-09
1.86729e-09
-8.20555e-09
2.00491e-09
-9.7672e-09
2.11971e-09
-1.13981e-08
2.21346e-09
-1.30843e-08
2.28803e-09
-1.48132e-08
2.34531e-09
-1.65733e-08
2.38718e-09
-1.83546e-08
2.41534e-09
-2.01481e-08
2.4313e-09
-2.1946e-08
2.43651e-09
-2.37412e-08
2.43236e-09
-2.55276e-08
2.42008e-09
-2.73e-08
2.40066e-09
-2.90535e-08
2.37494e-09
-3.07841e-08
2.34364e-09
-3.24879e-08
2.30735e-09
-3.41617e-08
2.26662e-09
-3.58025e-08
2.22191e-09
-3.74074e-08
2.17353e-09
-3.89739e-08
2.12171e-09
-4.04995e-08
2.06659e-09
-4.19819e-08
2.0083e-09
-4.34187e-08
1.94695e-09
-4.48078e-08
1.88258e-09
-4.61468e-08
1.81522e-09
-4.74335e-08
1.74486e-09
-4.86658e-08
1.6715e-09
-4.98414e-08
1.59511e-09
-5.09581e-08
1.51567e-09
-5.20136e-08
1.43316e-09
-5.30055e-08
1.34757e-09
-5.39318e-08
1.25888e-09
-5.479e-08
1.16706e-09
-5.55779e-08
1.0721e-09
-5.62931e-08
9.74e-10
-5.69335e-08
8.72778e-10
-5.74966e-08
7.68458e-10
-5.79804e-08
6.61062e-10
-5.83826e-08
5.50634e-10
-5.8701e-08
4.37249e-10
-5.89336e-08
3.21011e-10
-5.90785e-08
2.02042e-10
-5.91337e-08
8.0476e-11
-5.90975e-08
-4.35319e-11
-5.89682e-08
-1.69792e-10
-5.87444e-08
-2.98086e-10
-5.84248e-08
-4.28172e-10
-5.80083e-08
-5.59799e-10
-5.7494e-08
-6.92694e-10
-5.68811e-08
-8.26558e-10
-5.61694e-08
-9.61055e-10
-5.53585e-08
-1.09582e-09
-5.44486e-08
-1.23045e-09
-5.34402e-08
-1.36453e-09
-5.2334e-08
-1.49758e-09
-5.11311e-08
-1.62912e-09
-4.98333e-08
-1.75861e-09
-4.84423e-08
-1.88545e-09
-4.69606e-08
-2.00904e-09
-4.53912e-08
-2.1287e-09
-4.37375e-08
-2.2437e-09
-4.20035e-08
-2.35328e-09
-4.01939e-08
-2.4566e-09
-3.83138e-08
-2.55279e-09
-3.63693e-08
-2.6409e-09
-3.43671e-08
-2.71993e-09
-3.23146e-08
-2.78882e-09
-3.022e-08
-2.84646e-09
-2.80926e-08
-2.89167e-09
-2.59424e-08
-2.92321e-09
-2.37803e-08
-2.93979e-09
-2.16184e-08
-2.94008e-09
-1.94694e-08
-2.9227e-09
-1.73475e-08
-2.88626e-09
-1.52675e-08
-2.82935e-09
-1.32455e-08
-2.75055e-09
-1.12984e-08
-2.64849e-09
-9.44391e-09
-2.52189e-09
-7.70074e-09
-2.36956e-09
-6.08802e-09
-2.19059e-09
-4.6252e-09
-1.98442e-09
-3.33151e-09
-1.75106e-09
-2.22522e-09
-1.4915e-09
-1.32244e-09
-1.20824e-09
-6.35222e-10
-9.06418e-10
-1.68523e-10
-5.95539e-10
8.48849e-11
-2.92583e-10
1.5179e-10
-2.68933e-11
8.83598e-11
1.51853e-10
1.55814e-10
2.92271e-11
-1.61384e-10
-4.39117e-11
-5.8395e-11
-3.06957e-10
2.9369e-10
-8.1455e-10
7.76556e-10
-1.59256e-09
1.3159e-09
-2.64679e-09
1.86353e-09
-3.96909e-09
2.39007e-09
-5.54276e-09
2.87892e-09
-7.34604e-09
3.32142e-09
-9.3546e-09
3.71394e-09
-1.15432e-08
4.05585e-09
-1.38867e-08
4.34843e-09
-1.6361e-08
4.5941e-09
-1.89436e-08
4.79603e-09
-2.16133e-08
4.95774e-09
-2.43509e-08
5.08289e-09
-2.71388e-08
5.1751e-09
-2.99613e-08
5.23783e-09
-3.28043e-08
5.27429e-09
-3.56553e-08
5.28751e-09
-3.85032e-08
5.28028e-09
-4.13382e-08
5.25506e-09
-4.41516e-08
5.21402e-09
-4.69356e-08
5.159e-09
-4.96836e-08
5.09156e-09
-5.23892e-08
5.01302e-09
-5.50471e-08
4.92454e-09
-5.76523e-08
4.82705e-09
-6.02e-08
4.72127e-09
-6.26861e-08
4.60774e-09
-6.51063e-08
4.48687e-09
-6.7457e-08
4.35896e-09
-6.97343e-08
4.22425e-09
-7.19346e-08
4.08286e-09
-7.40542e-08
3.93488e-09
-7.60897e-08
3.78036e-09
-7.80375e-08
3.61929e-09
-7.98941e-08
3.45166e-09
-8.16558e-08
3.27742e-09
-8.33192e-08
3.09655e-09
-8.48807e-08
2.90904e-09
-8.63367e-08
2.71485e-09
-8.76836e-08
2.51396e-09
-8.89178e-08
2.30636e-09
-9.00359e-08
2.09208e-09
-9.10343e-08
1.87116e-09
-9.19095e-08
1.64368e-09
-9.26582e-08
1.40972e-09
-9.3277e-08
1.16941e-09
-9.37626e-08
9.22916e-10
-9.41121e-08
6.7046e-10
-9.43223e-08
4.12301e-10
-9.43906e-08
1.48741e-10
-9.43143e-08
-1.19876e-10
-9.40909e-08
-3.93148e-10
-9.37184e-08
-6.70622e-10
-9.31947e-08
-9.51797e-10
-9.25184e-08
-1.23613e-09
-9.16881e-08
-1.52301e-09
-9.07029e-08
-1.8118e-09
-8.95622e-08
-2.10176e-09
-8.82659e-08
-2.3921e-09
-8.68143e-08
-2.68199e-09
-8.52084e-08
-2.97049e-09
-8.34494e-08
-3.2566e-09
-8.15392e-08
-3.53926e-09
-7.94806e-08
-3.8173e-09
-7.72765e-08
-4.08948e-09
-7.49311e-08
-4.35446e-09
-7.2449e-08
-4.6108e-09
-6.98358e-08
-4.85696e-09
-6.70977e-08
-5.0913e-09
-6.42423e-08
-5.31205e-09
-6.12777e-08
-5.51732e-09
-5.82135e-08
-5.70511e-09
-5.50602e-08
-5.87329e-09
-5.18294e-08
-6.01962e-09
-4.85341e-08
-6.14171e-09
-4.51887e-08
-6.23707e-09
-4.18088e-08
-6.30311e-09
-3.84115e-08
-6.33711e-09
-3.50153e-08
-6.33628e-09
-3.16402e-08
-6.29777e-09
-2.83078e-08
-6.21871e-09
-2.50409e-08
-6.09622e-09
-2.1864e-08
-5.92749e-09
-1.88026e-08
-5.70987e-09
-1.58835e-08
-5.44093e-09
-1.31344e-08
-5.11865e-09
-1.05834e-08
-4.74162e-09
-8.25846e-09
-4.30938e-09
-6.18668e-09
-3.82284e-09
-4.39308e-09
-3.2851e-09
-2.89876e-09
-2.70256e-09
-1.71843e-09
-2.08674e-09
-8.56721e-10
-1.45725e-09
-3.02981e-10
-8.46325e-10
-2.4732e-11
-3.05145e-10
4.05031e-11
8.66162e-11
1.96316e-10
-4.17329e-11
-1.19652e-10
-2.82568e-10
1.82443e-10
-7.95614e-10
8.06742e-10
-1.62629e-09
1.60722e-09
-2.79683e-09
2.48644e-09
-4.31104e-09
3.37773e-09
-6.15912e-09
4.23815e-09
-8.3218e-09
5.04161e-09
-1.07738e-08
5.77338e-09
-1.34861e-08
6.42631e-09
-1.64285e-08
6.99824e-09
-1.95703e-08
7.49024e-09
-2.28817e-08
7.9055e-09
-2.63342e-08
8.24852e-09
-2.9901e-08
8.52458e-09
-3.35575e-08
8.73933e-09
-3.72809e-08
8.89852e-09
-4.10508e-08
9.0077e-09
-4.48486e-08
9.07214e-09
-4.86579e-08
9.09676e-09
-5.24637e-08
9.0861e-09
-5.62529e-08
9.04425e-09
-6.00137e-08
8.97483e-09
-6.37356e-08
8.88098e-09
-6.74095e-08
8.76538e-09
-7.10268e-08
8.63033e-09
-7.458e-08
8.47774e-09
-7.80621e-08
8.30922e-09
-8.14669e-08
8.12602e-09
-8.47883e-08
7.92914e-09
-8.80208e-08
7.71936e-09
-9.11591e-08
7.49724e-09
-9.4198e-08
7.26321e-09
-9.71327e-08
7.01753e-09
-9.99582e-08
6.7604e-09
-1.0267e-07
6.49193e-09
-1.05263e-07
6.21215e-09
-1.07732e-07
5.92107e-09
-1.10073e-07
5.61867e-09
-1.12282e-07
5.30493e-09
-1.14352e-07
4.97984e-09
-1.16281e-07
4.64336e-09
-1.18063e-07
4.29549e-09
-1.19692e-07
3.93624e-09
-1.21166e-07
3.56569e-09
-1.22479e-07
3.18394e-09
-1.23626e-07
2.79113e-09
-1.24604e-07
2.38745e-09
-1.25408e-07
1.97314e-09
-1.26033e-07
1.54852e-09
-1.26477e-07
1.11397e-09
-1.26734e-07
6.69936e-10
-1.26803e-07
2.16935e-10
-1.26678e-07
-2.44425e-10
-1.26358e-07
-7.13456e-10
-1.25839e-07
-1.18939e-09
-1.25119e-07
-1.67138e-09
-1.24197e-07
-2.15848e-09
-1.2307e-07
-2.64968e-09
-1.21738e-07
-3.14384e-09
-1.202e-07
-3.63971e-09
-1.18457e-07
-4.13597e-09
-1.16507e-07
-4.63114e-09
-1.14354e-07
-5.12367e-09
-1.11999e-07
-5.61185e-09
-1.09444e-07
-6.09384e-09
-1.06694e-07
-6.56768e-09
-1.03752e-07
-7.03124e-09
-1.00625e-07
-7.48225e-09
-9.73171e-08
-7.91826e-09
-9.38373e-08
-8.33667e-09
-9.0194e-08
-8.73468e-09
-8.63967e-08
-9.10928e-09
-8.24568e-08
-9.45731e-09
-7.83865e-08
-9.77536e-09
-7.42e-08
-1.00598e-08
-6.99126e-08
-1.0307e-08
-6.55415e-08
-1.05128e-08
-6.11055e-08
-1.06731e-08
-5.66252e-08
-1.07834e-08
-5.21229e-08
-1.08394e-08
-4.76227e-08
-1.08364e-08
-4.31507e-08
-1.07697e-08
-3.87348e-08
-1.06347e-08
-3.44044e-08
-1.04266e-08
-3.01909e-08
-1.0141e-08
-2.61268e-08
-9.7739e-09
-2.22462e-08
-9.3216e-09
-1.85835e-08
-8.78133e-09
-1.51737e-08
-8.15146e-09
-1.2051e-08
-7.43203e-09
-9.24822e-09
-6.62561e-09
-6.79497e-09
-5.73835e-09
-4.71581e-09
-4.78171e-09
-3.02765e-09
-3.77491e-09
-1.73619e-09
-2.74871e-09
-8.31676e-10
-1.75084e-09
-2.83885e-10
-8.52941e-10
-3.67881e-11
-1.60483e-10
1.59527e-10
-1.20262e-10
6.10001e-13
-5.50917e-10
6.13102e-10
-1.34054e-09
1.59637e-09
-2.51943e-09
2.78611e-09
-4.10108e-09
4.0681e-09
-6.08394e-09
5.36059e-09
-8.45447e-09
6.60868e-09
-1.11903e-08
7.77743e-09
-1.42629e-08
8.84599e-09
-1.76399e-08
9.80336e-09
-2.12871e-08
1.06454e-08
-2.51696e-08
1.13728e-08
-2.92532e-08
1.19891e-08
-3.3505e-08
1.25003e-08
-3.78936e-08
1.29133e-08
-4.23901e-08
1.32358e-08
-4.69675e-08
1.34759e-08
-5.16013e-08
1.36415e-08
-5.62692e-08
1.374e-08
-6.09511e-08
1.37787e-08
-6.56291e-08
1.3764e-08
-7.02869e-08
1.3702e-08
-7.49099e-08
1.35979e-08
-7.94854e-08
1.34564e-08
-8.40015e-08
1.32815e-08
-8.84478e-08
1.30767e-08
-9.28149e-08
1.28448e-08
-9.70941e-08
1.25884e-08
-1.01277e-07
1.23092e-08
-1.05357e-07
1.20088e-08
-1.09326e-07
1.16886e-08
-1.13178e-07
1.13494e-08
-1.16907e-07
1.09918e-08
-1.20506e-07
1.06165e-08
-1.23969e-07
1.02236e-08
-1.27291e-07
9.8135e-09
-1.30465e-07
9.3862e-09
-1.33485e-07
8.94179e-09
-1.36347e-07
8.48029e-09
-1.39044e-07
8.00171e-09
-1.4157e-07
7.50604e-09
-1.4392e-07
6.99329e-09
-1.46088e-07
6.46348e-09
-1.48068e-07
5.9167e-09
-1.49856e-07
5.35307e-09
-1.51445e-07
4.77277e-09
-1.5283e-07
4.17604e-09
-1.54005e-07
3.56321e-09
-1.54967e-07
2.93467e-09
-1.55709e-07
2.29093e-09
-1.56228e-07
1.63258e-09
-1.56518e-07
9.6029e-10
-1.56576e-07
2.74873e-10
-1.56398e-07
-4.22753e-10
-1.5598e-07
-1.13155e-09
-1.55319e-07
-1.85036e-09
-1.54412e-07
-2.5779e-09
-1.53258e-07
-3.31276e-09
-1.51854e-07
-4.05339e-09
-1.502e-07
-4.79807e-09
-1.48295e-07
-5.54495e-09
-1.46139e-07
-6.29201e-09
-1.43733e-07
-7.03706e-09
-1.41079e-07
-7.77774e-09
-1.38179e-07
-8.51149e-09
-1.35037e-07
-9.23557e-09
-1.31658e-07
-9.94701e-09
-1.28047e-07
-1.06426e-08
-1.2421e-07
-1.13191e-08
-1.20156e-07
-1.19726e-08
-1.15893e-07
-1.25994e-08
-1.11432e-07
-1.31952e-08
-1.06786e-07
-1.37555e-08
-1.01968e-07
-1.42757e-08
-9.69923e-08
-1.47507e-08
-9.1877e-08
-1.51751e-08
-8.66406e-08
-1.55434e-08
-8.13038e-08
-1.58496e-08
-7.58893e-08
-1.60875e-08
-7.04219e-08
-1.62508e-08
-6.49285e-08
-1.63329e-08
-5.94379e-08
-1.6327e-08
-5.39814e-08
-1.62263e-08
-4.8592e-08
-1.60241e-08
-4.33047e-08
-1.57139e-08
-3.81563e-08
-1.52894e-08
-3.31852e-08
-1.4745e-08
-2.84307e-08
-1.4076e-08
-2.39331e-08
-1.3279e-08
-1.97322e-08
-1.23523e-08
-1.58672e-08
-1.1297e-08
-1.2375e-08
-1.01178e-08
-9.28891e-09
-8.82448e-09
-6.63649e-09
-7.43413e-09
-4.43742e-09
-5.97398e-09
-2.70049e-09
-4.48563e-09
-1.42054e-09
-3.0308e-09
-5.75316e-10
-1.69817e-09
-1.22976e-10
-6.12826e-10
3.65502e-11
-1.99622e-10
2.00235e-10
-8.26069e-10
1.23954e-09
-1.90092e-09
2.67123e-09
-3.4366e-09
4.32179e-09
-5.43449e-09
6.06598e-09
-7.8851e-09
7.81122e-09
-1.07695e-08
9.49305e-09
-1.40611e-08
1.10691e-08
-1.77281e-08
1.2513e-08
-2.17349e-08
1.38101e-08
-2.60439e-08
1.49545e-08
-3.0617e-08
1.59459e-08
-3.54165e-08
1.67885e-08
-4.04057e-08
1.74895e-08
-4.555e-08
1.80576e-08
-5.08168e-08
1.85026e-08
-5.61757e-08
1.88349e-08
-6.15989e-08
1.90647e-08
-6.70609e-08
1.9202e-08
-7.25386e-08
1.92564e-08
-7.80112e-08
1.92367e-08
-8.346e-08
1.91507e-08
-8.88679e-08
1.90058e-08
-9.42198e-08
1.88083e-08
-9.9502e-08
1.85637e-08
-1.04702e-07
1.82768e-08
-1.09809e-07
1.79515e-08
-1.14812e-07
1.75913e-08
-1.19702e-07
1.71989e-08
-1.24469e-07
1.67765e-08
-1.29106e-07
1.63258e-08
-1.33605e-07
1.58482e-08
-1.37958e-07
1.53447e-08
-1.42157e-07
1.4816e-08
-1.46197e-07
1.42628e-08
-1.50068e-07
1.36853e-08
-1.53766e-07
1.30838e-08
-1.57283e-07
1.24584e-08
-1.60612e-07
1.18092e-08
-1.63746e-07
1.11363e-08
-1.6668e-07
1.04396e-08
-1.69406e-07
9.71928e-09
-1.71918e-07
8.9754e-09
-1.74209e-07
8.20812e-09
-1.76274e-07
7.41765e-09
-1.78105e-07
6.60427e-09
-1.79697e-07
5.76836e-09
-1.81045e-07
4.91041e-09
-1.82141e-07
4.031e-09
-1.82981e-07
3.13085e-09
-1.83559e-07
2.21081e-09
-1.83871e-07
1.27185e-09
-1.83911e-07
3.15099e-10
-1.83676e-07
-6.58146e-10
-1.83161e-07
-1.64644e-09
-1.82363e-07
-2.64816e-09
-1.81279e-07
-3.66154e-09
-1.79907e-07
-4.68459e-09
-1.78246e-07
-5.71515e-09
-1.76293e-07
-6.75084e-09
-1.74049e-07
-7.78909e-09
-1.71514e-07
-8.82709e-09
-1.68689e-07
-9.86182e-09
-1.65577e-07
-1.089e-08
-1.6218e-07
-1.19081e-08
-1.58503e-07
-1.29122e-08
-1.54552e-07
-1.38984e-08
-1.50333e-07
-1.48622e-08
-1.45853e-07
-1.57989e-08
-1.41122e-07
-1.67034e-08
-1.36151e-07
-1.75704e-08
-1.30952e-07
-1.83941e-08
-1.25539e-07
-1.91683e-08
-1.19928e-07
-1.98865e-08
-1.14137e-07
-2.05418e-08
-1.08186e-07
-2.1127e-08
-1.02095e-07
-2.16342e-08
-9.58888e-08
-2.20555e-08
-8.9594e-08
-2.23824e-08
-8.32386e-08
-2.26063e-08
-7.68533e-08
-2.27182e-08
-7.04711e-08
-2.27091e-08
-6.41274e-08
-2.257e-08
-5.78596e-08
-2.22919e-08
-5.17072e-08
-2.18663e-08
-4.57116e-08
-2.1285e-08
-3.99155e-08
-2.05411e-08
-3.4363e-08
-1.96286e-08
-2.90982e-08
-1.85437e-08
-2.41654e-08
-1.72851e-08
-1.96073e-08
-1.58551e-08
-1.54645e-08
-1.42607e-08
-1.17734e-08
-1.25156e-08
-8.56491e-09
-1.06426e-08
-5.86251e-09
-8.67639e-09
-3.67991e-09
-6.66824e-09
-2.01931e-09
-4.6914e-09
-8.7004e-10
-2.84743e-09
-2.08375e-10
-1.27449e-09
-1.71826e-10
-2.75681e-10
4.75916e-10
-1.09431e-09
2.05818e-09
-2.4515e-09
4.02842e-09
-4.34068e-09
6.21098e-09
-6.74955e-09
8.47485e-09
-9.65907e-09
1.07207e-08
-1.30434e-08
1.28774e-08
-1.68712e-08
1.48968e-08
-2.11064e-08
1.67482e-08
-2.57102e-08
1.8414e-08
-3.06421e-08
1.98863e-08
-3.5861e-08
2.11647e-08
-4.13262e-08
2.22537e-08
-4.69983e-08
2.31616e-08
-5.28397e-08
2.3899e-08
-5.88148e-08
2.44778e-08
-6.48907e-08
2.49107e-08
-7.10366e-08
2.52106e-08
-7.72246e-08
2.539e-08
-8.34289e-08
2.54608e-08
-8.96264e-08
2.54341e-08
-9.5796e-08
2.53203e-08
-1.01919e-07
2.51286e-08
-1.07977e-07
2.4867e-08
-1.13956e-07
2.45427e-08
-1.19842e-07
2.41621e-08
-1.2562e-07
2.37303e-08
-1.31281e-07
2.32517e-08
-1.36812e-07
2.27299e-08
-1.42203e-07
2.2168e-08
-1.47446e-07
2.15683e-08
-1.5253e-07
2.09326e-08
-1.57448e-07
2.02624e-08
-1.62191e-07
1.95587e-08
-1.6675e-07
1.88223e-08
-1.71119e-07
1.80537e-08
-1.75288e-07
1.72533e-08
-1.79251e-07
1.64214e-08
-1.83e-07
1.55581e-08
-1.86527e-07
1.46636e-08
-1.89826e-07
1.3738e-08
-1.92888e-07
1.27814e-08
-1.95706e-07
1.1794e-08
-1.98274e-07
1.0776e-08
-2.00584e-07
9.72779e-09
-2.0263e-07
8.64979e-09
-2.04404e-07
7.54253e-09
-2.059e-07
6.40667e-09
-2.07112e-07
5.24304e-09
-2.08034e-07
4.0526e-09
-2.0866e-07
2.83648e-09
-2.08984e-07
1.59601e-09
-2.09001e-07
3.32688e-10
-2.08708e-07
-9.5177e-10
-2.08099e-07
-2.25545e-09
-2.07171e-07
-3.57622e-09
-2.05921e-07
-4.91173e-09
-2.04346e-07
-6.25938e-09
-2.02445e-07
-7.6163e-09
-2.00216e-07
-8.97938e-09
-1.9766e-07
-1.03452e-08
-1.94777e-07
-1.17102e-08
-1.91569e-07
-1.30702e-08
-1.88037e-07
-1.44211e-08
-1.84187e-07
-1.57581e-08
-1.80023e-07
-1.70763e-08
-1.75551e-07
-1.83703e-08
-1.70779e-07
-1.96344e-08
-1.65716e-07
-2.08624e-08
-1.60371e-07
-2.20476e-08
-1.54759e-07
-2.31832e-08
-1.48891e-07
-2.42614e-08
-1.42785e-07
-2.52744e-08
-1.36458e-07
-2.62136e-08
-1.2993e-07
-2.70701e-08
-1.23222e-07
-2.78344e-08
-1.1636e-07
-2.84964e-08
-1.0937e-07
-2.90459e-08
-1.0228e-07
-2.9472e-08
-9.5123e-08
-2.97635e-08
-8.7932e-08
-2.99091e-08
-8.07438e-08
-2.98974e-08
-7.3597e-08
-2.97167e-08
-6.6533e-08
-2.9356e-08
-5.95947e-08
-2.88045e-08
-5.28274e-08
-2.80524e-08
-4.62774e-08
-2.7091e-08
-3.99923e-08
-2.59137e-08
-3.40199e-08
-2.45162e-08
-2.84076e-08
-2.28974e-08
-2.32015e-08
-2.10611e-08
-1.84453e-08
-1.90168e-08
-1.41789e-08
-1.6782e-08
-1.04369e-08
-1.43846e-08
-7.24743e-09
-1.18658e-08
-4.63067e-09
-9.285e-09
-2.59803e-09
-6.72405e-09
-1.15215e-09
-4.29331e-09
-2.88457e-10
-2.13818e-09
-4.60282e-10
-3.46489e-10
8.2241e-10
-1.34835e-09
3.06003e-09
-2.97741e-09
5.65749e-09
-5.2087e-09
8.44228e-09
-8.01577e-09
1.12819e-08
-1.13691e-08
1.4074e-08
-1.52351e-08
1.67435e-08
-1.95766e-08
1.92384e-08
-2.43533e-08
2.15249e-08
-2.95226e-08
2.35833e-08
-3.5041e-08
2.54047e-08
-4.08646e-08
2.69883e-08
-4.69503e-08
2.83395e-08
-5.32563e-08
2.94676e-08
-5.97423e-08
3.0385e-08
-6.63706e-08
3.11061e-08
-7.31057e-08
3.16458e-08
-7.99148e-08
3.20197e-08
-8.67676e-08
3.22428e-08
-9.36364e-08
3.23296e-08
-1.00496e-07
3.22937e-08
-1.07323e-07
3.21476e-08
-1.14097e-07
3.19028e-08
-1.208e-07
3.15693e-08
-1.27413e-07
3.1156e-08
-1.33922e-07
3.06707e-08
-1.40311e-07
3.01199e-08
-1.46569e-07
2.95092e-08
-1.52682e-07
2.88432e-08
-1.5864e-07
2.81257e-08
-1.64431e-07
2.73598e-08
-1.70047e-07
2.65478e-08
-1.75476e-07
2.56917e-08
-1.8071e-07
2.47927e-08
-1.8574e-07
2.38521e-08
-1.90557e-07
2.28706e-08
-1.95152e-07
2.18486e-08
-1.99517e-07
2.07867e-08
-2.03644e-07
1.96852e-08
-2.07525e-07
1.85442e-08
-2.11151e-07
1.73639e-08
-2.14514e-07
1.61447e-08
-2.17607e-07
1.48868e-08
-2.20422e-07
1.35906e-08
-2.2295e-07
1.22564e-08
-2.25185e-07
1.08851e-08
-2.2712e-07
9.47711e-09
-2.28747e-07
8.03351e-09
-2.30059e-07
6.55533e-09
-2.3105e-07
5.04381e-09
-2.31714e-07
3.50041e-09
-2.32045e-07
1.92684e-09
-2.32038e-07
3.25022e-10
-2.31686e-07
-1.30287e-09
-2.30987e-07
-2.95441e-09
-2.29937e-07
-4.62689e-09
-2.28531e-07
-6.31733e-09
-2.26768e-07
-8.02242e-09
-2.24646e-07
-9.73857e-09
-2.22163e-07
-1.14618e-08
-2.19321e-07
-1.31879e-08
-2.16119e-07
-1.49122e-08
-2.12559e-07
-1.66296e-08
-2.08646e-07
-1.83348e-08
-2.04382e-07
-2.00219e-08
-1.99773e-07
-2.16846e-08
-1.94828e-07
-2.33162e-08
-1.89553e-07
-2.49094e-08
-1.83958e-07
-2.64565e-08
-1.78057e-07
-2.79492e-08
-1.71862e-07
-2.93786e-08
-1.65388e-07
-3.07353e-08
-1.58653e-07
-3.20094e-08
-1.51676e-07
-3.31902e-08
-1.4448e-07
-3.42665e-08
-1.37088e-07
-3.52264e-08
-1.29526e-07
-3.60577e-08
-1.21825e-07
-3.67473e-08
-1.14015e-07
-3.7282e-08
-1.0613e-07
-3.7648e-08
-9.82083e-08
-3.78313e-08
-9.02877e-08
-3.78179e-08
-8.24106e-08
-3.75938e-08
-7.4621e-08
-3.71455e-08
-6.69653e-08
-3.64602e-08
-5.94915e-08
-3.55262e-08
-5.22492e-08
-3.43333e-08
-4.52889e-08
-3.28741e-08
-3.86613e-08
-3.11437e-08
-3.24169e-08
-2.91418e-08
-2.66048e-08
-2.68732e-08
-2.12718e-08
-2.43498e-08
-1.64614e-08
-2.15925e-08
-1.22124e-08
-1.86335e-08
-8.5586e-09
-1.55197e-08
-5.5274e-09
-1.23162e-08
-3.1403e-09
-9.11114e-09
-1.41368e-09
-6.01994e-09
-3.61282e-10
-3.19058e-09
-8.21563e-10
-4.11569e-10
1.23398e-09
-1.58477e-09
4.23323e-09
-3.47083e-09
7.54355e-09
-6.02756e-09
1.0999e-08
-9.2148e-09
1.44692e-08
-1.29922e-08
1.78515e-08
-1.73181e-08
2.10694e-08
-2.21489e-08
2.40692e-08
-2.74394e-08
2.68154e-08
-3.31432e-08
2.92871e-08
-3.92136e-08
3.14751e-08
-4.56041e-08
3.33788e-08
-5.2269e-08
3.50044e-08
-5.91642e-08
3.63628e-08
-6.62477e-08
3.74685e-08
-7.34794e-08
3.83378e-08
-8.08221e-08
3.89885e-08
-8.82409e-08
3.94385e-08
-9.57038e-08
3.97057e-08
-1.03181e-07
3.98071e-08
-1.10646e-07
3.97588e-08
-1.18075e-07
3.95759e-08
-1.25444e-07
3.92718e-08
-1.32733e-07
3.88586e-08
-1.39924e-07
3.83472e-08
-1.47e-07
3.77468e-08
-1.53946e-07
3.70654e-08
-1.60746e-07
3.63098e-08
-1.67389e-07
3.54857e-08
-1.73861e-07
3.45978e-08
-1.80151e-07
3.36497e-08
-1.86248e-07
3.26446e-08
-1.92141e-07
3.15848e-08
-1.9782e-07
3.04721e-08
-2.03276e-07
2.9308e-08
-2.08499e-07
2.80934e-08
-2.13479e-07
2.68291e-08
-2.18208e-07
2.55157e-08
-2.22677e-07
2.41537e-08
-2.26876e-07
2.27434e-08
-2.30797e-07
2.12851e-08
-2.34432e-07
1.97792e-08
-2.37771e-07
1.82262e-08
-2.40807e-07
1.66265e-08
-2.43531e-07
1.49808e-08
-2.45936e-07
1.32898e-08
-2.48014e-07
1.15545e-08
-2.49756e-07
9.77605e-09
-2.51157e-07
7.95574e-09
-2.52208e-07
6.09518e-09
-2.52904e-07
4.19618e-09
-2.53238e-07
2.26085e-09
-2.53204e-07
2.91574e-10
-2.52798e-07
-1.70897e-09
-2.52015e-07
-3.7378e-09
-2.5085e-07
-5.79158e-09
-2.49301e-07
-7.86664e-09
-2.47364e-07
-9.95895e-09
-2.45039e-07
-1.20641e-08
-2.42323e-07
-1.41772e-08
-2.39218e-07
-1.62931e-08
-2.35724e-07
-1.8406e-08
-2.31844e-07
-2.05099e-08
-2.27581e-07
-2.2598e-08
-2.2294e-07
-2.46633e-08
-2.17926e-07
-2.66981e-08
-2.12548e-07
-2.86941e-08
-2.06815e-07
-3.06425e-08
-2.00738e-07
-3.25339e-08
-1.94329e-07
-3.43581e-08
-1.87603e-07
-3.61044e-08
-1.80577e-07
-3.77613e-08
-1.7327e-07
-3.93167e-08
-1.65702e-07
-4.07578e-08
-1.57898e-07
-4.20708e-08
-1.49883e-07
-4.32416e-08
-1.41685e-07
-4.42552e-08
-1.33336e-07
-4.50962e-08
-1.2487e-07
-4.57484e-08
-1.16322e-07
-4.61954e-08
-1.07733e-07
-4.64206e-08
-9.91437e-08
-4.64073e-08
-9.05986e-08
-4.6139e-08
-8.21444e-08
-4.55997e-08
-7.383e-08
-4.47746e-08
-6.57062e-08
-4.36499e-08
-5.78252e-08
-4.22144e-08
-5.024e-08
-4.04592e-08
-4.30042e-08
-3.83795e-08
-3.61709e-08
-3.59751e-08
-2.97922e-08
-3.3252e-08
-2.39181e-08
-3.02239e-08
-1.85959e-08
-2.69147e-08
-1.38693e-08
-2.33601e-08
-9.77788e-09
-1.96111e-08
-6.35702e-09
-1.57371e-08
-3.63834e-09
-1.18298e-08
-1.65136e-09
-8.00692e-09
-4.26329e-10
-4.41561e-09
-1.24789e-09
-4.70867e-10
1.70486e-09
-1.8024e-09
5.56476e-09
-3.92823e-09
9.66938e-09
-6.79075e-09
1.38615e-08
-1.03369e-08
1.80153e-08
-1.45158e-08
2.20304e-08
-1.92774e-08
2.5831e-08
-2.45714e-08
2.93632e-08
-3.03476e-08
3.25915e-08
-3.65554e-08
3.54949e-08
-4.31448e-08
3.80645e-08
-5.00664e-08
4.03004e-08
-5.72723e-08
4.22103e-08
-6.47163e-08
4.38068e-08
-7.23544e-08
4.51065e-08
-8.01448e-08
4.61282e-08
-8.80485e-08
4.68922e-08
-9.60292e-08
4.74192e-08
-1.04053e-07
4.77296e-08
-1.12089e-07
4.78434e-08
-1.2011e-07
4.77792e-08
-1.28088e-07
4.75543e-08
-1.36001e-07
4.71845e-08
-1.43827e-07
4.66842e-08
-1.51545e-07
4.60659e-08
-1.59139e-07
4.53405e-08
-1.66591e-07
4.45176e-08
-1.73887e-07
4.36052e-08
-1.81011e-07
4.26101e-08
-1.87951e-07
4.15378e-08
-1.94694e-07
4.0393e-08
-2.01229e-07
3.91793e-08
-2.07544e-07
3.78996e-08
-2.13628e-07
3.65562e-08
-2.19471e-07
3.51508e-08
-2.25062e-07
3.36848e-08
-2.30392e-07
3.21591e-08
-2.35451e-07
3.05746e-08
-2.40229e-07
2.89319e-08
-2.44717e-07
2.72314e-08
-2.48906e-07
2.54737e-08
-2.52786e-07
2.36593e-08
-2.56348e-07
2.17887e-08
-2.59585e-07
1.98627e-08
-2.62486e-07
1.7882e-08
-2.65044e-07
1.58476e-08
-2.6725e-07
1.37607e-08
-2.69097e-07
1.16227e-08
-2.70576e-07
9.43523e-09
-2.71681e-07
7.20021e-09
-2.72405e-07
4.91987e-09
-2.72741e-07
2.59674e-09
-2.72683e-07
2.33692e-10
-2.72226e-07
-2.16606e-09
-2.71365e-07
-4.59892e-09
-2.70095e-07
-7.0609e-09
-2.68414e-07
-9.54761e-09
-2.66319e-07
-1.20542e-08
-2.63808e-07
-1.45754e-08
-2.60879e-07
-1.71054e-08
-2.57535e-07
-1.96379e-08
-2.53774e-07
-2.21662e-08
-2.49601e-07
-2.4683e-08
-2.45019e-07
-2.71802e-08
-2.40033e-07
-2.96494e-08
-2.3465e-07
-3.20815e-08
-2.28877e-07
-3.44665e-08
-2.22726e-07
-3.67939e-08
-2.16207e-07
-3.90526e-08
-2.09335e-07
-4.12304e-08
-2.02124e-07
-4.33147e-08
-1.94594e-07
-4.52917e-08
-1.86764e-07
-4.7147e-08
-1.78656e-07
-4.88655e-08
-1.70296e-07
-5.0431e-08
-1.61711e-07
-5.18268e-08
-1.52931e-07
-5.30351e-08
-1.43989e-07
-5.40379e-08
-1.34921e-07
-5.48162e-08
-1.25766e-07
-5.53508e-08
-1.16564e-07
-5.56224e-08
-1.0736e-07
-5.56114e-08
-9.82001e-08
-5.52989e-08
-8.91333e-08
-5.46665e-08
-8.02109e-08
-5.3697e-08
-7.14858e-08
-5.2375e-08
-6.30127e-08
-5.06875e-08
-5.4847e-08
-4.86249e-08
-4.70448e-08
-4.61817e-08
-3.9662e-08
-4.33579e-08
-3.27535e-08
-4.01605e-08
-2.63728e-08
-3.66046e-08
-2.05714e-08
-3.27162e-08
-1.53977e-08
-2.85337e-08
-1.08978e-08
-2.4111e-08
-7.11462e-09
-1.95202e-08
-4.08973e-09
-1.48547e-08
-1.86461e-09
-1.0232e-08
-4.83787e-10
-5.79643e-09
-1.73168e-09
-5.24487e-10
2.22935e-09
-2.0012e-09
7.04148e-09
-4.3488e-09
1.2017e-08
-7.49611e-09
1.70089e-08
-1.13782e-08
2.18974e-08
-1.59343e-08
2.65864e-08
-2.1106e-08
3.10027e-08
-2.68366e-08
3.50938e-08
-3.30701e-08
3.88251e-08
-3.9752e-08
4.21768e-08
-4.68287e-08
4.51411e-08
-5.4248e-08
4.77197e-08
-6.19596e-08
4.99218e-08
-6.99152e-08
5.17624e-08
-7.8069e-08
5.32603e-08
-8.63777e-08
5.44369e-08
-9.48007e-08
5.53152e-08
-1.033e-07
5.59188e-08
-1.11841e-07
5.62709e-08
-1.20392e-07
5.6394e-08
-1.28923e-07
5.63097e-08
-1.37406e-07
5.60376e-08
-1.45817e-07
5.55959e-08
-1.54134e-07
5.50009e-08
-1.62335e-07
5.42673e-08
-1.70402e-07
5.34076e-08
-1.78318e-07
5.24329e-08
-1.86065e-07
5.13525e-08
-1.93629e-07
5.01744e-08
-2.00997e-07
4.89051e-08
-2.08154e-07
4.755e-08
-2.15088e-07
4.61135e-08
-2.21787e-07
4.4599e-08
-2.2824e-07
4.30093e-08
-2.34436e-07
4.13465e-08
-2.40363e-07
3.96122e-08
-2.46012e-07
3.78078e-08
-2.51372e-07
3.59343e-08
-2.56432e-07
3.39924e-08
-2.61184e-07
3.19829e-08
-2.65616e-07
2.99063e-08
-2.6972e-07
2.77635e-08
-2.73487e-07
2.5555e-08
-2.76906e-07
2.32818e-08
-2.79969e-07
2.09449e-08
-2.82667e-07
1.85455e-08
-2.84991e-07
1.60849e-08
-2.86933e-07
1.3565e-08
-2.88485e-07
1.09875e-08
-2.8964e-07
8.35496e-09
-2.9039e-07
5.66985e-09
-2.90729e-07
2.93521e-09
-2.90649e-07
1.54421e-10
-2.90147e-07
-2.66874e-09
-2.89216e-07
-5.53004e-09
-2.87852e-07
-8.42479e-09
-2.86051e-07
-1.13478e-08
-2.83812e-07
-1.42935e-08
-2.81132e-07
-1.72555e-08
-2.7801e-07
-2.02272e-08
-2.74447e-07
-2.32011e-08
-2.70444e-07
-2.61694e-08
-2.66004e-07
-2.91233e-08
-2.6113e-07
-3.20537e-08
-2.55829e-07
-3.49505e-08
-2.50108e-07
-3.7803e-08
-2.43974e-07
-4.05997e-08
-2.3744e-07
-4.33283e-08
-2.30517e-07
-4.59756e-08
-2.2322e-07
-4.85276e-08
-2.15565e-07
-5.09693e-08
-2.07572e-07
-5.3285e-08
-1.99261e-07
-5.54577e-08
-1.90657e-07
-5.74698e-08
-1.81785e-07
-5.93026e-08
-1.72676e-07
-6.09365e-08
-1.63359e-07
-6.23514e-08
-1.53871e-07
-6.3526e-08
-1.44249e-07
-6.44388e-08
-1.34532e-07
-6.50676e-08
-1.24764e-07
-6.53902e-08
-1.14991e-07
-6.53844e-08
-1.05261e-07
-6.50285e-08
-9.56263e-08
-6.43016e-08
-8.61389e-08
-6.31844e-08
-7.68544e-08
-6.16595e-08
-6.78296e-08
-5.97123e-08
-5.91223e-08
-5.73322e-08
-5.07911e-08
-5.4513e-08
-4.28944e-08
-5.12546e-08
-3.54904e-08
-4.75644e-08
-2.86362e-08
-4.34589e-08
-2.23871e-08
-3.89652e-08
-1.6797e-08
-3.41238e-08
-1.1918e-08
-2.89901e-08
-7.80059e-09
-2.36376e-08
-4.49537e-09
-1.81599e-08
-2.05443e-09
-1.2673e-08
-5.34199e-10
-7.31666e-09
-2.26587e-09
-5.72771e-10
2.80212e-09
-2.1819e-09
8.65062e-09
-4.73345e-09
1.45685e-08
-8.14437e-09
2.04198e-08
-1.23391e-08
2.60922e-08
-1.72476e-08
3.14949e-08
-2.28035e-08
3.65586e-08
-2.89436e-08
4.12338e-08
-3.56067e-08
4.54882e-08
-4.27337e-08
4.93038e-08
-5.02674e-08
5.26749e-08
-5.81529e-08
5.56052e-08
-6.63374e-08
5.81063e-08
-7.47705e-08
6.01956e-08
-8.34047e-08
6.18945e-08
-9.21952e-08
6.32274e-08
-1.011e-07
6.422e-08
-1.1008e-07
6.48989e-08
-1.191e-07
6.52903e-08
-1.28125e-07
6.54194e-08
-1.37126e-07
6.53104e-08
-1.46074e-07
6.49857e-08
-1.54944e-07
6.44656e-08
-1.63712e-07
6.37689e-08
-1.72356e-07
6.29118e-08
-1.80857e-07
6.19089e-08
-1.89197e-07
6.07727e-08
-1.97359e-07
5.9514e-08
-2.05326e-07
5.81418e-08
-2.13085e-07
5.66637e-08
-2.20621e-07
5.50859e-08
-2.27921e-07
5.34136e-08
-2.34973e-07
5.16507e-08
-2.41764e-07
4.98005e-08
-2.48283e-07
4.78655e-08
-2.54518e-07
4.58478e-08
-2.6046e-07
4.3749e-08
-2.66095e-07
4.15701e-08
-2.71415e-07
3.93124e-08
-2.76409e-07
3.69766e-08
-2.81066e-07
3.45636e-08
-2.85377e-07
3.20742e-08
-2.89331e-07
2.95094e-08
-2.9292e-07
2.68702e-08
-2.96133e-07
2.41578e-08
-2.98961e-07
2.13736e-08
-3.01395e-07
1.85194e-08
-3.03427e-07
1.55971e-08
-3.05049e-07
1.2609e-08
-3.06252e-07
9.5578e-09
-3.07028e-07
6.44657e-09
-3.07372e-07
3.27877e-09
-3.07276e-07
5.83137e-11
-3.06734e-07
-3.21042e-09
-3.05742e-07
-6.52254e-09
-3.04294e-07
-9.87262e-09
-3.02387e-07
-1.32547e-08
-3.00018e-07
-1.66622e-08
-2.97186e-07
-2.0088e-08
-2.93889e-07
-2.35242e-08
-2.90127e-07
-2.69624e-08
-2.85903e-07
-3.03934e-08
-2.81219e-07
-3.38072e-08
-2.7608e-07
-3.71931e-08
-2.70491e-07
-4.05396e-08
-2.64459e-07
-4.38344e-08
-2.57995e-07
-4.70641e-08
-2.51109e-07
-5.02145e-08
-2.43814e-07
-5.32705e-08
-2.36126e-07