/*--------------------------------*- C++ -*----------------------------------*\
  =========                 |
  \\      /  F ield         | OpenFOAM: The Open Source CFD Toolbox
   \\    /   O peration     | Website:  https://openfoam.org
    \\  /    A nd           | Version:  7
     \\/     M anipulation  |
\*---------------------------------------------------------------------------*/
FoamFile
{
    version     2.0;
    format      ascii;
    class       volVectorField;
    location    "0.15625";
    object      U;
}
// * * * * * * * * * * * * * * * * * * * * * * * * * * * * * * * * * * * * * //

dimensions      [0 1 -1 0 0 0 0];

internalField   nonuniform List<vector> 
10000
(
(2.65951e-06 -3.71089e-06 0)
(1.06024e-05 -5.20402e-06 0)
(1.67852e-05 -3.41264e-06 0)
(1.74115e-05 -7.64688e-07 0)
(9.79124e-06 2.16048e-06 0)
(-5.99763e-06 4.97501e-06 0)
(-2.95129e-05 7.4935e-06 0)
(-6.00794e-05 9.67204e-06 0)
(-9.69266e-05 1.15299e-05 0)
(-0.000139273 1.31116e-05 0)
(-0.000186353 1.4458e-05 0)
(-0.000237442 1.55759e-05 0)
(-0.000291873 1.64709e-05 0)
(-0.000349026 1.71741e-05 0)
(-0.000408352 1.77257e-05 0)
(-0.000469372 1.81523e-05 0)
(-0.000531647 1.84635e-05 0)
(-0.000594784 1.86579e-05 0)
(-0.000658444 1.87368e-05 0)
(-0.000722323 1.87205e-05 0)
(-0.000786167 1.86457e-05 0)
(-0.000849757 1.85333e-05 0)
(-0.0009129 1.83798e-05 0)
(-0.000975424 1.81776e-05 0)
(-0.00103718 1.79276e-05 0)
(-0.00109803 1.76368e-05 0)
(-0.00115787 1.73149e-05 0)
(-0.00121659 1.69715e-05 0)
(-0.00127411 1.66119e-05 0)
(-0.00133032 1.6234e-05 0)
(-0.00138514 1.58325e-05 0)
(-0.00143851 1.54053e-05 0)
(-0.00149033 1.49541e-05 0)
(-0.00154054 1.44809e-05 0)
(-0.00158904 1.39863e-05 0)
(-0.00163578 1.34706e-05 0)
(-0.00168066 1.2934e-05 0)
(-0.00172362 1.23754e-05 0)
(-0.00176456 1.17924e-05 0)
(-0.00180342 1.11837e-05 0)
(-0.0018401 1.05498e-05 0)
(-0.00187453 9.89193e-06 0)
(-0.00190662 9.21033e-06 0)
(-0.00193629 8.50384e-06 0)
(-0.00196346 7.77133e-06 0)
(-0.00198804 7.01239e-06 0)
(-0.00200995 6.22688e-06 0)
(-0.00202909 5.41454e-06 0)
(-0.0020454 4.57524e-06 0)
(-0.00205878 3.70963e-06 0)
(-0.00206916 2.81894e-06 0)
(-0.00207646 1.9042e-06 0)
(-0.0020806 9.6596e-07 0)
(-0.00208151 5.04042e-09 0)
(-0.00207914 -9.7686e-07 0)
(-0.00207341 -1.97713e-06 0)
(-0.00206427 -2.99301e-06 0)
(-0.00205169 -4.0222e-06 0)
(-0.00203561 -5.06302e-06 0)
(-0.00201602 -6.11393e-06 0)
(-0.00199287 -7.17279e-06 0)
(-0.00196616 -8.23648e-06 0)
(-0.00193589 -9.30127e-06 0)
(-0.00190205 -1.03634e-05 0)
(-0.00186467 -1.14195e-05 0)
(-0.00182377 -1.24662e-05 0)
(-0.00177941 -1.34994e-05 0)
(-0.00173163 -1.45147e-05 0)
(-0.00168052 -1.55067e-05 0)
(-0.00162615 -1.64701e-05 0)
(-0.00156866 -1.7399e-05 0)
(-0.00150816 -1.82872e-05 0)
(-0.0014448 -1.91279e-05 0)
(-0.00137877 -1.99136e-05 0)
(-0.00131026 -2.06365e-05 0)
(-0.00123949 -2.12883e-05 0)
(-0.00116672 -2.18605e-05 0)
(-0.00109224 -2.23441e-05 0)
(-0.00101635 -2.27294e-05 0)
(-0.000939393 -2.30062e-05 0)
(-0.000861759 -2.31637e-05 0)
(-0.00078386 -2.31904e-05 0)
(-0.000706149 -2.30741e-05 0)
(-0.000629118 -2.28021e-05 0)
(-0.000553297 -2.23614e-05 0)
(-0.000479258 -2.17387e-05 0)
(-0.000407612 -2.09196e-05 0)
(-0.000339013 -1.98888e-05 0)
(-0.000274153 -1.86302e-05 0)
(-0.000213766 -1.71275e-05 0)
(-0.000158616 -1.53646e-05 0)
(-0.000109493 -1.33263e-05 0)
(-6.72004e-05 -1.09999e-05 0)
(-3.25249e-05 -8.38061e-06 0)
(-6.19002e-06 -5.48365e-06 0)
(1.12247e-05 -2.37315e-06 0)
(1.94522e-05 7.8946e-07 0)
(1.89061e-05 3.602e-06 0)
(1.18329e-05 5.15032e-06 0)
(3.55488e-06 3.55491e-06 0)
(3.83444e-06 -1.03219e-05 0)
(1.14377e-05 -1.30784e-05 0)
(1.22989e-05 -4.23517e-06 0)
(-1.54966e-06 9.20954e-06 0)
(-3.38527e-05 2.44008e-05 0)
(-8.55649e-05 3.95687e-05 0)
(-0.000156307 5.38384e-05 0)
(-0.000244895 6.67832e-05 0)
(-0.000349778 7.82526e-05 0)
(-0.000469198 8.82522e-05 0)
(-0.000601342 9.68403e-05 0)
(-0.000744434 0.000104092 0)
(-0.000896762 0.0001101 0)
(-0.00105674 0.000114966 0)
(-0.00122291 0.000118804 0)
(-0.00139396 0.000121736 0)
(-0.00156868 0.00012387 0)
(-0.00174599 0.000125289 0)
(-0.00192494 0.000126066 0)
(-0.00210468 0.000126277 0)
(-0.00228449 0.000126005 0)
(-0.00246372 0.000125325 0)
(-0.00264179 0.000124291 0)
(-0.0028182 0.000122943 0)
(-0.00299249 0.000121312 0)
(-0.0031643 0.000119425 0)
(-0.00333326 0.000117312 0)
(-0.00349906 0.000115001 0)
(-0.00366142 0.000112513 0)
(-0.00382005 0.000109854 0)
(-0.00397472 0.00010703 0)
(-0.00412517 0.000104045 0)
(-0.00427119 0.000100904 0)
(-0.00441254 9.7609e-05 0)
(-0.00454899 9.41598e-05 0)
(-0.00468034 9.05568e-05 0)
(-0.00480634 8.68e-05 0)
(-0.00492679 8.28875e-05 0)
(-0.00504146 7.88161e-05 0)
(-0.00515012 7.45842e-05 0)
(-0.00525255 7.01915e-05 0)
(-0.00534852 6.56372e-05 0)
(-0.00543779 6.09195e-05 0)
(-0.00552015 5.60361e-05 0)
(-0.00559537 5.09866e-05 0)
(-0.0056632 4.57723e-05 0)
(-0.00572343 4.03938e-05 0)
(-0.00577583 3.48514e-05 0)
(-0.00582018 2.9146e-05 0)
(-0.00585626 2.32812e-05 0)
(-0.00588386 1.72629e-05 0)
(-0.00590279 1.10976e-05 0)
(-0.00591283 4.79212e-06 0)
(-0.00591382 -1.64597e-06 0)
(-0.00590559 -8.20662e-06 0)
(-0.00588797 -1.48776e-05 0)
(-0.00586083 -2.16457e-05 0)
(-0.00582405 -2.84977e-05 0)
(-0.00577752 -3.54203e-05 0)
(-0.00572118 -4.2398e-05 0)
(-0.00565495 -4.94135e-05 0)
(-0.00557882 -5.64472e-05 0)
(-0.00549278 -6.3478e-05 0)
(-0.00539684 -7.04838e-05 0)
(-0.00529109 -7.74407e-05 0)
(-0.0051756 -8.4323e-05 0)
(-0.00505053 -9.11023e-05 0)
(-0.00491603 -9.77484e-05 0)
(-0.00477233 -0.000104228 0)
(-0.00461969 -0.000110507 0)
(-0.00445845 -0.000116547 0)
(-0.00428896 -0.000122307 0)
(-0.00411166 -0.000127744 0)
(-0.00392703 -0.00013281 0)
(-0.00373565 -0.000137456 0)
(-0.00353814 -0.00014163 0)
(-0.00333521 -0.000145276 0)
(-0.00312765 -0.000148334 0)
(-0.00291632 -0.000150743 0)
(-0.00270218 -0.000152436 0)
(-0.00248628 -0.000153345 0)
(-0.00226978 -0.000153399 0)
(-0.0020539 -0.000152524 0)
(-0.00184001 -0.000150643 0)
(-0.00162954 -0.00014768 0)
(-0.00142404 -0.000143555 0)
(-0.00122516 -0.000138191 0)
(-0.00103464 -0.00013151 0)
(-0.000854298 -0.00012344 0)
(-0.000686038 -0.000113918 0)
(-0.000531797 -0.000102897 0)
(-0.000393524 -9.0352e-05 0)
(-0.000273117 -7.6305e-05 0)
(-0.000172332 -6.08541e-05 0)
(-9.26311e-05 -4.42387e-05 0)
(-3.49556e-05 -2.69583e-05 0)
(6.39008e-07 -9.97556e-06 0)
(1.55953e-05 4.88573e-06 0)
(1.42517e-05 1.42458e-05 0)
(5.14235e-06 1.18236e-05 0)
(2.7601e-06 -1.61177e-05 0)
(2.99543e-06 -1.29944e-05 0)
(-1.22138e-05 1.0633e-05 0)
(-4.97512e-05 4.46767e-05 0)
(-0.000113602 8.30585e-05 0)
(-0.000205258 0.000121974 0)
(-0.000324404 0.000159234 0)
(-0.000469692 0.000193643 0)
(-0.000639101 0.000224624 0)
(-0.00083029 0.000251972 0)
(-0.00104076 0.000275683 0)
(-0.00126797 0.000295897 0)
(-0.00150944 0.000312807 0)
(-0.00176283 0.000326647 0)
(-0.00202594 0.00033768 0)
(-0.00229675 0.000346178 0)
(-0.00257343 0.000352407 0)
(-0.00285433 0.000356624 0)
(-0.00313793 0.000359048 0)
(-0.00342293 0.000359885 0)
(-0.00370813 0.000359327 0)
(-0.0039925 0.000357552 0)
(-0.00427512 0.000354711 0)
(-0.00455517 0.000350936 0)
(-0.00483193 0.000346332 0)
(-0.00510476 0.000340986 0)
(-0.00537307 0.000334974 0)
(-0.00563634 0.00032836 0)
(-0.0058941 0.000321195 0)
(-0.00614589 0.000313514 0)
(-0.0063913 0.000305341 0)
(-0.00662995 0.000296697 0)
(-0.00686143 0.000287597 0)
(-0.0070854 0.000278048 0)
(-0.00730149 0.000268053 0)
(-0.00750934 0.000257615 0)
(-0.00770859 0.000246732 0)
(-0.00789889 0.000235403 0)
(-0.00807989 0.000223623 0)
(-0.00825124 0.00021139 0)
(-0.00841257 0.000198703 0)
(-0.00856353 0.00018556 0)
(-0.00870376 0.000171958 0)
(-0.0088329 0.000157893 0)
(-0.00895061 0.000143366 0)
(-0.00905652 0.000128382 0)
(-0.00915028 0.000112945 0)
(-0.00923156 9.70597e-05 0)
(-0.00930001 8.07322e-05 0)
(-0.00935531 6.39736e-05 0)
(-0.00939714 4.67992e-05 0)
(-0.0094252 2.9227e-05 0)
(-0.00943919 1.12772e-05 0)
(-0.00943885 -7.02726e-06 0)
(-0.00942392 -2.56588e-05 0)
(-0.00939418 -4.45858e-05 0)
(-0.00934941 -6.37732e-05 0)
(-0.00928945 -8.31837e-05 0)
(-0.00921414 -0.000102777 0)
(-0.00912338 -0.000122509 0)
(-0.00901709 -0.000142329 0)
(-0.00889524 -0.000162185 0)
(-0.00875784 -0.000182016 0)
(-0.00860494 -0.00020176 0)
(-0.00843665 -0.00022135 0)
(-0.00825313 -0.000240711 0)
(-0.00805462 -0.000259765 0)
(-0.00784139 -0.000278426 0)
(-0.00761382 -0.000296601 0)
(-0.00737231 -0.000314194 0)
(-0.0071174 -0.000331097 0)
(-0.00684966 -0.000347197 0)
(-0.0065698 -0.000362373 0)
(-0.00627858 -0.000376495 0)
(-0.0059769 -0.000389424 0)
(-0.00566574 -0.000401014 0)
(-0.00534623 -0.00041111 0)
(-0.00501959 -0.000419547 0)
(-0.00468719 -0.000426153 0)
(-0.00435053 -0.000430748 0)
(-0.00401123 -0.000433142 0)
(-0.00367107 -0.000433141 0)
(-0.003332 -0.000430545 0)
(-0.00299608 -0.000425152 0)
(-0.00266553 -0.000416756 0)
(-0.00234272 -0.000405156 0)
(-0.00203016 -0.000390156 0)
(-0.00173047 -0.000371575 0)
(-0.00144638 -0.000349254 0)
(-0.00118069 -0.000323073 0)
(-0.000936213 -0.000292971 0)
(-0.000715738 -0.000258977 0)
(-0.000521902 -0.000221269 0)
(-0.000357064 -0.000180254 0)
(-0.000223085 -0.000136717 0)
(-0.000121038 -9.20641e-05 0)
(-5.07787e-05 -4.87055e-05 0)
(-1.03389e-05 -1.06423e-05 0)
(5.01253e-06 1.56109e-05 0)
(3.60692e-06 1.88929e-05 0)
(3.8677e-07 -1.56126e-05 0)
(-1.02201e-05 1.87814e-06 0)
(-4.64841e-05 4.84969e-05 0)
(-0.000112947 0.000110839 0)
(-0.00021269 0.00018009 0)
(-0.000346987 0.000250459 0)
(-0.000515472 0.000318302 0)
(-0.000716575 0.000381502 0)
(-0.000947983 0.000438893 0)
(-0.00120693 0.000489932 0)
(-0.00149042 0.000534498 0)
(-0.00179538 0.000572721 0)
(-0.00211876 0.000604894 0)
(-0.00245764 0.000631406 0)
(-0.00280925 0.000652682 0)
(-0.003171 0.000669174 0)
(-0.00354052 0.000681349 0)
(-0.00391566 0.000689665 0)
(-0.00429448 0.000694542 0)
(-0.00467523 0.000696368 0)
(-0.00505634 0.000695491 0)
(-0.00543639 0.000692229 0)
(-0.00581417 0.000686864 0)
(-0.00618855 0.000679646 0)
(-0.00655856 0.000670782 0)
(-0.00692332 0.000660448 0)
(-0.00728202 0.000648791 0)
(-0.00763396 0.000635932 0)
(-0.00797845 0.000621967 0)
(-0.0083149 0.000606968 0)
(-0.00864274 0.000590992 0)
(-0.0089614 0.000574083 0)
(-0.00927039 0.000556272 0)
(-0.00956919 0.000537578 0)
(-0.00985732 0.000518012 0)
(-0.0101343 0.000497582 0)
(-0.0103996 0.000476287 0)
(-0.0106529 0.000454127 0)
(-0.0108935 0.000431098 0)
(-0.0111211 0.000407198 0)
(-0.0113352 0.000382425 0)
(-0.0115353 0.000356777 0)
(-0.0117209 0.000330249 0)
(-0.0118916 0.000302843 0)
(-0.0120469 0.000274561 0)
(-0.0121863 0.000245412 0)
(-0.0123094 0.000215405 0)
(-0.0124158 0.000184554 0)
(-0.012505 0.000152876 0)
(-0.0125765 0.000120394 0)
(-0.0126301 8.71374e-05 0)
(-0.0126652 5.31392e-05 0)
(-0.0126816 1.84395e-05 0)
(-0.0126789 -1.69159e-05 0)
(-0.0126567 -5.28741e-05 0)
(-0.0126148 -8.93755e-05 0)
(-0.0125529 -0.000126355 0)
(-0.0124709 -0.00016374 0)
(-0.0123685 -0.000201453 0)
(-0.0122455 -0.000239407 0)
(-0.012102 -0.000277507 0)
(-0.0119379 -0.000315649 0)
(-0.0117533 -0.00035372 0)
(-0.0115481 -0.000391601 0)
(-0.0113226 -0.000429161 0)
(-0.0110771 -0.000466258 0)
(-0.0108117 -0.000502741 0)
(-0.010527 -0.000538446 0)
(-0.0102234 -0.000573197 0)
(-0.00990144 -0.000606807 0)
(-0.00956188 -0.000639074 0)
(-0.0092055 -0.000669781 0)
(-0.00883321 -0.000698697 0)
(-0.00844606 -0.000725575 0)
(-0.00804522 -0.000750154 0)
(-0.00763202 -0.000772154 0)
(-0.00720792 -0.000791283 0)
(-0.00677455 -0.00080723 0)
(-0.00633371 -0.00081967 0)
(-0.00588737 -0.000828264 0)
(-0.00543766 -0.000832657 0)
(-0.00498691 -0.000832489 0)
(-0.00453764 -0.000827391 0)
(-0.00409254 -0.00081699 0)
(-0.00365447 -0.000800917 0)
(-0.00322649 -0.000778816 0)
(-0.00281179 -0.000750348 0)
(-0.0024137 -0.000715213 0)
(-0.00203567 -0.000673168 0)
(-0.00168119 -0.000624054 0)
(-0.00135374 -0.000567839 0)
(-0.00105669 -0.000504682 0)
(-0.000793217 -0.000435027 0)
(-0.000566075 -0.000359745 0)
(-0.000377416 -0.000280357 0)
(-0.000228472 -0.000199375 0)
(-0.000119141 -0.00012082 0)
(-4.74707e-05 -5.08991e-05 0)
(-9.47772e-06 9.74703e-07 0)
(8.59202e-07 1.95522e-05 0)
(-2.32937e-06 -7.67848e-06 0)
(-2.51249e-05 3.51251e-05 0)
(-8.4996e-05 0.000113224 0)
(-0.000183134 0.000210908 0)
(-0.000321042 0.000317444 0)
(-0.000499445 0.000425269 0)
(-0.000717559 0.000529445 0)
(-0.000973514 0.000626903 0)
(-0.0012647 0.000715854 0)
(-0.00158802 0.000795395 0)
(-0.00194009 0.000865207 0)
(-0.00231743 0.000925367 0)
(-0.00271656 0.000976237 0)
(-0.00313413 0.00101834 0)
(-0.0035669 0.0010523 0)
(-0.00401186 0.00107877 0)
(-0.00446619 0.00109842 0)
(-0.00492733 0.00111193 0)
(-0.00539293 0.00111994 0)
(-0.0058609 0.00112305 0)
(-0.00632932 0.0011218 0)
(-0.00679649 0.00111671 0)
(-0.00726087 0.00110819 0)
(-0.0077211 0.00109663 0)
(-0.00817595 0.00108238 0)
(-0.00862433 0.0010657 0)
(-0.00906523 0.00104684 0)
(-0.00949775 0.001026 0)
(-0.00992105 0.00100333 0)
(-0.0103344 0.00097895 0)
(-0.010737 0.000952966 0)
(-0.0111282 0.000925448 0)
(-0.0115074 0.000896449 0)
(-0.0118739 0.000866006 0)
(-0.0122272 0.000834144 0)
(-0.0125666 0.00080088 0)
(-0.0128915 0.000766218 0)
(-0.0132014 0.00073016 0)
(-0.0134957 0.000692705 0)
(-0.0137737 0.000653854 0)
(-0.014035 0.000613605 0)
(-0.014279 0.000571955 0)
(-0.014505 0.000528905 0)
(-0.0147126 0.000484461 0)
(-0.0149011 0.000438629 0)
(-0.01507 0.000391425 0)
(-0.0152188 0.000342866 0)
(-0.015347 0.000292977 0)
(-0.015454 0.00024179 0)
(-0.0155393 0.000189344 0)
(-0.0156025 0.000135688 0)
(-0.015643 8.08757e-05 0)
(-0.0156605 2.49719e-05 0)
(-0.0156546 -3.19485e-05 0)
(-0.0156249 -8.98005e-05 0)
(-0.015571 -0.000148489 0)
(-0.0154927 -0.00020791 0)
(-0.0153897 -0.000267948 0)
(-0.0152618 -0.000328475 0)
(-0.0151089 -0.000389354 0)
(-0.014931 -0.000450431 0)
(-0.0147279 -0.00051154 0)
(-0.0144998 -0.000572503 0)
(-0.0142467 -0.000633127 0)
(-0.0139689 -0.000693202 0)
(-0.0136668 -0.000752503 0)
(-0.0133406 -0.000810787 0)
(-0.0129909 -0.000867794 0)
(-0.0126183 -0.000923244 0)
(-0.0122236 -0.000976838 0)
(-0.0118075 -0.00102825 0)
(-0.011371 -0.00107715 0)
(-0.0109154 -0.00112315 0)
(-0.0104418 -0.00116588 0)
(-0.00995169 -0.00120491 0)
(-0.00944672 -0.00123981 0)
(-0.00892864 -0.00127011 0)
(-0.00839944 -0.00129532 0)
(-0.00786129 -0.00131493 0)
(-0.00731655 -0.00132842 0)
(-0.00676782 -0.00133522 0)
(-0.00621788 -0.00133479 0)
(-0.00566973 -0.00132655 0)
(-0.00512659 -0.00130993 0)
(-0.00459186 -0.00128439 0)
(-0.00406914 -0.00124938 0)
(-0.0035622 -0.00120443 0)
(-0.00307494 -0.00114911 0)
(-0.00261134 -0.00108311 0)
(-0.00217543 -0.00100626 0)
(-0.00177119 -0.000918606 0)
(-0.00140246 -0.000820503 0)
(-0.00107278 -0.00071274 0)
(-0.000785253 -0.000596737 0)
(-0.000542311 -0.000474821 0)
(-0.000345465 -0.000350634 0)
(-0.000194925 -0.000229701 0)
(-8.91979e-05 -0.000120142 0)
(-2.57945e-05 -3.36624e-05 0)
(-2.17681e-06 1.17043e-05 0)
(-5.03016e-06 8.32376e-06 0)
(-4.03332e-05 8.79821e-05 0)
(-0.000124606 0.000206405 0)
(-0.000255346 0.000346587 0)
(-0.000432176 0.000496406 0)
(-0.00065494 0.000647046 0)
(-0.000922252 0.000792452 0)
(-0.00123179 0.000928706 0)
(-0.00158057 0.00105344 0)
(-0.00196517 0.00116537 0)
(-0.00238191 0.00126397 0)
(-0.00282696 0.00134927 0)
(-0.00329651 0.00142166 0)
(-0.00378683 0.00148177 0)
(-0.00429435 0.00153041 0)
(-0.00481569 0.00156847 0)
(-0.0053477 0.00159686 0)
(-0.00588747 0.00161646 0)
(-0.00643233 0.00162815 0)
(-0.00697986 0.00163277 0)
(-0.00752787 0.00163108 0)
(-0.00807438 0.00162378 0)
(-0.00861761 0.00161149 0)
(-0.00915596 0.00159475 0)
(-0.009688 0.00157403 0)
(-0.0102124 0.00154974 0)
(-0.010728 0.00152222 0)
(-0.0112337 0.00149177 0)
(-0.0117286 0.0014586 0)
(-0.0122117 0.00142292 0)
(-0.0126821 0.00138485 0)
(-0.0131391 0.00134452 0)
(-0.0135819 0.00130201 0)
(-0.0140097 0.00125738 0)
(-0.0144218 0.00121067 0)
(-0.0148175 0.00116191 0)
(-0.0151962 0.00111111 0)
(-0.015557 0.00105828 0)
(-0.0158995 0.00100343 0)
(-0.0162228 0.000946563 0)
(-0.0165264 0.000887677 0)
(-0.0168095 0.000826773 0)
(-0.0170716 0.000763857 0)
(-0.0173119 0.000698942 0)
(-0.0175299 0.000632043 0)
(-0.0177248 0.000563185 0)
(-0.0178962 0.000492395 0)
(-0.0180433 0.000419713 0)
(-0.0181656 0.000345188 0)
(-0.0182625 0.000268882 0)
(-0.0183336 0.000190863 0)
(-0.0183782 0.000111215 0)
(-0.0183959 3.0031e-05 0)
(-0.0183862 -5.25781e-05 0)
(-0.0183488 -0.000136489 0)
(-0.0182832 -0.000221566 0)
(-0.0181892 -0.000307657 0)
(-0.0180665 -0.000394594 0)
(-0.0179149 -0.000482194 0)
(-0.0177342 -0.000570254 0)
(-0.0175243 -0.000658555 0)
(-0.0172853 -0.000746858 0)
(-0.0170173 -0.000834905 0)
(-0.0167204 -0.000922417 0)
(-0.0163949 -0.00100909 0)
(-0.0160411 -0.00109461 0)
(-0.0156595 -0.00117861 0)
(-0.0152508 -0.00126073 0)
(-0.0148156 -0.00134057 0)
(-0.0143548 -0.00141768 0)
(-0.0138695 -0.00149162 0)
(-0.0133606 -0.00156189 0)
(-0.0128297 -0.00162796 0)
(-0.0122781 -0.00168927 0)
(-0.0117075 -0.00174524 0)
(-0.0111199 -0.00179523 0)
(-0.0105172 -0.00183858 0)
(-0.00990172 -0.00187461 0)
(-0.00927601 -0.00190259 0)
(-0.00864277 -0.00192176 0)
(-0.00800494 -0.00193137 0)
(-0.00736572 -0.00193062 0)
(-0.00672852 -0.00191872 0)
(-0.00609699 -0.0018949 0)
(-0.00547498 -0.00185841 0)
(-0.00486653 -0.00180852 0)
(-0.00427587 -0.0017446 0)
(-0.00370734 -0.00166613 0)
(-0.00316537 -0.00157273 0)
(-0.00265441 -0.00146426 0)
(-0.00217883 -0.00134087 0)
(-0.00174282 -0.00120315 0)
(-0.00135027 -0.00105227 0)
(-0.0010046 -0.000890244 0)
(-0.000708588 -0.000720177 0)
(-0.000464152 -0.00054675 0)
(-0.000272054 -0.000376782 0)
(-0.000131575 -0.000219892 0)
(-4.21318e-05 -8.9405e-05 0)
(-5.10238e-06 -4.9028e-06 0)
(-7.53944e-06 3.21517e-05 0)
(-5.50146e-05 0.000160373 0)
(-0.00016339 0.000328196 0)
(-0.000326473 0.000518035 0)
(-0.00054181 0.000716986 0)
(-0.00080826 0.00091536 0)
(-0.00112367 0.00110629 0)
(-0.00148513 0.00128521 0)
(-0.00188921 0.00144922 0)
(-0.00233216 0.0015967 0)
(-0.00280996 0.00172694 0)
(-0.00331852 0.00183993 0)
(-0.00385373 0.00193607 0)
(-0.00441155 0.00201614 0)
(-0.00498814 0.00208109 0)
(-0.00557982 0.00213203 0)
(-0.00618316 0.00217011 0)
(-0.00679499 0.00219648 0)
(-0.00741235 0.00221226 0)
(-0.00803257 0.00221851 0)
(-0.00865321 0.00221625 0)
(-0.00927206 0.00220636 0)
(-0.00988713 0.00218968 0)
(-0.0104966 0.00216693 0)
(-0.0110989 0.00213873 0)
(-0.0116924 0.00210563 0)
(-0.0122759 0.0020681 0)
(-0.0128482 0.00202651 0)
(-0.013408 0.00198119 0)
(-0.0139544 0.00193239 0)
(-0.0144863 0.00188032 0)
(-0.0150029 0.00182513 0)
(-0.0155032 0.00176694 0)
(-0.0159864 0.00170585 0)
(-0.0164517 0.00164192 0)
(-0.0168983 0.00157518 0)
(-0.0173254 0.00150568 0)
(-0.0177322 0.00143342 0)
(-0.018118 0.00135843 0)
(-0.018482 0.00128071 0)
(-0.0188234 0.00120027 0)
(-0.0191416 0.00111711 0)
(-0.0194359 0.00103125 0)
(-0.0197054 0.000942706 0)
(-0.0199494 0.00085151 0)
(-0.0201674 0.000757694 0)
(-0.0203585 0.000661303 0)
(-0.0205222 0.000562394 0)
(-0.0206578 0.000461036 0)
(-0.0207646 0.000357314 0)
(-0.0208421 0.000251324 0)
(-0.0208897 0.000143181 0)
(-0.020907 3.30149e-05 0)
(-0.0208933 -7.90245e-05 0)
(-0.0208482 -0.00019277 0)
(-0.0207715 -0.000308036 0)
(-0.0206626 -0.000424618 0)
(-0.0205214 -0.000542289 0)
(-0.0203477 -0.000660799 0)
(-0.0201412 -0.000779874 0)
(-0.0199019 -0.00089922 0)
(-0.01963 -0.00101851 0)
(-0.0193253 -0.00113741 0)
(-0.0189883 -0.00125552 0)
(-0.0186191 -0.00137246 0)
(-0.0182183 -0.00148777 0)
(-0.0177863 -0.001601 0)
(-0.0173239 -0.00171163 0)
(-0.0168319 -0.00181913 0)
(-0.0163112 -0.00192292 0)
(-0.015763 -0.00202237 0)
(-0.0151886 -0.00211684 0)
(-0.0145896 -0.00220561 0)
(-0.0139674 -0.00228794 0)
(-0.0133241 -0.00236304 0)
(-0.0126618 -0.00243008 0)
(-0.0119827 -0.00248817 0)
(-0.0112893 -0.00253639 0)
(-0.0105846 -0.0025738 0)
(-0.00987144 -0.0025994 0)
(-0.00915315 -0.00261218 0)
(-0.00843326 -0.00261112 0)
(-0.00771552 -0.00259519 0)
(-0.00700393 -0.0025634 0)
(-0.00630272 -0.00251477 0)
(-0.0056163 -0.00244842 0)
(-0.00494926 -0.00236355 0)
(-0.00430632 -0.00225954 0)
(-0.00369225 -0.00213598 0)
(-0.00311185 -0.00199276 0)
(-0.00256981 -0.00183016 0)
(-0.00207065 -0.00164902 0)
(-0.00161858 -0.00145092 0)
(-0.00121736 -0.00123839 0)
(-0.000870179 -0.00101526 0)
(-0.000579503 -0.000787119 0)
(-0.000346806 -0.00056178 0)
(-0.000172346 -0.000349942 0)
(-5.75834e-05 -0.000165914 0)
(-7.76461e-06 -2.98633e-05 0)
(-9.80709e-06 6.33461e-05 0)
(-6.87726e-05 0.000251624 0)
(-0.000200273 0.000477808 0)
(-0.000394595 0.000724421 0)
(-0.000647255 0.000978188 0)
(-0.000956021 0.00122894 0)
(-0.00131787 0.00146932 0)
(-0.00172923 0.00169427 0)
(-0.00218618 0.00190051 0)
(-0.00268455 0.00208615 0)
(-0.00322003 0.00225035 0)
(-0.00378821 0.00239304 0)
(-0.00438475 0.0025147 0)
(-0.00500536 0.00261621 0)
(-0.00564593 0.00269872 0)
(-0.00630256 0.00276353 0)
(-0.00697158 0.00281203 0)
(-0.00764958 0.00284564 0)
(-0.00833339 0.00286574 0)
(-0.00902013 0.00287365 0)
(-0.00970715 0.00287059 0)
(-0.010392 0.00285772 0)
(-0.0110726 0.00283604 0)
(-0.0117469 0.00280648 0)
(-0.0124131 0.00276983 0)
(-0.0130695 0.0027268 0)
(-0.0137148 0.00267797 0)
(-0.0143475 0.00262384 0)
(-0.0149663 0.00256481 0)
(-0.0155701 0.00250123 0)
(-0.0161578 0.00243336 0)
(-0.0167284 0.00236141 0)
(-0.0172809 0.00228556 0)
(-0.0178143 0.00220591 0)
(-0.0183277 0.00212256 0)
(-0.0188202 0.00203558 0)
(-0.0192911 0.00194501 0)
(-0.0197393 0.00185088 0)
(-0.0201641 0.00175322 0)
(-0.0205647 0.00165204 0)
(-0.0209402 0.00154736 0)
(-0.0212899 0.00143919 0)
(-0.0216129 0.00132757 0)
(-0.0219085 0.00121252 0)
(-0.0221758 0.00109408 0)
(-0.0224142 0.000972291 0)
(-0.0226229 0.000847229 0)
(-0.0228011 0.000718967 0)
(-0.0229482 0.000587598 0)
(-0.0230636 0.000453233 0)
(-0.0231465 0.000316 0)
(-0.0231963 0.000176048 0)
(-0.0232126 3.35499e-05 0)
(-0.0231948 -0.000111302 0)
(-0.0231424 -0.000258291 0)
(-0.023055 -0.000407177 0)
(-0.0229323 -0.000557695 0)
(-0.0227739 -0.000709551 0)
(-0.0225797 -0.000862423 0)
(-0.0223494 -0.00101596 0)
(-0.0220832 -0.00116978 0)
(-0.0217809 -0.00132347 0)
(-0.0214428 -0.00147659 0)
(-0.021069 -0.00162864 0)
(-0.02066 -0.0017791 0)
(-0.0202162 -0.00192742 0)
(-0.0197383 -0.002073 0)
(-0.0192271 -0.00221518 0)
(-0.0186834 -0.00235327 0)
(-0.0181083 -0.00248654 0)
(-0.0175031 -0.00261418 0)
(-0.0168692 -0.00273537 0)
(-0.0162083 -0.00284919 0)
(-0.0155222 -0.0029547 0)
(-0.014813 -0.0030509 0)
(-0.0140829 -0.00313671 0)
(-0.0133346 -0.00321103 0)
(-0.0125707 -0.0032727 0)
(-0.0117943 -0.00332052 0)
(-0.0110087 -0.00335323 0)
(-0.0102174 -0.00336957 0)
(-0.00942426 -0.00336828 0)
(-0.00863331 -0.00334808 0)
(-0.00784885 -0.00330773 0)
(-0.00707541 -0.00324606 0)
(-0.00631772 -0.003162 0)
(-0.00558066 -0.00305461 0)
(-0.00486927 -0.00292317 0)
(-0.00418861 -0.00276723 0)
(-0.00354377 -0.00258673 0)
(-0.00293975 -0.00238209 0)
(-0.00238136 -0.00215439 0)
(-0.00187315 -0.00190557 0)
(-0.00141926 -0.00163864 0)
(-0.00102335 -0.00135806 0)
(-0.000688531 -0.00107008 0)
(-0.000417085 -0.000783274 0)
(-0.000210332 -0.000509013 0)
(-7.17378e-05 -0.000262063 0)
(-1.01163e-05 -6.25005e-05 0)
(-1.18651e-05 0.000101369 0)
(-8.147e-05 0.000360659 0)
(-0.000234716 0.000653948 0)
(-0.000458668 0.000964272 0)
(-0.000746928 0.0012784 0)
(-0.00109613 0.00158602 0)
(-0.00150236 0.0018795 0)
(-0.00196131 0.00215351 0)
(-0.00246853 0.00240456 0)
(-0.00301941 0.00263058 0)
(-0.00360929 0.00283064 0)
(-0.00423348 0.00300467 0)
(-0.00488737 0.00315322 0)
(-0.00556645 0.00327733 0)
(-0.00626641 0.00337831 0)
(-0.00698314 0.00345771 0)
(-0.00771276 0.00351715 0)
(-0.00845166 0.00355831 0)
(-0.00919652 0.00358282 0)
(-0.00994424 0.00359228 0)
(-0.010692 0.00358816 0)
(-0.0114373 0.00357183 0)
(-0.0121777 0.00354454 0)
(-0.0129111 0.0035074 0)
(-0.0136355 0.00346139 0)
(-0.0143493 0.00340736 0)
(-0.0150507 0.00334603 0)
(-0.0157384 0.00327802 0)
(-0.0164109 0.00320385 0)
(-0.0170669 0.00312394 0)
(-0.0177053 0.00303862 0)
(-0.0183249 0.00294817 0)
(-0.0189246 0.0028528 0)
(-0.0195035 0.00275267 0)
(-0.0200605 0.00264789 0)
(-0.0205947 0.00253856 0)
(-0.0211051 0.00242475 0)
(-0.0215908 0.0023065 0)
(-0.0220509 0.00218385 0)
(-0.0224845 0.00205683 0)
(-0.0228907 0.00192546 0)
(-0.0232687 0.00178978 0)
(-0.0236176 0.00164982 0)
(-0.0239366 0.00150562 0)
(-0.0242248 0.00135724 0)
(-0.0244814 0.00120475 0)
(-0.0247057 0.00104822 0)
(-0.0248969 0.000887766 0)
(-0.0250542 0.000723497 0)
(-0.025177 0.000555558 0)
(-0.0252645 0.000384112 0)
(-0.0253162 0.000209349 0)
(-0.0253313 3.14829e-05 0)
(-0.0253095 -0.000149244 0)
(-0.0252501 -0.000332561 0)
(-0.0251528 -0.00051817 0)
(-0.0250172 -0.000705738 0)
(-0.0248429 -0.000894899 0)
(-0.0246298 -0.00108525 0)
(-0.0243778 -0.00127637 0)
(-0.0240868 -0.00146776 0)
(-0.0237568 -0.00165892 0)
(-0.023388 -0.0018493 0)
(-0.0229807 -0.00203828 0)
(-0.0225354 -0.00222523 0)
(-0.0220525 -0.00240945 0)
(-0.0215327 -0.00259018 0)
(-0.0209769 -0.00276664 0)
(-0.0203861 -0.00293797 0)
(-0.0197614 -0.00310323 0)
(-0.0191043 -0.00326147 0)
(-0.0184162 -0.00341164 0)
(-0.0176991 -0.00355263 0)
(-0.0169548 -0.00368327 0)
(-0.0161856 -0.00380233 0)
(-0.0153939 -0.00390851 0)
(-0.0145826 -0.00400043 0)
(-0.0137544 -0.0040767 0)
(-0.0129128 -0.00413582 0)
(-0.0120612 -0.00417631 0)
(-0.0112033 -0.00419663 0)
(-0.0103433 -0.00419524 0)
(-0.00948545 -0.00417064 0)
(-0.00863429 -0.00412133 0)
(-0.00779463 -0.00404593 0)
(-0.00697144 -0.00394319 0)
(-0.00616988 -0.00381203 0)
(-0.00539524 -0.00365163 0)
(-0.00465286 -0.00346151 0)
(-0.00394809 -0.00324164 0)
(-0.00328621 -0.00299259 0)
(-0.00267234 -0.00271563 0)
(-0.00211139 -0.00241301 0)
(-0.00160789 -0.00208817 0)
(-0.00116606 -0.00174602 0)
(-0.000789661 -0.00139333 0)
(-0.000481855 -0.00103916 0)
(-0.000245011 -0.000695213 0)
(-8.44574e-05 -0.00037632 0)
(-1.21603e-05 -0.000102041 0)
(-1.37277e-05 0.000145624 0)
(-9.30774e-05 0.000486213 0)
(-0.000266507 0.000854975 0)
(-0.000518209 0.00123573 0)
(-0.000840004 0.00161562 0)
(-0.00122745 0.00198443 0)
(-0.00167573 0.0023345 0)
(-0.00217977 0.00266042 0)
(-0.00273454 0.0029586 0)
(-0.003335 0.00322692 0)
(-0.00397611 0.00346444 0)
(-0.00465288 0.00367114 0)
(-0.00536043 0.00384769 0)
(-0.00609405 0.00399526 0)
(-0.00684923 0.00411541 0)
(-0.00762166 0.00420988 0)
(-0.00840731 0.00428057 0)
(-0.0092024 0.00432942 0)
(-0.0100034 0.00435833 0)
(-0.0108072 0.00436915 0)
(-0.0116107 0.00436363 0)
(-0.0124113 0.00434336 0)
(-0.0132064 0.00430983 0)
(-0.0139938 0.00426435 0)
(-0.0147715 0.00420807 0)
(-0.0155375 0.00414202 0)
(-0.0162902 0.00406707 0)
(-0.017028 0.00398396 0)
(-0.0177493 0.00389331 0)
(-0.0184529 0.00379563 0)
(-0.0191373 0.00369134 0)
(-0.0198015 0.00358077 0)
(-0.0204443 0.00346419 0)
(-0.0210645 0.00334179 0)
(-0.0216611 0.00321374 0)
(-0.022233 0.00308014 0)
(-0.0227794 0.0029411 0)
(-0.023299 0.00279668 0)
(-0.0237911 0.00264692 0)
(-0.0242547 0.00249188 0)
(-0.0246887 0.00233159 0)
(-0.0250924 0.0021661 0)
(-0.0254647 0.00199545 0)
(-0.0258049 0.00181971 0)
(-0.026112 0.00163895 0)
(-0.0263851 0.00145324 0)
(-0.0266235 0.00126271 0)
(-0.0268264 0.00106748 0)
(-0.0269929 0.000867682 0)
(-0.0271223 0.000663508 0)
(-0.0272139 0.000455153 0)
(-0.027267 0.00024285 0)
(-0.027281 2.68604e-05 0)
(-0.0272554 -0.000192521 0)
(-0.0271896 -0.000414967 0)
(-0.0270832 -0.000640114 0)
(-0.0269358 -0.000867558 0)
(-0.026747 -0.00109686 0)
(-0.0265167 -0.00132752 0)
(-0.0262447 -0.00155903 0)
(-0.0259311 -0.00179081 0)
(-0.0255758 -0.00202224 0)
(-0.025179 -0.00225263 0)
(-0.0247411 -0.00248128 0)
(-0.0242626 -0.00270739 0)
(-0.0237439 -0.00293013 0)
(-0.0231859 -0.00314859 0)
(-0.0225894 -0.00336181 0)
(-0.0219556 -0.00356876 0)
(-0.0212857 -0.00376833 0)
(-0.0205812 -0.00395935 0)
(-0.0198437 -0.00414057 0)
(-0.0190751 -0.00431066 0)
(-0.0182776 -0.00446822 0)
(-0.0174535 -0.00461177 0)
(-0.0166056 -0.00473976 0)
(-0.0157365 -0.00485056 0)
(-0.0148496 -0.00494248 0)
(-0.0139482 -0.0050138 0)
(-0.013036 -0.00506272 0)
(-0.0121171 -0.00508744 0)
(-0.0111957 -0.00508617 0)
(-0.0102763 -0.00505712 0)
(-0.00936374 -0.00499858 0)
(-0.00846298 -0.00490894 0)
(-0.00757926 -0.00478677 0)
(-0.00671798 -0.00463083 0)
(-0.00588464 -0.00444021 0)
(-0.00508485 -0.0042144 0)
(-0.00432421 -0.00395339 0)
(-0.00360829 -0.00365784 0)
(-0.00294251 -0.00332921 0)
(-0.00233215 -0.00297 0)
(-0.00178221 -0.00258395 0)
(-0.00129742 -0.00217632 0)
(-0.000882266 -0.00175422 0)
(-0.000540755 -0.00132697 0)
(-0.000276256 -0.000906359 0)
(-9.57511e-05 -0.000507004 0)
(-1.39204e-05 -0.000147702 0)
(-1.53821e-05 0.000195516 0)
(-0.000103612 0.000626943 0)
(-0.000295629 0.00107909 0)
(-0.00057308 0.00153674 0)
(-0.000926191 0.0019876 0)
(-0.00134952 0.00242179 0)
(-0.00183735 0.00283181 0)
(-0.00238387 0.00321233 0)
(-0.00298345 0.00355979 0)
(-0.00363058 0.00387214 0)
(-0.00431984 0.00414851 0)
(-0.00504592 0.004389 0)
(-0.0058037 0.00459442 0)
(-0.00658823 0.00476614 0)
(-0.00739482 0.00490593 0)
(-0.00821899 0.00501579 0)
(-0.00905655 0.0050979 0)
(-0.00990359 0.00515444 0)
(-0.0107565 0.00518763 0)
(-0.0116118 0.00519955 0)
(-0.0124666 0.00519223 0)
(-0.0133179 0.00516751 0)
(-0.0141633 0.0051271 0)
(-0.0150002 0.00507252 0)
(-0.0158266 0.00500513 0)
(-0.0166405 0.0049261 0)
(-0.01744 0.00483647 0)
(-0.0182235 0.0047371 0)
(-0.0189895 0.00462873 0)
(-0.0197364 0.00451196 0)
(-0.0204629 0.00438729 0)
(-0.0211678 0.00425512 0)
(-0.0218497 0.00411576 0)
(-0.0225076 0.00396948 0)
(-0.0231404 0.00381645 0)
(-0.0237468 0.00365684 0)
(-0.0243258 0.00349075 0)
(-0.0248765 0.00331828 0)
(-0.0253978 0.00313948 0)
(-0.0258886 0.00295443 0)
(-0.0263481 0.00276318 0)
(-0.0267751 0.00256579 0)
(-0.0271689 0.00236233 0)
(-0.0275284 0.00215286 0)
(-0.0278527 0.00193749 0)
(-0.028141 0.00171631 0)
(-0.0283923 0.00148946 0)
(-0.0286058 0.0012571 0)
(-0.0287807 0.0010194 0)
(-0.0289163 0.000776565 0)
(-0.0290117 0.00052885 0)
(-0.0290663 0.000276527 0)
(-0.0290794 1.9907e-05 0)
(-0.0290504 -0.00024066 0)
(-0.0289788 -0.000504785 0)
(-0.0288642 -0.000772035 0)
(-0.0287061 -0.00104193 0)
(-0.0285041 -0.00131395 0)
(-0.0282582 -0.00158751 0)
(-0.0279681 -0.001862 0)
(-0.0276338 -0.00213674 0)
(-0.0272555 -0.00241097 0)
(-0.0268332 -0.00268392 0)