/*--------------------------------*- C++ -*----------------------------------*\
  =========                 |
  \\      /  F ield         | OpenFOAM: The Open Source CFD Toolbox
   \\    /   O peration     | Website:  https://openfoam.org
    \\  /    A nd           | Version:  7
     \\/     M anipulation  |
\*---------------------------------------------------------------------------*/
FoamFile
{
    version     2.0;
    format      ascii;
    class       volScalarField;
    location    "0.375";
    object      p;
}
// * * * * * * * * * * * * * * * * * * * * * * * * * * * * * * * * * * * * * //

dimensions      [0 2 -2 0 0 0 0];

internalField   nonuniform List<scalar> 
10000
(
-6.54502e-09
-3.5293e-06
-2.23987e-05
-5.47331e-05
-9.60194e-05
-0.000142646
-0.000191714
-0.000240896
-0.000288318
-0.000332522
-0.000372376
-0.000407002
-0.000435774
-0.000458237
-0.000474043
-0.000482959
-0.00048485
-0.000479633
-0.000467287
-0.000447827
-0.000421266
-0.000387606
-0.000346883
-0.000299185
-0.000244616
-0.000183256
-0.000115168
-4.04146e-05
4.09514e-05
0.000128878
0.000223293
0.000324107
0.000431235
0.000544613
0.000664172
0.000789827
0.000921476
0.001059
0.00120229
0.00135116
0.00150539
0.00166475
0.00182897
0.00199773
0.00217068
0.00234745
0.00252758
0.00271064
0.00289615
0.00308357
0.00327234
0.00346186
0.0036515
0.00384061
0.00402848
0.00421438
0.00439755
0.00457723
0.00475266
0.00492307
0.00508769
0.00524578
0.0053966
0.00553946
0.00567371
0.00579873
0.00591397
0.00601895
0.00611324
0.00619653
0.00626856
0.00632916
0.00637821
0.00641571
0.00644174
0.0064565
0.0064603
0.00645352
0.00643665
0.00641028
0.00637507
0.00633178
0.00628125
0.00622443
0.00616231
0.00609594
0.00602644
0.005955
0.00588286
0.00581135
0.00574182
0.00567569
0.00561442
0.00555951
0.00551252
0.005475
0.00544834
0.00543356
0.00543096
0.00543757
3.06217e-06
-7.0897e-07
-1.69874e-05
-4.37172e-05
-7.76214e-05
-0.000115985
-0.000156641
-0.000197631
-0.000237346
-0.00027446
-0.000307883
-0.000336788
-0.00036052
-0.000378573
-0.000390596
-0.00039633
-0.000395575
-0.000388198
-0.000374128
-0.000353345
-0.000325847
-0.000291628
-0.000250696
-0.000203093
-0.000148873
-8.8096e-05
-2.0836e-05
5.28412e-05
0.000132888
0.000219256
0.000311873
0.000410654
0.000515523
0.000626414
0.000743248
0.000865924
0.000994336
0.00112837
0.00126789
0.00141272
0.00156265
0.00171742
0.00187677
0.00204039
0.00220794
0.00237903
0.00255324
0.00273014
0.00290926
0.0030901
0.0032721
0.0034547
0.00363729
0.00381926
0.00399994
0.00417862
0.00435458
0.00452712
0.00469551
0.00485904
0.00501699
0.00516866
0.00531336
0.00545046
0.00557935
0.00569946
0.00581028
0.00591137
0.00600235
0.00608295
0.00615293
0.00621214
0.0062605
0.006298
0.00632474
0.00634092
0.00634684
0.00634289
0.00632954
0.00630732
0.00627688
0.00623895
0.00619433
0.00614391
0.00608863
0.00602949
0.00596752
0.00590385
0.00583964
0.0057761
0.00571447
0.005656
0.00560197
0.00555366
0.00551232
0.00547917
0.00545518
0.00544099
0.00543751
0.00544415
2.09942e-05
1.44928e-05
-1.81298e-06
-2.61951e-05
-5.61755e-05
-8.97513e-05
-0.000125131
-0.000160715
-0.000195129
-0.00022717
-0.000255887
-0.000280498
-0.000300352
-0.000314965
-0.000323975
-0.000327115
-0.000324182
-0.000315011
-0.000299486
-0.000277561
-0.000249218
-0.000214455
-0.000173281
-0.000125709
-7.17545e-05
-1.14608e-05
5.51069e-05
0.00012789
0.000206843
0.000291911
0.000383021
0.000480097
0.000583074
0.000691885
0.00080644
0.00092663
0.00105235
0.00118349
0.00131991
0.00146141
0.00160778
0.00175878
0.00191416
0.00207362
0.00223679
0.0024033
0.00257276
0.00274474
0.00291879
0.00309441
0.00327108
0.00344824
0.00362533
0.00380174
0.00397682
0.00414989
0.00432027
0.00448729
0.00465026
0.0048085
0.00496132
0.00510806
0.00524807
0.00538076
0.00550554
0.00562188
0.00572928
0.00582736
0.00591577
0.00599424
0.00606259
0.00612065
0.00616836
0.00620573
0.00623288
0.00625
0.00625739
0.00625543
0.00624456
0.0062253
0.00619829
0.00616421
0.00612387
0.00607809
0.00602777
0.00597386
0.00591735
0.00585929
0.00580078
0.00574294
0.0056869
0.00563379
0.00558474
0.00554088
0.00550329
0.00547299
0.00545078
0.00543726
0.00543392
0.0054416
5.21441e-05
4.01091e-05
2.13979e-05
-2.98419e-06
-3.1605e-05
-6.28345e-05
-9.52006e-05
-0.0001274
-0.000158235
-0.000186706
-0.000211968
-0.000233301
-0.000250134
-0.000262007
-0.000268558
-0.000269529
-0.000264726
-0.000253993
-0.000237206
-0.000214283
-0.000185182
-0.000149901
-0.000108456
-6.0854e-05
-7.10123e-06
5.27706e-05
0.000118718
0.000190705
0.000268689
0.00035261
0.000442393
0.000537972
0.000639291
0.000746275
0.000858827
0.000976841
0.00110022
0.00122885
0.00136257
0.00150118
0.00164449
0.00179226
0.00194425
0.00210015
0.00225961
0.00242227
0.00258777
0.00275567
0.00292553
0.00309687
0.00326917
0.00344192
0.00361456
0.00378649
0.00395706
0.00412564
0.00429157
0.0044542
0.00461287
0.00476692
0.00491568
0.00505853
0.00519484
0.00532404
0.00544558
0.00555892
0.00566361
0.00575927
0.0058456
0.00592234
0.00598931
0.00604636
0.00609343
0.00613056
0.00615787
0.00617556
0.00618392
0.00618332
0.00617417
0.00615701
0.00613242
0.00610112
0.00606385
0.00602142
0.0059747
0.00592458
0.00587203
0.00581803
0.00576361
0.00570982
0.0056577
0.00560828
0.0055626
0.00552166
0.00548645
0.00545786
0.0054366
0.00542332
0.00541975
0.00542719
9.27168e-05
7.31781e-05
5.04521e-05
2.45563e-05
-4.17341e-06
-3.44577e-05
-6.51015e-05
-9.50235e-05
-0.000123281
-0.000149032
-0.000171525
-0.000190156
-0.00020443
-0.000213932
-0.00021833
-0.000217367
-0.000210854
-0.000198658
-0.00018067
-0.0001568
-0.000126995
-9.12399e-05
-4.95342e-05
-1.88311e-06
5.16947e-05
0.000111172
0.00017653
0.000247751
0.000324795
0.000407601
0.000496106
0.000590258
0.000689996
0.000795237
0.000905878
0.00102183
0.00114299
0.00126923
0.0014004
0.00153629
0.00167673
0.00182149
0.00197032
0.00212293
0.00227898
0.00243813
0.00260001
0.00276422
0.00293031
0.00309781
0.00326623
0.00343507
0.00360377
0.00377175
0.00393837
0.00410302
0.00426507
0.00442389
0.00457883
0.00472925
0.00487451
0.005014
0.00514712
0.00527332
0.00539205
0.00550279
0.00560512
0.00569868
0.00578317
0.00585836
0.00592405
0.00598013
0.00602654
0.00606334
0.00609064
0.00610866
0.00611768
0.00611804
0.00611016
0.00609457
0.00607185
0.00604268
0.00600779
0.00596798
0.00592407
0.00587693
0.00582747
0.00577664
0.0057254
0.00567472
0.00562557
0.00557891
0.00553567
0.00549678
0.00546311
0.00543545
0.00541447
0.00540079
0.00539604
0.00540146
0.000139403
0.000111259
8.33983e-05
5.48679e-05
2.4876e-05
-5.60534e-06
-3.55673e-05
-6.41924e-05
-9.07433e-05
-0.000114521
-0.000134912
-0.000151406
-0.000163575
-0.000171073
-0.00017362
-0.000170977
-0.000162964
-0.000149454
-0.000130353
-0.000105592
-7.51295e-05
-3.89392e-05
2.998e-06
5.06767e-05
0.000104075
0.000163181
0.000227988
0.000298478
0.000374615
0.000456349
0.000543636
0.00063643
0.000734662
0.000838241
0.000947078
0.00106109
0.00118016
0.00130417
0.00143294
0.0015663
0.00170408
0.00184606
0.00199199
0.0021416
0.00229455
0.00245053
0.00260918
0.0027701
0.00293284
0.00309696
0.00326199
0.00342742
0.00359271
0.00375727
0.0039205
0.00408179
0.00424054
0.00439612
0.0045479
0.00469525
0.00483756
0.00497423
0.00510468
0.00522835
0.0053447
0.00545325
0.00555357
0.00564533
0.00572823
0.00580205
0.0058666
0.00592175
0.00596749
0.00600387
0.00603102
0.00604913
0.00605849
0.00605944
0.0060524
0.00603789
0.00601648
0.00598884
0.00595569
0.00591779
0.00587593
0.00583098
0.00578379
0.00573528
0.00568634
0.00563789
0.00559084
0.00554606
0.00550443
0.00546677
0.00543385
0.00540639
0.00538501
0.00537028
0.00536349
0.00536556
0.000189344
0.000152089
0.000118422
8.64282e-05
5.42613e-05
2.27007e-05
-7.46955e-06
-3.56443e-05
-6.12393e-05
-8.37224e-05
-0.00010262
-0.000117509
-0.000128034
-0.000133908
-0.000134905
-0.000130832
-0.000121533
-0.000106888
-8.68129e-05
-6.12588e-05
-3.01976e-05
6.39551e-06
4.85341e-05
9.62132e-05
0.000149423
0.000208169
0.000272448
0.000342236
0.000417504
0.000498225
0.000584363
0.000675867
0.000772668
0.000874683
0.00098183
0.00109402
0.00121115
0.00133307
0.00145963
0.00159067
0.00172602
0.00186548
0.0020088
0.00215571
0.00230591
0.0024591
0.00261491
0.00277294
0.00293279
0.003094
0.00325613
0.00341867
0.00358108
0.00374278
0.00390318
0.00406169
0.00421772
0.00437065
0.00451984
0.0046647
0.00480461
0.00493901
0.00506729
0.00518891
0.00530334
0.00541009
0.00550878
0.00559905
0.00568062
0.00575327
0.00581679
0.0058711
0.00591616
0.00595205
0.00597888
0.00599687
0.00600628
0.00600747
0.00600085
0.00598694
0.00596631
0.00593962
0.00590756
0.00587088
0.00583037
0.00578683
0.00574112
0.0056941
0.00564663
0.00559958
0.00555379
0.00551008
0.00546925
0.00543205
0.00539916
0.00537123
0.00534882
0.00533247
0.005323
0.00532087
0.000240083
0.000193645
0.000153804
0.000117791
8.28355e-05
4.95089e-05
1.84339e-05
-9.9514e-06
-3.52243e-05
-5.69962e-05
-7.49114e-05
-8.86551e-05
-9.79506e-05
-0.000102561
-0.000102304
-9.70405e-05
-8.66503e-05
-7.10359e-05
-5.01339e-05
-2.39081e-05
7.66874e-06
4.46089e-05
8.69072e-05
0.000134562
0.000187582
0.000245972
0.000309731
0.000378839
0.000453278
0.000533035
0.000618083
0.000708364
0.000803806
0.000904346
0.00100991
0.00112041
0.00123572
0.00135571
0.00148024
0.00160916
0.00174232
0.00187951
0.00202049
0.00216502
0.00231281
0.00246356
0.0026169
0.00277246
0.00292984
0.00308861
0.00324832
0.00340846
0.00356849
0.00372785
0.00388596
0.00404225
0.00419612
0.00434694
0.0044941
0.00463701
0.00477507
0.00490769
0.00503429
0.00515432
0.00526724
0.00537261
0.00547
0.00555909
0.00563959
0.00571125
0.00577389
0.00582741
0.00587181
0.00590714
0.00593354
0.0059512
0.0059604
0.0059615
0.00595493
0.00594118
0.00592085
0.00589456
0.00586301
0.00582693
0.00578707
0.00574425
0.00569928
0.005653
0.00560625
0.00555984
0.00551456
0.00547119
0.00543044
0.00539301
0.00535952
0.00533055
0.00530661
0.00528816
0.00527556
0.00526876
0.00028961
0.000234122
0.000187971
0.000147643
0.000109456
7.38604e-05
4.13798e-05
1.22694e-05
-1.3203e-05
-3.47541e-05
-5.21313e-05
-6.51245e-05
-7.35425e-05
-7.72104e-05
-7.59881e-05
-6.97726e-05
-5.84825e-05
-4.20614e-05
-2.04717e-05
6.31434e-06
3.83123e-05
7.55201e-05
0.000117925
0.000165528
0.000218347
0.000276384
0.000339626
0.000408069
0.000481719
0.000560562
0.000644563
0.00073367
0.000827829
0.000926988
0.00103107
0.00113998
0.0012536
0.00137181
0.00149449
0.0016215
0.00175269
0.00188785
0.00202677
0.00216923
0.00231493
0.00246358
0.00261484
0.00276831
0.00292364
0.00308041
0.00323815
0.00339635
0.0035545
0.00371203
0.00386838
0.00402296
0.00417519
0.00432444
0.0044701
0.00461158
0.00474829
0.00487964
0.00500502
0.00512389
0.00523573
0.00534008
0.00543653
0.00552474
0.0056044
0.00567526
0.00573716
0.00578999
0.00583374
0.00586848
0.00589433
0.00591149
0.00592026
0.00592098
0.00591411
0.00590015
0.00587966
0.00585329
0.0058217
0.00578562
0.00574581
0.00570304
0.00565814
0.00561193
0.0055652
0.00551874
0.0054733
0.00542958
0.00538827
0.00535001
0.00531539
0.0052849
0.00525901
0.00523813
0.00522212
0.00521047
0.00033626
0.000271979
0.000219556
0.000174733
0.000133034
9.48367e-05
6.05669e-05
3.03301e-05
4.2607e-06
-1.74684e-05
-3.46956e-05
-4.72876e-05
-5.5136e-05
-5.81382e-05
-5.62034e-05
-4.92614e-05
-3.72711e-05
-2.02131e-05
1.92857e-06
2.91665e-05
6.14889e-05
9.88775e-05
0.000141332
0.000188857
0.000241454
0.000299118
0.000361851
0.000429658
0.000502546
0.000580505
0.000663499
0.000751488
0.000844434
0.000942292
0.00104498
0.0011524
0.00126446
0.00138104
0.00150205
0.00162735
0.00175678
0.00189017
0.00202731
0.00216798
0.00231192
0.00245881
0.00260832
0.00276011
0.0029138
0.00306898
0.00322518
0.00338191
0.00353865
0.00369484
0.00384992
0.00400332
0.00415441
0.0043026
0.00444727
0.00458783
0.00472369
0.00485423
0.00497885
0.005097
0.00520816
0.00531188
0.00540772
0.00549533
0.0055744
0.00564468
0.00570598
0.0057582
0.00580134
0.00583547
0.00586069
0.00587722
0.00588535
0.00588545
0.00587798
0.00586343
0.00584239
0.00581546
0.00578334
0.00574672
0.00570636
0.00566305
0.00561761
0.00557083
0.00552349
0.00547634
0.00543009
0.00538542
0.00534299
0.00530339
0.00526716
0.00523476
0.00520659
0.00518302
0.00516346
0.005147
0.000378641
0.000305907
0.000247296
0.00019792
0.000152575
0.000111543
7.51926e-05
4.35244e-05
1.65527e-05
-5.66648e-06
-2.30565e-05
-3.55496e-05
-4.31058e-05
-4.56873e-05
-4.32565e-05
-3.57941e-05
-2.32954e-05
-5.76049e-06
1.67988e-05
4.43622e-05
7.69058e-05
0.000114406
0.000156854
0.000204254
0.000256599
0.000313879
0.000376103
0.000443288
0.000515441
0.000592541
0.000674563
0.000761487
0.000853287
0.000949917
0.00105129
0.00115733
0.00126794
0.00138306
0.00150257
0.00162634
0.00175423
0.00188608
0.00202171
0.0021609
0.00230336
0.00244882
0.00259695
0.00274742
0.00289986
0.00305386
0.00320896
0.00336466
0.00352044
0.00367578
0.00383008
0.00398277
0.00413323
0.00428086
0.00442504
0.00456518
0.00470065
0.00483085
0.00495516
0.00507302
0.00518392
0.00528737
0.00538294
0.00547025
0.00554899
0.00561888
0.00567974
0.00573147
0.00577406
0.00580757
0.00583211
0.0058479
0.00585522
0.00585447
0.00584611
0.00583066
0.00580867
0.00578076
0.00574762
0.00570995
0.00566852
0.00562413
0.00557757
0.00552963
0.00548109
0.00543265
0.00538502
0.00533885
0.00529479
0.00525339
0.00521516
0.0051805
0.00514979
0.00512335
0.00510022
0.00507912
0.000415577
0.000334731
0.000270082
0.000216182
0.000167123
0.000123121
8.44941e-05
5.11595e-05
2.30367e-05
8.56949e-08
-1.77093e-05
-3.03514e-05
-3.78513e-05
-4.02312e-05
-3.75074e-05
-2.97073e-05
-1.68661e-05
9.9048e-07
2.38302e-05
5.16004e-05
8.42604e-05
0.000121793
0.000164183
0.00021141
0.000263461
0.000320338
0.000382056
0.000448629
0.000520052
0.000596312
0.000677401
0.000763314
0.000854026
0.000949489
0.00104963
0.00115438
0.00126369
0.00137748
0.00149565
0.00161808
0.00174465
0.0018752
0.00200957
0.00214754
0.00228883
0.00243317
0.00258026
0.00272978
0.00288135
0.00303458
0.00318898
0.00334408
0.00349937
0.0036543
0.00380829
0.00396075
0.00411107
0.00425863
0.00440281
0.004543
0.00467857
0.00480889
0.00493334
0.00505134
0.00516238
0.00526594
0.00536158
0.0054489
0.00552755
0.00559727
0.00565787
0.00570923
0.00575134
0.00578425
0.00580808
0.00582302
0.00582939
0.0058276
0.00581811
0.00580143
0.00577813
0.00574884
0.00571424
0.00567506
0.00563208
0.00558608
0.00553788
0.00548824
0.00543793
0.00538766
0.00533811
0.00528995
0.00524379
0.0052002
0.00515961
0.0051224
0.00508893
0.00505952
0.00503287
0.00500739
0.000446014
0.000357422
0.000286941
0.000228566
0.000175774
0.000128742
8.77266e-05
5.2557e-05
2.3089e-05
-7.88247e-07
-1.91808e-05
-3.21678e-05
-3.9806e-05
-4.21694e-05
-3.93385e-05
-3.13755e-05
-1.83379e-05
-2.95206e-07
2.26835e-05
5.05389e-05
8.32275e-05
0.000120717
0.000162975
0.00020997
0.000261691
0.00031815
0.000379355
0.000445307
0.000516002
0.000591442
0.000671636
0.000756584
0.000846257
0.000940613
0.0010396
0.00114318
0.0012513
0.0013639
0.00148089
0.00160215
0.0017276
0.00185709
0.00199045
0.00212745
0.00226785
0.00241139
0.00255778
0.0027067
0.00285777
0.0030106
0.00316471
0.00331964
0.00347487
0.00362985
0.00378399
0.00393669
0.00408733
0.0042353
0.00437996
0.00452068
0.00465682
0.00478772
0.00491275
0.00503133
0.00514291
0.00524698
0.00534303
0.00543065
0.00550948
0.00557926
0.00563978
0.00569091
0.00573264
0.00576499
0.00578808
0.00580211
0.00580741
0.0058044
0.00579354
0.00577536
0.00575043
0.00571938
0.00568292
0.0056418
0.0055968
0.00554873
0.00549837
0.00544651
0.0053939
0.00534128
0.00528933
0.00523873
0.00519007
0.00514389
0.00510062
0.00506061
0.00502423
0.0049918
0.00496174
0.00493217
0.000469018
0.000373062
0.000296963
0.000234208
0.000177708
0.000127618
8.41508e-05
4.70514e-05
1.61042e-05
-8.86139e-06
-2.80087e-05
-4.14858e-05
-4.94256e-05
-5.19453e-05
-4.91607e-05
-4.1177e-05
-2.80916e-05
-1.00057e-05
1.299e-05
4.08279e-05
7.34536e-05
0.000110814
0.00015286
0.000199565
0.000250922
0.000306937
0.000367604
0.000432919
0.000502889
0.000577532
0.000656865
0.000740882
0.000829559
0.000922872
0.00102079
0.0011233
0.00123036
0.00134189
0.00145784
0.00157812
0.00170265
0.00183128
0.00196385
0.00210015
0.00223994
0.00238298
0.00252899
0.00267764
0.00282858
0.00298138
0.0031356
0.00329076
0.00344635
0.00360182
0.00375655
0.00390994
0.00406137
0.00421022
0.00435584
0.00449756
0.00463474
0.00476668
0.00489275
0.00501235
0.00512489
0.00522983
0.00532665
0.00541488
0.00549418
0.00556426
0.0056249
0.00567597
0.00571742
0.00574927
0.00577162
0.0057847
0.00578884
0.00578445
0.00577202
0.00575208
0.00572521
0.00569206
0.00565338
0.00560992
0.00556248
0.00551186
0.00545887
0.00540429
0.00534891
0.00529346
0.00523866
0.00518518
0.00513362
0.00508451
0.00503826
0.00499523
0.00495581
0.00492034
0.00488699
0.00485365
0.00048378
0.0003808
0.000299307
0.000232307
0.000172154
0.000119005
7.30611e-05
3.39782e-05
1.46853e-06
-2.46899e-05
-4.47173e-05
-5.88217e-05
-6.71949e-05
-7.00055e-05
-6.74033e-05
-5.95339e-05
-4.65377e-05
-2.85388e-05
-5.63684e-06
2.20862e-05
5.45522e-05
9.16899e-05
0.00013345
0.00017981
0.00023076
0.000286289
0.000346383
0.000411043
0.000480293
0.000554159
0.000632651
0.000715765
0.00080349
0.000895827
0.000992769
0.0010943
0.00120039
0.00131099
0.00142604
0.00154551
0.0016693
0.00179727
0.00192927
0.0020651
0.00220455
0.00234738
0.00249332
0.00264203
0.00279315
0.00294629
0.003101
0.0032568
0.00341317
0.00356954
0.0037253
0.00387983
0.00403253
0.00418273
0.00432978
0.00447297
0.00461165
0.0047451
0.00487267
0.00499373
0.00510766
0.00521387
0.0053118
0.00540099
0.00548106
0.00555171
0.0056127
0.00566388
0.00570517
0.00573659
0.00575825
0.00577036
0.00577325
0.00576737
0.00575319
0.00573126
0.00570218
0.00566663
0.00562537
0.00557919
0.0055289
0.0054753
0.00541922
0.00536146
0.00530283
0.0052441
0.00518602
0.00512926
0.00507442
0.00502204
0.00497254
0.00492629
0.00488372
0.0048452
0.00480868
0.00477186
0.00048957
0.000379871
0.0002932
0.000222104
0.000158395
0.00010222
5.37905e-05
1.27012e-05
-2.14192e-05
-4.88434e-05
-6.9842e-05
-8.46851e-05
-9.36068e-05
-9.68198e-05
-9.45192e-05
-8.68923e-05
-7.41077e-05
-5.63045e-05
-3.35978e-05
-6.09303e-06
2.61108e-05
6.29367e-05
0.000104341
0.000150299
0.000200784
0.000255773
0.000315255
0.000379247
0.00044778
0.000520874
0.000598535
0.000680769
0.000767588
0.000859014
0.000955051
0.00105569
0.0011609
0.00127068
0.00138499
0.0015038
0.00162701
0.00175451
0.00188614
0.00202173
0.00216109
0.00230398
0.00245013
0.0025992
0.00275085
0.00290467
0.00306024
0.00321706
0.00337461
0.00353229
0.00368951
0.00384564
0.00400006
0.00415209
0.00430103
0.00444617
0.00458682
0.00472226
0.0048518
0.00497477
0.00509051
0.0051984
0.00529783
0.00538834
0.00546951
0.00554103
0.00560262
0.00565411
0.0056954
0.0057265
0.00574751
0.00575865
0.00576027
0.00575279
0.00573671
0.00571258
0.00568104
0.0056428
0.00559864
0.00554938
0.00549584
0.00543884
0.00537923
0.00531785
0.00525554
0.00519311
0.00513132
0.00507087
0.00501238
0.00495639
0.00490338
0.00485373
0.0048079
0.00476629
0.0047267
0.00468666
0.000485709
0.000369601
0.000277949
0.000202894
0.000135751
7.66236e-05
2.57194e-05
-1.73897e-05
-5.31404e-05
-8.18805e-05
-0.000103927
-0.000119591
-0.000129153
-0.00013287
-0.000130984
-0.000123713
-0.000111243
-9.37298e-05
-7.13189e-05
-4.41398e-05
-1.22959e-05
2.41399e-05
6.51201e-05
0.000110604
0.000160553
0.000214943
0.00027378
0.000337086
0.000404889
0.0004772
0.000554032
0.000635408
0.000721366
0.000811935
0.000907124
0.00100693
0.00111137
0.00122043
0.00133413
0.00145241
0.00157519
0.00170237
0.00183383
0.0019694
0.00210891
0.00225211
0.00239873
0.00254845
0.00270093
0.00285578
0.00301256
0.00317077
0.00332987
0.00348928
0.00364839
0.00380658
0.00396318
0.0041175
0.00426881
0.00441637
0.00455948
0.00469739
0.00482938
0.00495473
0.00507273
0.00518272
0.00528408
0.00537629
0.00545892
0.00553163
0.00559411
0.00564614
0.0056876
0.00571851
0.00573896
0.00574918
0.0057495
0.00574034
0.00572223
0.00569573
0.00566151
0.00562031
0.00557294
0.00552025
0.00546307
0.00540226
0.0053387
0.00527327
0.00520686
0.00514031
0.00507439
0.00500985
0.00494733
0.00488743
0.00483065
0.00477739
0.00472818
0.00468343
0.00464083
0.00459778
0.000471577
0.000349355
0.000252927
0.000174046
0.000103576
4.15856e-05
-1.17422e-05
-5.68659e-05
-9.42673e-05
-0.000124359
-0.000147506
-0.000164055
-0.000174335
-0.000178653
-0.000177281
-0.000170456
-0.000158388
-0.000141263
-0.000119252
-9.24958e-05
-6.10967e-05
-2.51281e-05
1.53473e-05
6.02729e-05
0.00010961
0.000163349
0.000221504
0.000284094
0.000351134
0.000422639
0.00049864
0.000579181
0.000664306
0.000754051
0.000848431
0.000947471
0.00105121
0.00115966
0.00127284
0.00139071
0.00151319
0.00164021
0.00177167
0.00190742
0.00204728
0.00219101
0.00233835
0.00248898
0.00264259
0.00279878
0.0029571
0.00311705
0.00327809
0.00343964
0.00360108
0.00376176
0.003921
0.00407808
0.00423223
0.00438271
0.00452877
0.00466966
0.00480459
0.00493279
0.00505352
0.00516607
0.0052698
0.00536414
0.00544864
0.00552289
0.00558655
0.00563938
0.00568124
0.00571213
0.00573214
0.0057415
0.00574053
0.00572966
0.00570941
0.00568039
0.00564329
0.00559887
0.00554799
0.00549152
0.00543033
0.00536532
0.00529741
0.00522752
0.00515657
0.00508547
0.00501501
0.00494598
0.00487908
0.00481494
0.0047541
0.00469702
0.00464426
0.0045963
0.00455072
0.00450481
0.000446584
0.000318538
0.000217544
0.000134971
6.12726e-05
-3.48989e-06
-5.91742e-05
-0.000106292
-0.000145357
-0.000176821
-0.000201103
-0.000218595
-0.000229671
-0.000234668
-0.000233885
-0.000227585
-0.000216007
-0.00019937
-0.000177856
-0.000151608
-0.000120731
-8.5315e-05
-4.54402e-05
-1.16167e-06
4.74954e-05
0.000100531
0.000157954
0.000219774
0.000286006
0.000356679
0.000431843
0.000511552
0.000595851
0.000684782
0.000778384
0.000876708
0.000979813
0.00108773
0.00120047
0.00131801
0.00144031
0.00156731
0.00169892
0.00183502
0.0019754
0.00211986
0.00226814
0.00241994
0.00257495
0.00273277
0.00289294
0.00305497
0.00321832
0.00338241
0.00354659
0.00371021
0.00387255
0.00403284
0.00419032
0.00434421
0.00449374
0.0046381
0.00477647
0.00490803
0.00503199
0.0051476
0.00525417
0.00535111
0.0054379
0.00551408
0.00557928
0.0056332
0.00567572
0.00570681
0.00572655
0.00573516
0.00573294
0.00572034
0.00569789
0.00566622
0.00562605
0.00557819
0.00552352
0.00546294
0.00539739
0.00532779
0.00525512
0.00518035
0.00510445
0.00502836
0.00495295
0.00487903
0.00480737
0.00473864
0.00467346
0.0046123
0.00455579
0.00450451
0.00445593
0.00440724
0.000410182
0.000276581
0.00017123
8.5114e-05
8.29455e-06
-5.91604e-05
-0.000117143
-0.000166221
-0.000206941
-0.000239792
-0.000265241
-0.00028373
-0.000295664
-0.000301405
-0.000301276
-0.000295577
-0.000284583
-0.000268526
-0.000247591
-0.000221928
-0.000191662
-0.000156899
-0.00011772
-7.41678e-05
-2.62571e-05
2.60086e-05
8.2629e-05
0.000143612
0.000208984
0.000278794
0.000353098
0.000431952
0.000515408
0.000603523
0.000696365
0.000794009
0.000896525
0.00100395
0.00111631
0.0012336
0.0013558
0.00148289
0.00161478
0.00175135
0.00189241
0.00203776
0.00218718
0.00234037
0.00249701
0.00265672
0.00281904
0.00298347
0.00314948
0.00331649
0.00348384
0.00365081
0.00381669
0.00398067
0.00414197
0.00429978
0.00445329
0.00460165
0.00474398
0.00487942
0.00500714
0.00512633
0.00523628
0.00533631
0.00542585
0.0055044
0.00557152
0.00562691
0.0056704
0.00570195
0.00572163
0.00572963
0.00572627
0.00571197
0.00568729
0.00565288
0.0056095
0.00555799
0.00549926
0.00543429
0.00536402
0.00528947
0.00521164
0.00513156
0.00505028
0.00496877
0.00488796
0.00480875
0.00473193
0.00465825
0.00458837
0.00452285
0.00446239
0.00440762
0.00435595
0.00430449
0.000361886
0.000222956
0.000113446
2.3949e-05
-5.58818e-05
-0.00012596
-0.000186186
-0.000237182
-0.00027954
-0.000313789
-0.000340441
-0.00035997
-0.000372805
-0.00037934
-0.000379937
-0.000374927
-0.000364601
-0.0003492
-0.000328922
-0.000303934
-0.00027438
-0.00024037
-0.000201973
-0.000159223
-0.000112137
-6.07271e-05
-4.99535e-06
5.50769e-05
0.000119534
0.000188431
0.000261827
0.00033978
0.000422356
0.00050964
0.000601722
0.000698693
0.000800627
0.000907575
0.00101958
0.00113666
0.00125885
0.0013861
0.00151835
0.00165548
0.00179733
0.00194373
0.00209444
0.0022492
0.00240768
0.00256951
0.00273424
0.00290137
0.00307039
0.00324068
0.00341157
0.00358232
0.00375216
0.0039203
0.00408591
0.00424815
0.00440617
0.00455906
0.00470591
0.00484579
0.00497783
0.00510118
0.00521505
0.00531872
0.00541154
0.00549293
0.00556244
0.00561971
0.00566455
0.00569689
0.00571678
0.00572439
0.00572002
0.0057041
0.00567721
0.00564001
0.00559331
0.00553798
0.00547498
0.00540532
0.00533003
0.00525014
0.00516675
0.00508095
0.00499384
0.00490647
0.00481984
0.00473488
0.00465247
0.00457344
0.0044985
0.00442829
0.0043636
0.00430512
0.00425021
0.00419588
0.000301257
0.000157194
4.36858e-05
-4.90461e-05
-0.000131772
-0.000204395
-0.000266805
-0.000319677
-0.000363661
-0.000399323
-0.0004272
-0.000447795
-0.000461573
-0.000468964
-0.000470364
-0.000466121
-0.000456538
-0.000441869
-0.000422334
-0.000398123
-0.000369384
-0.000336218
-0.000298685
-0.000256824
-0.000210659
-0.000160205
-0.000105454
-4.63714e-05
1.70965e-05
8.50058e-05
0.000157417
0.0002344
0.000316046
0.000402463
0.000493757
0.000590024
0.000691349
0.000797803
0.000909453
0.00102636
0.00114854
0.00127599
0.00140864
0.0015464
0.00168912
0.00183666
0.00198879
0.00214526
0.00230575
0.00246989
0.00263726
0.00280737
0.00297969
0.0031536
0.00332838
0.00350329
0.00367754
0.0038503
0.00402071
0.0041879
0.00435097
0.00450896
0.00466089
0.0048058
0.00494277
0.00507089
0.0051893
0.00529719
0.00539385
0.00547865
0.00555107
0.00561072
0.00565736
0.00569089
0.00571133
0.00571882
0.00571364
0.00569624
0.00566721
0.00562724
0.00557716
0.00551788
0.00545041
0.00537581
0.00529517
0.00520959
0.00512025
0.0050283
0.00493491
0.00484122
0.00474829
0.00465712
0.00456866
0.00448383
0.00440342
0.00432816
0.0042589
0.00419644
0.00413804
0.00408063
0.000227858
7.88483e-05
-3.85243e-05
-0.000134369
-0.000219869
-0.000294944
-0.000359483
-0.000414204
-0.000459802
-0.000496875
-0.000525988
-0.000547679
-0.000562451
-0.000570766
-0.00057304
-0.000569635
-0.000560867
-0.000547017
-0.000528329
-0.000504997
-0.000477166
-0.000444931
-0.000408356
-0.000367488
-0.000322357
-0.000272967
-0.000219295
-0.000161296
-9.89166e-05
-3.21002e-05
3.92249e-05
0.000115153
0.000195796
0.000281279
0.000371715
0.000467208
0.000567861
0.000673775
0.000785042
0.000901741
0.00102391
0.00115153
0.00128458
0.00142298
0.00156661
0.00171534
0.00186897
0.00202725
0.00218987
0.00235649
0.00252669
0.00270001
0.0028759
0.0030537
0.00323271
0.00341215
0.00359121
0.00376904
0.00394475
0.00411742
0.00428609
0.00444974
0.00460737
0.00475795
0.0049005
0.00503404
0.00515764
0.00527041
0.00537156
0.00546039
0.00553632
0.00559893
0.00564791
0.00568311
0.0057045
0.00571221
0.00570651
0.00568784
0.00565681
0.00561413
0.00556065
0.00549734
0.00542524
0.00534546
0.00525917
0.00516756
0.00507187
0.00497334
0.00487324
0.00477274
0.00467301
0.00457512
0.00448012
0.00438901
0.00430268
0.00422193
0.00414771
0.00408089
0.00401868
0.00395791
0.000141231
-1.25266e-05
-0.000133623
-0.000232469
-0.000320634
-0.000398077
-0.000464696
-0.000521237
-0.000568428
-0.000606905
-0.000637267
-0.000660093
-0.000675917
-0.000685219
-0.00068843
-0.000685932
-0.000678067
-0.00066514
-0.000647402
-0.000625046
-0.000598213
-0.000567007
-0.000531501
-0.000491749
-0.000447772
-0.000399561
-0.000347082
-0.000290289
-0.00022913
-0.000163537
-9.34172e-05
-1.86534e-05
6.08829e-05
0.000145323
0.000234786
0.000329396
0.000429282
0.00053457
0.000645376
0.000761788
0.000883857
0.00101159
0.00114499
0.001284
0.00142853
0.00157846
0.0017336
0.00189372
0.00205855
0.00222776
0.00240094
0.00257764
0.0027573
0.00293925
0.00312277
0.00330707
0.00349134
0.00367468
0.00385617
0.00403484
0.00420967
0.0043796
0.00454355
0.00470047
0.00484929
0.00498897
0.00511847
0.00523684
0.0053432
0.00543678
0.00551693
0.00558316
0.00563509
0.00567253
0.00569539
0.00570376
0.0056979
0.00567827
0.00564545
0.0056002
0.00554337
0.00547599
0.00539913
0.00531398
0.00522177
0.00512379
0.00502137
0.00491584
0.00480853
0.00470073
0.00459367
0.00448853
0.00438645
0.00428854
0.00419578
0.00410904
0.00402938
0.00395777
0.00389134
0.0038268
4.09233e-05
-0.000117362
-0.000242027
-0.000343771
-0.000434515
-0.000514253
-0.000582896
-0.000641217
-0.000689979
-0.000729859
-0.000761497
-0.000785501
-0.000802427
-0.000812772
-0.000816986
-0.00081548
-0.00080862
-0.00079672
-0.000780031
-0.000758746
-0.000733015
-0.000702956
-0.000668652
-0.000630148
-0.000587455
-0.000540553
-0.000489408
-0.000433976
-0.000374194
-0.000309975
-0.000241202
-0.000167743
-8.94625e-05
-6.22236e-06
8.21139e-05
0.000175693
0.000274672
0.0003792
0.000489405
0.000605392
0.000727229
0.000854957
0.000988595
0.00112812
0.00127347
0.00142453
0.00158114
0.00174309
0.00191014
0.00208198
0.00225822
0.00243841
0.00262198
0.00280826
0.00299653
0.003186
0.00337583
0.0035651
0.00375284
0.00393802
0.00411957
0.00429639
0.00446735
0.00463131
0.00478714
0.00493371
0.0050699
0.00519467
0.00530706
0.00540621
0.00549138
0.00556201
0.00561763
0.00565798
0.00568292
0.00569251
0.00568699
0.00566678
0.0056325
0.0055849
0.00552486
0.00545342
0.00537173
0.00528105
0.0051827
0.00507804
0.00496851
0.00485553
0.00474054
0.00462491
0.00450997
0.004397
0.00428727
0.00418198
0.0040822
0.0039889
0.00390325
0.00382633
0.00375519
0.00368636
-7.34766e-05
-0.000236077
-0.000364155
-0.000468699
-0.000561947
-0.000643907
-0.000714511
-0.000774569
-0.000824888
-0.000866181
-0.000899123
-0.000924341
-0.000942412
-0.000953858
-0.000959157
-0.000958743
-0.000952993
-0.00094222
-0.000926678
-0.000906574
-0.000882072
-0.0008533
-0.000820341
-0.000783227
-0.000741963
-0.000696528
-0.000646892
-0.000593002
-0.000534775
-0.000472101
-0.00040485
-0.000332881
-0.000256052
-0.000174212
-8.72012e-05
5.15476e-06
0.000103035
0.000206604
0.000316004
0.00043136
0.000552768
0.000680301
0.000814007
0.000953886
0.00109989
0.00125194
0.00140989
0.00157358
0.00174279
0.00191723
0.00209653
0.00228023
0.00246777
0.00265851
0.00285172
0.00304661
0.00324231
0.00343788
0.00363229
0.00382448
0.00401333