/*--------------------------------*- C++ -*----------------------------------*\
  =========                 |
  \\      /  F ield         | OpenFOAM: The Open Source CFD Toolbox
   \\    /   O peration     | Website:  https://openfoam.org
    \\  /    A nd           | Version:  7
     \\/     M anipulation  |
\*---------------------------------------------------------------------------*/
FoamFile
{
    version     2.0;
    format      ascii;
    class       surfaceScalarField;
    location    "0.375";
    object      phi;
}
// * * * * * * * * * * * * * * * * * * * * * * * * * * * * * * * * * * * * * //

dimensions      [0 3 -1 0 0 0 0];

internalField   nonuniform List<scalar> 
19800
(
7.30911e-11
-7.30711e-11
1.81039e-10
-1.07963e-10
2.47918e-10
-6.68693e-11
2.35058e-10
1.28329e-11
1.28766e-10
1.06281e-10
-7.29252e-11
2.0169e-10
-3.66247e-10
2.93311e-10
-7.4471e-10
3.7845e-10
-1.2005e-09
4.55798e-10
-1.72552e-09
5.25007e-10
-2.31165e-09
5.86127e-10
-2.9512e-09
6.39556e-10
-3.63697e-09
6.85768e-10
-4.36226e-09
7.25297e-10
-5.12097e-09
7.58717e-10
-5.90752e-09
7.8656e-10
-6.71687e-09
8.09352e-10
-7.54449e-09
8.27622e-10
-8.38633e-09
8.41825e-10
-9.2387e-09
8.52361e-10
-1.00983e-08
8.59595e-10
-1.09621e-08
8.63813e-10
-1.18274e-08
8.6525e-10
-1.26915e-08
8.64163e-10
-1.35523e-08
8.60775e-10
-1.44075e-08
8.55224e-10
-1.52551e-08
8.47589e-10
-1.6093e-08
8.37936e-10
-1.69194e-08
8.26317e-10
-1.77321e-08
8.12742e-10
-1.85293e-08
7.97199e-10
-1.9309e-08
7.79679e-10
-2.00691e-08
7.60157e-10
-2.08077e-08
7.38572e-10
-2.15225e-08
7.14837e-10
-2.22114e-08
6.88872e-10
-2.2872e-08
6.6062e-10
-2.3502e-08
6.30018e-10
-2.4099e-08
5.96982e-10
-2.46605e-08
5.61442e-10
-2.51838e-08
5.23358e-10
-2.56665e-08
4.82705e-10
-2.6106e-08
4.39462e-10
-2.64996e-08
3.93618e-10
-2.68448e-08
3.45192e-10
-2.7139e-08
2.94239e-10
-2.73799e-08
2.40849e-10
-2.7565e-08
1.85122e-10
-2.76922e-08
1.27175e-10
-2.77593e-08
6.71585e-11
-2.77646e-08
5.28506e-12
-2.77064e-08
-5.81976e-11
-2.75834e-08
-1.23027e-10
-2.73945e-08
-1.88912e-10
-2.7139e-08
-2.55525e-10
-2.68165e-08
-3.22505e-10
-2.6427e-08
-3.89451e-10
-2.59711e-08
-4.55931e-10
-2.54496e-08
-5.21507e-10
-2.48638e-08
-5.85733e-10
-2.42157e-08
-6.4813e-10
-2.35075e-08
-7.08206e-10
-2.2742e-08
-7.65468e-10
-2.19226e-08
-8.19438e-10
-2.10529e-08
-8.69638e-10
-2.01373e-08
-9.15602e-10
-1.91805e-08
-9.56879e-10
-1.81874e-08
-9.93048e-10
-1.71637e-08
-1.02373e-09
-1.61151e-08
-1.04859e-09
-1.50478e-08
-1.06733e-09
-1.3968e-08
-1.07971e-09
-1.28825e-08
-1.08554e-09
-1.17978e-08
-1.08466e-09
-1.07208e-08
-1.07699e-09
-9.65833e-09
-1.0625e-09
-8.61707e-09
-1.04126e-09
-7.6037e-09
-1.01338e-09
-6.62469e-09
-9.79007e-10
-5.68631e-09
-9.38381e-10
-4.79453e-09
-8.91781e-10
-3.95498e-09
-8.39547e-10
-3.1729e-09
-7.82075e-10
-2.45307e-09
-7.19821e-10
-1.79978e-09
-6.53283e-10
-1.21678e-09
-5.83006e-10
-7.07196e-10
-5.09583e-10
-2.7352e-10
-4.33677e-10
8.2511e-11
-3.56033e-10
3.60013e-10
-2.77508e-10
5.59098e-10
-1.99091e-10
6.81106e-10
-1.2201e-10
7.2892e-10
-4.7809e-11
7.0748e-10
2.14465e-11
6.24663e-10
8.28185e-11
4.92622e-10
1.32038e-10
3.29815e-10
1.62805e-10
1.64237e-10
1.65579e-10
3.8107e-11
1.26124e-10
3.80996e-11
1.07532e-10
-1.80616e-10
2.11333e-10
-2.11751e-10
1.93227e-10
-4.87685e-11
-1.3367e-11
2.19454e-10
-4.41986e-10
5.34888e-10
-1.10365e-09
8.63392e-10
-1.99543e-09
1.18509e-09
-3.10594e-09
1.48898e-09
-4.41941e-09
1.76928e-09
-5.91765e-09
2.02324e-09
-7.58167e-09
2.25015e-09
-9.39261e-09
2.45047e-09
-1.13321e-08
2.62527e-09
-1.33829e-08
2.77607e-09
-1.55288e-08
2.90457e-09
-1.77547e-08
3.01251e-09
-2.0047e-08
3.10166e-09
-2.23931e-08
3.17368e-09
-2.47814e-08
3.23011e-09
-2.72014e-08
3.27241e-09
-2.96437e-08
3.30186e-09
-3.20995e-08
3.31955e-09
-3.45606e-08
3.32642e-09
-3.70198e-08
3.32334e-09
-3.947e-08
3.31101e-09
-4.19048e-08
3.28996e-09
-4.43177e-08
3.26057e-09
-4.67029e-08
3.22315e-09
-4.90545e-08
3.17786e-09
-5.13666e-08
3.12481e-09
-5.36333e-08
3.06399e-09
-5.5849e-08
2.99533e-09
-5.80076e-08
2.91876e-09
-6.01031e-08
2.83407e-09
-6.21293e-08
2.74104e-09
-6.40799e-08
2.63943e-09
-6.59483e-08
2.52902e-09
-6.77279e-08
2.40959e-09
-6.94118e-08
2.28089e-09
-7.0993e-08
2.14273e-09
-7.24647e-08
1.99497e-09
-7.38195e-08
1.83753e-09
-7.50504e-08
1.67037e-09
-7.61503e-08
1.4935e-09
-7.71121e-08
1.30702e-09
-7.7929e-08
1.11117e-09
-7.85944e-08
9.06261e-10
-7.91021e-08
6.92711e-10
-7.94459e-08
4.71033e-10
-7.96206e-08
2.41867e-10
-7.96213e-08
5.97988e-12
-7.94438e-08
-2.35733e-10
-7.90845e-08
-4.82257e-10
-7.8541e-08
-7.32463e-10
-7.78114e-08
-9.85095e-10
-7.68952e-08
-1.23878e-09
-7.57926e-08
-1.49205e-09
-7.45052e-08
-1.74334e-09
-7.30356e-08
-1.99101e-09
-7.1388e-08
-2.23337e-09
-6.95674e-08
-2.46866e-09
-6.75806e-08
-2.69509e-09
-6.54352e-08
-2.91084e-09
-6.31405e-08
-3.11412e-09
-6.0707e-08
-3.30319e-09
-5.81463e-08
-3.47633e-09
-5.54712e-08
-3.63191e-09
-5.26959e-08
-3.76841e-09
-4.98352e-08
-3.88442e-09
-4.69051e-08
-3.97868e-09
-4.39223e-08
-4.05011e-09
-4.09042e-08
-4.09781e-09
-3.78686e-08
-4.12105e-09
-3.4834e-08
-4.11931e-09
-3.18187e-08
-4.0923e-09
-2.88412e-08
-4.03995e-09
-2.59201e-08
-3.96243e-09
-2.30733e-08
-3.86014e-09
-2.03186e-08
-3.7337e-09
-1.7673e-08
-3.58397e-09
-1.51528e-08
-3.41199e-09
-1.27733e-08
-3.21907e-09
-1.05487e-08
-3.00668e-09
-8.49197e-09
-2.77654e-09
-6.61471e-09
-2.53055e-09
-4.9269e-09
-2.27081e-09
-3.43681e-09
-1.99969e-09
-2.15072e-09
-1.71977e-09
-1.07275e-09
-1.43401e-09
-2.04499e-10
-1.14577e-09
4.55401e-10
-8.58992e-10
9.11833e-10
-5.78438e-10
1.17404e-09
-3.10013e-10
1.2568e-09
-6.13112e-11
1.18201e-09
1.57606e-10
9.80851e-10
3.33187e-10
6.965e-10
4.47146e-10
3.86849e-10
4.75211e-10
1.25369e-10
3.87588e-10
1.63461e-10
6.44214e-11
-2.45028e-10
4.49509e-11
-1.92285e-10
-1.83335e-10
1.79499e-10
-6.94777e-10
7.30888e-10
-1.53007e-09
1.37018e-09
-2.70486e-09
2.03816e-09
-4.21741e-09
2.69764e-09
-6.05458e-09
3.32615e-09
-8.19611e-09
3.9108e-09
-1.06176e-08
4.44478e-09
-1.32928e-08
4.92536e-09
-1.61948e-08
5.35242e-09
-1.92969e-08
5.7274e-09
-2.25736e-08
6.05274e-09
-2.60005e-08
6.33148e-09
-2.95548e-08
6.56689e-09
-3.32155e-08
6.76232e-09
-3.69629e-08
6.92103e-09
-4.07789e-08
7.04614e-09
-4.4647e-08
7.14051e-09
-4.85519e-08
7.20673e-09
-5.24794e-08
7.24711e-09
-5.64166e-08
7.26364e-09
-6.03514e-08
7.25809e-09
-6.42723e-08
7.23188e-09
-6.81685e-08
7.18617e-09
-7.20297e-08
7.12183e-09
-7.58461e-08
7.0395e-09
-7.96078e-08
6.93959e-09
-8.33053e-08
6.82232e-09
-8.6929e-08
6.68774e-09
-9.04695e-08
6.53578e-09
-9.39169e-08
6.36622e-09
-9.72616e-08
6.17873e-09
-1.00493e-07
5.97289e-09
-1.03602e-07
5.74827e-09
-1.06578e-07
5.50445e-09
-1.09409e-07
5.24096e-09
-1.12086e-07
4.95738e-09
-1.14596e-07
4.65336e-09
-1.1693e-07
4.32866e-09
-1.19075e-07
3.98311e-09
-1.21022e-07
3.61669e-09
-1.22758e-07
3.22952e-09
-1.24273e-07
2.82189e-09
-1.25556e-07
2.39432e-09
-1.26597e-07
1.94752e-09
-1.27387e-07
1.48241e-09
-1.27916e-07
1.00016e-09
-1.28176e-07
5.02217e-10
-1.28161e-07
-9.75229e-12
-1.27862e-07
-5.33819e-10
-1.27277e-07
-1.06778e-09
-1.264e-07
-1.60918e-09
-1.2523e-07
-2.15535e-09
-1.23765e-07
-2.70336e-09
-1.22007e-07
-3.25003e-09
-1.19959e-07
-3.79206e-09
-1.17624e-07
-4.32595e-09
-1.15009e-07
-4.84807e-09
-1.12123e-07
-5.35471e-09
-1.08976e-07
-5.84207e-09
-1.05581e-07
-6.30633e-09
-1.01951e-07
-6.7437e-09
-9.81036e-08
-7.15048e-09
-9.40569e-08
-7.52306e-09
-8.98308e-08
-7.85801e-09
-8.54471e-08
-8.15211e-09
-8.09291e-08
-8.4024e-09
-7.63016e-08
-8.60624e-09
-7.15903e-08
-8.76133e-09
-6.68224e-08
-8.86575e-09
-6.20255e-08
-8.91797e-09
-5.72278e-08
-8.91692e-09
-5.24582e-08
-8.86199e-09
-4.77451e-08
-8.75303e-09
-4.31171e-08
-8.59041e-09
-3.86023e-08
-8.37498e-09
-3.42279e-08
-8.10804e-09
-3.00204e-08
-7.79143e-09
-2.6005e-08
-7.42744e-09
-2.22052e-08
-7.01882e-09
-1.86431e-08
-6.5688e-09
-1.53386e-08
-6.08105e-09
-1.23094e-08
-5.55972e-09
-9.5708e-09
-5.00942e-09
-7.1352e-09
-4.43529e-09
-5.01189e-09
-3.84308e-09
-3.20664e-09
-3.23925e-09
-1.72121e-09
-2.6312e-09
-5.52692e-10
-2.02751e-09
3.07268e-10
-1.43839e-09
8.7352e-10
-8.76257e-10
1.16878e-09
-3.56569e-10
1.22535e-09
1.01031e-10
1.08714e-09
4.71393e-10
8.12009e-10
7.22276e-10
4.73816e-10
8.13396e-10
1.63957e-10
6.97432e-10
3.27414e-10
-1.3879e-11
-2.31177e-10
-2.23766e-10
1.76309e-11
-7.39464e-10
6.95191e-10
-1.62945e-09
1.62087e-09
-2.93218e-09
2.67291e-09
-4.66266e-09
3.76865e-09
-6.81831e-09
4.8533e-09
-9.38416e-09
5.89198e-09
-1.23368e-08
6.86345e-09
-1.56477e-08
7.75565e-09
-1.92853e-08
8.56298e-09
-2.32169e-08
9.28403e-09
-2.74098e-08
9.92021e-09
-3.18318e-08
1.04747e-08
-3.64522e-08
1.09519e-08
-4.1242e-08
1.13566e-08
-4.61737e-08
1.1694e-08
-5.12217e-08
1.19691e-08
-5.63624e-08
1.21868e-08
-6.15737e-08
1.23518e-08
-6.68351e-08
1.24682e-08
-7.21279e-08
1.25399e-08
-7.74343e-08
1.257e-08
-8.27377e-08
1.25615e-08
-8.80226e-08
1.25168e-08
-9.32741e-08
1.24377e-08
-9.84781e-08
1.23258e-08
-1.03621e-07
1.21822e-08
-1.08689e-07
1.20077e-08
-1.13669e-07
1.18025e-08
-1.18548e-07
1.1567e-08
-1.23314e-07
1.1301e-08
-1.27951e-07
1.10041e-08
-1.32449e-07
1.0676e-08
-1.36792e-07
1.03159e-08
-1.40967e-07
9.92324e-09
-1.4496e-07
9.49735e-09
-1.48756e-07
9.03753e-09
-1.52342e-07
8.54315e-09
-1.55702e-07
8.01371e-09
-1.58822e-07
7.44885e-09
-1.61688e-07
6.84838e-09
-1.64283e-07
6.21236e-09
-1.66595e-07
5.54106e-09
-1.68608e-07
4.83509e-09
-1.70309e-07
4.0954e-09
-1.71685e-07
3.32325e-09
-1.72723e-07
2.5203e-09
-1.73411e-07
1.68861e-09
-1.7374e-07
8.30661e-10
-1.73699e-07
-5.06267e-11
-1.73281e-07
-9.51914e-10
-1.72479e-07
-1.86944e-09
-1.71289e-07
-2.79902e-09
-1.69709e-07
-3.73605e-09
-1.67736e-07
-4.67555e-09
-1.65374e-07
-5.61218e-09
-1.62626e-07
-6.54031e-09
-1.59498e-07
-7.45401e-09
-1.55999e-07
-8.34717e-09
-1.5214e-07
-9.21347e-09
-1.47936e-07
-1.00465e-08
-1.43402e-07
-1.08399e-08
-1.38558e-07
-1.15873e-08
-1.33426e-07
-1.22825e-08
-1.2803e-07
-1.29193e-08
-1.22396e-07
-1.3492e-08
-1.16553e-07
-1.39953e-08
-1.10531e-07
-1.44241e-08
-1.04363e-07
-1.47741e-08
-9.80834e-08
-1.50413e-08
-9.17266e-08
-1.52226e-08
-8.53292e-08
-1.53153e-08
-7.89283e-08
-1.53178e-08
-7.25614e-08
-1.52289e-08
-6.62659e-08
-1.50485e-08
-6.00792e-08
-1.47771e-08
-5.40379e-08
-1.44163e-08
-4.81778e-08
-1.39681e-08
-4.25334e-08
-1.34359e-08
-3.71375e-08
-1.28234e-08
-3.20209e-08
-1.21354e-08
-2.72124e-08
-1.13773e-08
-2.27378e-08
-1.05556e-08
-1.86203e-08
-9.67731e-09
-1.48792e-08
-8.75043e-09
-1.15307e-08
-7.78383e-09
-8.58635e-09
-6.78744e-09
-6.05317e-09
-5.77245e-09
-3.93288e-09
-4.7515e-09
-2.22117e-09
-3.73922e-09
-9.06837e-10
-2.75271e-09
2.9296e-11
-1.81239e-09
6.15742e-10
-9.43027e-10
8.91817e-10
-1.75048e-10
9.09432e-10
4.53779e-10
7.35017e-10
8.96683e-10
4.51633e-10
1.09677e-09
1.61973e-10
9.87084e-10
4.89386e-10
-1.07336e-10
-1.23854e-10
-5.44549e-10
4.54832e-10
-1.39434e-09
1.54498e-09
-2.70993e-09
2.93648e-09
-4.52105e-09
4.48403e-09
-6.83748e-09
6.08509e-09
-9.65322e-09
7.66902e-09
-1.29503e-08
9.18907e-09
-1.67023e-08
1.06155e-08
-2.08772e-08
1.19306e-08
-2.54396e-08
1.31253e-08
-3.03522e-08
1.41966e-08
-3.55775e-08
1.51455e-08
-4.10785e-08
1.59757e-08
-4.68193e-08
1.66927e-08
-5.27655e-08
1.73029e-08
-5.88848e-08
1.78132e-08
-6.51465e-08
1.82307e-08
-7.15219e-08
1.85622e-08
-7.79844e-08
1.88142e-08
-8.45089e-08
1.89927e-08
-9.10721e-08
1.91031e-08
-9.76521e-08
1.91501e-08
-1.04228e-07
1.91378e-08
-1.10782e-07
1.90699e-08
-1.17293e-07
1.8949e-08
-1.23745e-07
1.87775e-08
-1.30119e-07
1.85569e-08
-1.364e-07
1.82886e-08
-1.42571e-07
1.7973e-08
-1.48614e-07
1.76106e-08
-1.54514e-07
1.72011e-08
-1.60254e-07
1.67443e-08
-1.65818e-07
1.62394e-08
-1.71188e-07
1.56857e-08
-1.76347e-07
1.50823e-08
-1.81278e-07
1.44283e-08
-1.85963e-07
1.37227e-08
-1.90385e-07
1.29648e-08
-1.94525e-07
1.21539e-08
-1.98365e-07
1.12896e-08
-2.01889e-07
1.03716e-08
-2.05077e-07
9.40026e-09
-2.07912e-07
8.37605e-09
-2.10376e-07
7.30001e-09
-2.12455e-07
6.17363e-09
-2.1413e-07
4.99893e-09
-2.15389e-07
3.77848e-09
-2.16215e-07
2.51549e-09
-2.16599e-07
1.21374e-09
-2.16527e-07
-1.22328e-10
-2.15991e-07
-1.48765e-09
-2.14984e-07
-2.87653e-09
-2.135e-07
-4.28266e-09
-2.11537e-07
-5.69912e-09
-2.09094e-07
-7.11843e-09
-2.06174e-07
-8.53261e-09
-2.02781e-07
-9.93324e-09
-1.98924e-07
-1.13115e-08
-1.94613e-07
-1.26582e-08
-1.89862e-07
-1.39639e-08
-1.84689e-07
-1.52193e-08
-1.79115e-07
-1.64147e-08
-1.73161e-07
-1.75407e-08
-1.66856e-07
-1.8588e-08
-1.60227e-07
-1.95477e-08
-1.53308e-07
-2.04111e-08
-1.46133e-07
-2.11705e-08
-1.38739e-07
-2.18183e-08
-1.31165e-07
-2.23479e-08
-1.23453e-07
-2.27538e-08
-1.15644e-07
-2.30311e-08
-1.07783e-07
-2.31759e-08
-9.99155e-08
-2.31858e-08
-9.20853e-08
-2.30591e-08
-8.43381e-08
-2.27956e-08
-7.67191e-08
-2.23962e-08
-6.92723e-08
-2.1863e-08
-6.20409e-08
-2.11995e-08
-5.50665e-08
-2.04103e-08
-4.83886e-08
-1.95013e-08
-4.20444e-08
-1.84795e-08
-3.60683e-08
-1.73534e-08
-3.04915e-08
-1.61324e-08
-2.53414e-08
-1.48274e-08
-2.06414e-08
-1.34504e-08
-1.64104e-08
-1.20149e-08
-1.26619e-08
-1.05359e-08
-9.40419e-09
-9.03019e-09
-6.63884e-09
-7.51685e-09
-4.36053e-09
-6.01754e-09
-2.55593e-09
-4.55732e-09
-1.2028e-09
-3.16554e-09
-2.68733e-10
-1.87709e-09
2.90036e-10
-7.33814e-10
5.30116e-10
2.1369e-10
5.22611e-10
9.04179e-10
3.55149e-10
1.26422e-09
1.35241e-10
1.20699e-09
6.24627e-10
-2.05696e-10
8.18403e-11
-8.87327e-10
1.1365e-09
-2.09559e-09
2.75321e-09
-3.8635e-09
4.7044e-09
-6.20742e-09
6.82795e-09
-9.12836e-09
9.00601e-09
-1.26143e-08
1.1155e-08
-1.6643e-08
1.32177e-08
-2.11843e-08
1.51567e-08
-2.62027e-08
1.69489e-08
-3.16592e-08
1.85818e-08
-3.7513e-08
2.00505e-08
-4.37228e-08
2.13553e-08
-5.02474e-08
2.25003e-08
-5.70468e-08
2.34921e-08
-6.40824e-08
2.43386e-08
-7.13176e-08
2.50484e-08
-7.87175e-08
2.56306e-08
-8.62493e-08
2.6094e-08
-9.38821e-08
2.64471e-08
-1.01587e-07
2.66976e-08
-1.09337e-07
2.68528e-08
-1.17106e-07
2.6919e-08
-1.2487e-07
2.69017e-08
-1.32605e-07
2.68056e-08
-1.40291e-07
2.66346e-08
-1.47905e-07
2.63916e-08
-1.55427e-07
2.60791e-08
-1.62837e-07
2.56985e-08
-1.70115e-07
2.52509e-08
-1.77241e-07
2.47368e-08
-1.84196e-07
2.41559e-08
-1.9096e-07
2.3508e-08
-1.97513e-07
2.27922e-08
-2.03834e-07
2.20076e-08
-2.09905e-07
2.11531e-08
-2.15704e-07
2.02274e-08
-2.21211e-07
1.92295e-08
-2.26405e-07
1.81584e-08
-2.31264e-07
1.70134e-08
-2.35769e-07
1.57939e-08
-2.39897e-07
1.44999e-08
-2.43628e-07
1.31319e-08
-2.46943e-07
1.16906e-08
-2.49821e-07
1.01777e-08
-2.52242e-07
8.5954e-09
-2.5419e-07
6.94657e-09
-2.55647e-07
5.23494e-09
-2.56596e-07
3.46502e-09
-2.57025e-07
1.64218e-09
-2.5692e-07
-2.27355e-10
-2.56271e-07
-2.1365e-09
-2.5507e-07
-4.07732e-09
-2.53312e-07
-6.04101e-09
-2.50993e-07
-8.01798e-09
-2.48113e-07
-9.99788e-09
-2.44676e-07
-1.19697e-08
-2.40688e-07
-1.39217e-08
-2.36157e-07
-1.58417e-08
-2.31098e-07
-1.77172e-08
-2.25527e-07
-1.95352e-08
-2.19464e-07
-2.12827e-08
-2.12932e-07
-2.29465e-08
-2.05959e-07
-2.45137e-08
-1.98575e-07
-2.59716e-08
-1.90815e-07
-2.73077e-08
-1.82716e-07
-2.85106e-08
-1.74317e-07
-2.95691e-08
-1.65662e-07
-3.04732e-08
-1.56796e-07
-3.1214e-08
-1.47766e-07
-3.17835e-08
-1.38622e-07
-3.21752e-08
-1.29414e-07
-3.23839e-08
-1.20194e-07
-3.24061e-08
-1.11014e-07
-3.22397e-08
-1.01925e-07
-3.18842e-08
-9.29801e-08
-3.13411e-08
-8.42298e-08
-3.06133e-08
-7.57239e-08
-2.97055e-08
-6.751e-08
-2.86242e-08
-5.96337e-08
-2.73775e-08
-5.21378e-08
-2.59755e-08
-4.50615e-08
-2.44296e-08
-3.84407e-08
-2.27532e-08
-3.23068e-08
-2.09613e-08
-2.66865e-08
-1.90708e-08
-2.1601e-08
-1.71004e-08
-1.70659e-08
-1.50709e-08
-1.30903e-08
-1.30059e-08
-9.67591e-09
-1.09312e-08
-6.81686e-09
-8.8766e-09
-4.49846e-09
-6.87573e-09
-2.69647e-09
-4.96754e-09
-1.37615e-09
-3.19741e-09
-4.91214e-10
-1.61876e-09
1.72927e-11
-2.94826e-10
2.22312e-10
6.99157e-10
2.12404e-10
1.27413e-09
9.44737e-11
1.32491e-09
7.19099e-10
-3.03633e-10
3.85462e-10
-1.23413e-09
2.067e-09
-2.8101e-09
4.32918e-09
-5.04194e-09
6.93624e-09
-7.9299e-09
9.71589e-09
-1.14636e-08
1.25398e-08
-1.56232e-08
1.53145e-08
-2.03803e-08
1.79748e-08
-2.57002e-08
2.04767e-08
-3.15437e-08
2.27924e-08
-3.78682e-08
2.49064e-08
-4.46296e-08
2.68119e-08
-5.17832e-08
2.85088e-08
-5.92844e-08
3.00015e-08
-6.70897e-08
3.12975e-08
-7.51572e-08
3.2406e-08
-8.34464e-08
3.33376e-08
-9.19191e-08
3.41033e-08
-1.00539e-07
3.47137e-08
-1.09271e-07
3.51794e-08
-1.18084e-07
3.55101e-08
-1.26946e-07
3.57149e-08
-1.35828e-07
3.58016e-08
-1.44704e-07
3.57772e-08
-1.53546e-07
3.56478e-08
-1.62329e-07
3.54182e-08
-1.7103e-07
3.50923e-08
-1.79624e-07
3.46731e-08
-1.88088e-07
3.41627e-08
-1.964e-07
3.35625e-08
-2.04536e-07
3.2873e-08
-2.12475e-07
3.20943e-08
-2.20192e-07
3.12259e-08
-2.27667e-07
3.02669e-08
-2.34876e-07
2.92161e-08
-2.41795e-07
2.80722e-08
-2.48401e-07
2.68339e-08
-2.54672e-07
2.54999e-08
-2.60582e-07
2.4069e-08
-2.66109e-07
2.25404e-08
-2.71229e-07
2.09137e-08
-2.75918e-07
1.91889e-08
-2.80153e-07
1.73668e-08
-2.83911e-07
1.54487e-08
-2.8717e-07
1.34368e-08
-2.89909e-07
1.13341e-08
-2.92107e-07
9.14464e-09
-2.93745e-07
6.87342e-09
-2.94807e-07
4.5265e-09
-2.95276e-07
2.11102e-09
-2.95138e-07
-3.64759e-10
-2.94383e-07
-2.89146e-09
-2.93002e-07
-5.45861e-09
-2.90988e-07
-8.05462e-09
-2.88339e-07
-1.06669e-08
-2.85055e-07
-1.32818e-08
-2.8114e-07
-1.58849e-08
-2.76601e-07
-1.8461e-08
-2.71449e-07
-2.09941e-08
-2.65698e-07
-2.34677e-08
-2.59368e-07
-2.5865e-08
-2.52482e-07
-2.81691e-08
-2.45066e-07
-3.03627e-08
-2.3715e-07
-3.24289e-08
-2.28771e-07
-3.43513e-08
-2.19965e-07
-3.61139e-08
-2.10774e-07
-3.77013e-08
-2.01244e-07
-3.90994e-08
-1.91422e-07
-4.0295e-08
-1.81359e-07
-4.12765e-08
-1.71109e-07
-4.20336e-08
-1.60726e-07
-4.25578e-08
-1.50268e-07
-4.28425e-08
-1.39791e-07
-4.28829e-08
-1.29354e-07
-4.26765e-08
-1.19016e-07
-4.22227e-08
-1.08833e-07
-4.15232e-08
-9.88646e-08
-4.05821e-08
-8.91645e-08
-3.94056e-08
-7.97865e-08
-3.80021e-08
-7.07815e-08
-3.63825e-08
-6.21972e-08
-3.45598e-08
-5.40775e-08
-3.25493e-08
-4.64622e-08
-3.03685e-08
-3.93863e-08
-2.80372e-08
-3.28794e-08
-2.55777e-08
-2.69651e-08
-2.30146e-08
-2.16607e-08
-2.03754e-08
-1.69761e-08
-1.76904e-08
-1.29138e-08
-1.49936e-08
-9.46738e-09
-1.2323e-08
-6.62163e-09
-9.72149e-09
-4.35125e-09
-7.23792e-09
-2.62033e-09
-4.92834e-09
-1.38154e-09
-2.85755e-09
-5.75334e-10
-1.10104e-09
-1.29061e-10
2.52885e-10
4.4095e-11
1.10097e-09
4.67028e-11
1.3223e-09
7.65801e-10
-3.98437e-10
7.83886e-10
-1.57498e-09
3.24357e-09
-3.51791e-09
6.2721e-09
-6.21458e-09
9.63291e-09
-9.64781e-09
1.31491e-08
-1.37943e-08
1.66863e-08
-1.86245e-08
2.01447e-08
-2.41029e-08
2.34532e-08
-3.01893e-08
2.65631e-08
-3.684e-08
2.94431e-08
-4.40088e-08
3.20751e-08
-5.16481e-08
3.44512e-08
-5.97101e-08
3.65708e-08
-6.81472e-08
3.84387e-08
-7.6913e-08
4.00632e-08
-8.59623e-08
4.14553e-08
-9.52518e-08
4.26271e-08
-1.0474e-07
4.35915e-08
-1.14388e-07
4.43613e-08
-1.24157e-07
4.4949e-08
-1.34013e-07
4.53662e-08
-1.43922e-07
4.56237e-08
-1.53852e-07
4.57312e-08
-1.63772e-07
4.56971e-08
-1.73653e-07
4.55288e-08
-1.83467e-07
4.52321e-08
-1.93186e-07
4.4812e-08
-2.02785e-07
4.42721e-08
-2.12238e-07
4.36151e-08
-2.21518e-07
4.28426e-08
-2.306e-07
4.19554e-08
-2.3946e-07
4.09538e-08
-2.48071e-07
3.9837e-08
-2.56408e-07
3.86042e-08
-2.64446e-07
3.72541e-08
-2.72159e-07
3.57851e-08
-2.79521e-07
3.41957e-08
-2.86505e-07
3.24844e-08
-2.93086e-07
3.065e-08
-2.99238e-07
2.86917e-08
-3.04933e-07
2.6609e-08
-3.10146e-07
2.44022e-08
-3.14852e-07
2.20725e-08
-3.19025e-07
1.96217e-08
-3.22641e-07
1.70528e-08
-3.25677e-07
1.43697e-08
-3.2811e-07
1.15778e-08
-3.2992e-07
8.68339e-09
-3.31087e-07
5.6943e-09
-3.31596e-07
2.61967e-09
-3.31431e-07
-5.29993e-10
-3.3058e-07
-3.74277e-09
-3.29033e-07
-7.00536e-09
-3.26784e-07
-1.03031e-08
-3.23831e-07
-1.36202e-08
-3.20173e-07
-1.69393e-08
-3.15816e-07
-2.02424e-08
-3.10767e-07
-2.35101e-08
-3.05038e-07
-2.67226e-08
-2.98647e-07
-2.9859e-08
-2.91614e-07
-3.28983e-08
-2.83964e-07
-3.58191e-08
-2.75727e-07
-3.85999e-08
-2.66936e-07
-4.12196e-08
-2.5763e-07
-4.36574e-08
-2.4785e-07
-4.58933e-08
-2.37644e-07
-4.79082e-08
-2.27059e-07
-4.96842e-08
-2.16149e-07
-5.1205e-08
-2.04969e-07
-5.2456e-08
-1.93579e-07
-5.34242e-08
-1.82037e-07
-5.40991e-08
-1.70408e-07
-5.44723e-08
-1.58753e-07
-5.45379e-08
-1.47136e-07
-5.42928e-08
-1.35623e-07
-5.37362e-08
-1.24276e-07
-5.28705e-08
-1.13157e-07
-5.17006e-08
-1.02328e-07
-5.02344e-08
-9.18478e-08
-4.84828e-08
-8.1771e-08
-4.64593e-08
-7.21503e-08
-4.41806e-08
-6.30338e-08
-4.16658e-08
-5.4465e-08
-3.89373e-08
-4.64821e-08
-3.60201e-08
-3.91176e-08
-3.29422e-08
-3.23973e-08
-2.97349e-08
-2.63401e-08
-2.64326e-08
-2.09572e-08
-2.30734e-08
-1.62514e-08
-1.96994e-08
-1.22168e-08
-1.63576e-08
-8.83802e-09
-1.31003e-08
-6.08942e-09
-9.98652e-09
-3.93487e-09
-7.08289e-09
-2.32709e-09
-4.46535e-09
-1.20718e-09
-2.22094e-09
-5.04281e-10
-4.50018e-10
-1.35085e-10
7.31775e-10
-3.45433e-12
1.19067e-09
7.62349e-10
-4.88984e-10
1.27287e-09
-1.90456e-09
4.65914e-09
-4.20745e-09
8.57498e-09
-7.36261e-09
1.27881e-08
-1.13351e-08
1.71216e-08
-1.60877e-08
2.14389e-08
-2.15803e-08
2.56372e-08
-2.77692e-08
2.96421e-08
-3.46079e-08
3.34019e-08
-4.20477e-08
3.68829e-08
-5.00381e-08
4.00656e-08
-5.85282e-08
4.29413e-08
-6.7467e-08
4.55096e-08
-7.68041e-08
4.77757e-08
-8.64901e-08
4.97493e-08
-9.64775e-08
5.14426e-08
-1.0672e-07
5.28697e-08
-1.17174e-07
5.40453e-08
-1.27797e-07
5.49843e-08
-1.38549e-07
5.5701e-08
-1.49392e-07
5.62092e-08
-1.6029e-07
5.65214e-08
-1.71207e-07
5.6649e-08
-1.82112e-07
5.6602e-08
-1.92972e-07
5.63888e-08
-2.03757e-07
5.60167e-08
-2.14436e-07
5.54914e-08
-2.24981e-07
5.48172e-08
-2.35364e-07
5.39974e-08
-2.45555e-07
5.3034e-08
-2.55528e-07
5.19281e-08
-2.65254e-07
5.06798e-08
-2.74705e-07
4.92886e-08
-2.83855e-07
4.77535e-08
-2.92673e-07
4.60729e-08
-3.01134e-07
4.42452e-08
-3.09207e-07
4.22687e-08
-3.16864e-07
4.01418e-08
-3.24077e-07
3.78631e-08
-3.30817e-07
3.54318e-08
-3.37056e-07
3.28476e-08
-3.42765e-07
3.01111e-08
-3.47916e-07
2.72239e-08
-3.52483e-07
2.41884e-08
-3.56439e-07
2.10084e-08
-3.59758e-07
1.76891e-08
-3.62417e-07
1.42369e-08
-3.64393e-07
1.06599e-08
-3.65667e-07
6.96787e-09
-3.66219e-07
3.172e-09
-3.66035e-07
-7.14713e-10
-3.651e-07
-4.67759e-09
-3.63405e-07
-8.70029e-09
-3.60943e-07
-1.27649e-08
-3.57712e-07
-1.68518e-08
-3.53711e-07
-2.09401e-08
-3.48946e-07
-2.50076e-08
-3.43425e-07
-2.90307e-08
-3.37163e-07
-3.2985e-08
-3.30176e-07
-3.68453e-08
-3.22489e-07
-4.05858e-08
-3.14127e-07
-4.41804e-08
-3.05124e-07
-4.76032e-08
-2.95516e-07
-5.08281e-08
-2.85343e-07
-5.38299e-08
-2.74652e-07
-5.65844e-08
-2.63492e-07
-5.90681e-08
-2.51917e-07
-6.12594e-08
-2.39984e-07
-6.31383e-08
-2.27753e-07
-6.4687e-08
-2.15287e-07
-6.58899e-08
-2.02652e-07
-6.67339e-08
-1.89915e-07
-6.72091e-08
-1.77145e-07
-6.73081e-08
-1.64411e-07
-6.70271e-08
-1.51782e-07
-6.63653e-08
-1.39327e-07
-6.53256e-08
-1.27113e-07
-6.3914e-08
-1.15207e-07
-6.21403e-08
-1.03672e-07
-6.00178e-08
-9.25685e-08
-5.75631e-08
-8.19524e-08
-5.47966e-08
-7.18761e-08
-5.17421e-08
-6.23867e-08
-4.84267e-08
-5.35254e-08
-4.48813e-08
-4.53273e-08
-4.11403e-08
-3.78206e-08
-3.72417e-08
-3.10257e-08
-3.32274e-08
-2.49553e-08
-2.91438e-08
-1.9613e-08
-2.50416e-08
-1.49936e-08
-2.0977e-08
-1.10819e-08
-1.7012e-08
-7.85265e-09
-1.32158e-08
-5.27017e-09
-9.66538e-09
-3.28794e-09
-6.44757e-09
-1.84861e-09
-3.66027e-09
-8.83953e-10
-1.41468e-09
-3.15094e-10
1.62912e-10
-5.30408e-11
9.28617e-10
7.0931e-10
-5.74864e-10
1.84773e-09
-2.22043e-09
6.3047e-09
-4.87254e-09
1.12271e-08
-8.47508e-09
1.63906e-08
-1.29756e-08
2.16222e-08
-1.8323e-08
2.67862e-08
-2.44656e-08
3.17799e-08
-3.1351e-08
3.65276e-08
-3.89258e-08
4.09767e-08
-4.71356e-08
4.50926e-08
-5.59256e-08
4.88555e-08
-6.52409e-08
5.22567e-08
-7.50275e-08
5.52962e-08
-8.52321e-08
5.79803e-08
-9.58027e-08
6.03199e-08
-1.06689e-07
6.23291e-08
-1.17843e-07
6.40237e-08
-1.29218e-07
6.54204e-08
-1.4077e-07
6.65361e-08
-1.52456e-07
6.73872e-08
-1.64236e-07
6.79895e-08
-1.76072e-07
6.83571e-08
-1.87926e-07
6.85033e-08
-1.99764e-07
6.84394e-08
-2.1155e-07
6.81754e-08
-2.23253e-07
6.77194e-08
-2.3484e-07
6.70781e-08
-2.46279e-07
6.62568e-08
-2.57541e-07
6.5259e-08
-2.68594e-07
6.40871e-08
-2.79409e-07
6.27426e-08
-2.89954e-07
6.12256e-08
-3.00201e-07
5.95356e-08
-3.10119e-07
5.76714e-08
-3.19678e-07
5.56315e-08
-3.28847e-07
5.34139e-08
-3.37595e-07
5.10168e-08
-3.45891e-07
4.84385e-08
-3.53706e-07
4.56775e-08
-3.61007e-07
4.2733e-08
-3.67765e-07
3.96051e-08
-3.73948e-07
3.62945e-08
-3.79527e-07
3.28032e-08
-3.84473e-07
2.91345e-08
-3.88758e-07
2.5293e-08
-3.92354e-07
2.12852e-08
-3.95236e-07
1.71188e-08
-3.9738e-07
1.28038e-08
-3.98764e-07
8.35186e-09
-3.99368e-07
3.77652e-09
-3.99177e-07
-9.06555e-10
-3.98174e-07
-5.67975e-09
-3.96351e-07
-1.05235e-08
-3.937e-07
-1.54162e-08
-3.90217e-07
-2.03346e-08
-3.85903e-07
-2.52537e-08
-3.80764e-07
-3.01468e-08
-3.74809e-07
-3.49858e-08
-3.68052e-07
-3.97417e-08
-3.60513e-07
-4.43844e-08
-3.52216e-07
-4.88831e-08
-3.4319e-07
-5.32067e-08
-3.33469e-07
-5.73241e-08
-3.23092e-07
-6.12045e-08
-3.12104e-07
-6.48179e-08
-3.00554e-07
-6.81351e-08
-2.88493e-07
-7.11285e-08
-2.75981e-07
-7.3772e-08
-2.63077e-07
-7.6042e-08
-2.49847e-07
-7.79171e-08
-2.36358e-07
-7.93786e-08
-2.22681e-07
-8.04112e-08
-2.08887e-07
-8.10028e-08
-1.95051e-07
-8.11447e-08
-1.81245e-07
-8.08322e-08
-1.67546e-07
-8.00646e-08
-1.54027e-07
-7.88451e-08
-1.40759e-07
-7.71812e-08
-1.27815e-07
-7.50845e-08
-1.15262e-07
-7.25708e-08
-1.03165e-07
-6.96603e-08
-9.15842e-08
-6.63773e-08
-8.05759e-08
-6.27504e-08
-7.01906e-08
-5.88121e-08
-6.04726e-08
-5.45993e-08
-5.14598e-08
-5.01532e-08
-4.31824e-08
-4.55191e-08
-3.56629e-08
-4.07469e-08
-2.89153e-08
-3.58914e-08
-2.29446e-08
-3.10123e-08
-1.77462e-08
-2.61754e-08
-1.33058e-08
-2.14524e-08
-9.59891e-09
-1.69227e-08
-6.59061e-09
-1.26737e-08
-4.23573e-09
-8.80245e-09
-2.47886e-09
-5.41714e-09
-1.25481e-09
-2.63874e-09
-4.89324e-10
-6.02581e-10
-1.00257e-10
5.39551e-10
6.09053e-10
-6.5613e-10
2.50385e-09
-2.52162e-09
8.1702e-09
-5.51017e-09
1.42157e-08
-9.54611e-09
2.04265e-08
-1.45602e-08
2.66363e-08
-2.04873e-08
3.27134e-08
-2.72645e-08
3.8557e-08
-3.483e-08
4.40931e-08
-4.31229e-08
4.92696e-08
-5.20829e-08
5.40526e-08
-6.16504e-08
5.8423e-08
-7.17665e-08
6.23728e-08
-8.23737e-08
6.59034e-08
-9.34159e-08
6.90225e-08
-1.04839e-07
7.17426e-08
-1.16589e-07
7.40798e-08
-1.28617e-07
7.60518e-08
-1.40874e-07
7.76774e-08
-1.53314e-07
7.89756e-08
-1.65892e-07
7.9965e-08
-1.78565e-07
8.0663e-08
-1.91294e-07
8.10859e-08
-2.04039e-07
8.12485e-08
-2.16763e-07
8.11636e-08
-2.2943e-07
8.08424e-08
-2.42005e-07
8.02943e-08
-2.54454e-07
7.95269e-08
-2.66743e-07
7.8546e-08
-2.7884e-07
7.73559e-08
-2.90712e-07
7.59593e-08
-3.02328e-07
7.43577e-08
-3.13653e-07
7.25515e-08
-3.24658e-07
7.05401e-08
-3.35309e-07
6.83222e-08
-3.45573e-07
6.58961e-08
-3.55419e-07
6.32597e-08
-3.64813e-07
6.04111e-08
-3.73723e-07
5.73483e-08
-3.82116e-07
5.40699e-08
-3.89958e-07
5.05751e-08
-3.97217e-07
4.68642e-08
-4.03861e-07
4.29381e-08
-4.09857e-07
3.87996e-08
-4.15175e-07
3.44526e-08
-4.19785e-07
2.99027e-08
-4.23657e-07
2.51575e-08
-4.26765e-07
2.02266e-08
-4.29083e-07
1.51215e-08
-4.30587e-07
9.85616e-09
-4.31257e-07
4.44655e-09
-4.31075e-07
-1.08887e-09
-4.30025e-07
-6.72936e-09
-4.28097e-07
-1.24519e-08
-4.25282e-07
-1.82312e-08
-4.21576e-07
-2.40399e-08
-4.16981e-07
-2.98487e-08
-4.11502e-07
-3.56262e-08
-4.05148e-07
-4.13397e-08
-3.97935e-07
-4.6955e-08
-3.89882e-07
-5.24368e-08
-3.81016e-07
-5.77492e-08
-3.71367e-07
-6.28557e-08
-3.60971e-07
-6.77198e-08
-3.4987e-07
-7.23056e-08
-3.38111e-07
-7.65776e-08
-3.25744e-07
-8.05019e-08
-3.12826e-07
-8.40458e-08
-2.99419e-07
-8.71791e-08
-2.85588e-07
-8.98737e-08
-2.714e-07
-9.21047e-08
-2.56929e-07
-9.38502e-08
-2.42248e-07
-9.50919e-08
-2.27435e-07
-9.58158e-08
-2.12568e-07
-9.60116e-08
-1.97726e-07
-9.56739e-08
-1.82989e-07
-9.48016e-08
-1.68436e-07
-9.33985e-08
-1.54144e-07
-9.14735e-08
-1.40188e-07
-8.90402e-08
-1.26642e-07
-8.61172e-08
-1.13574e-07
-8.27283e-08
-1.01049e-07
-7.8902e-08
-8.91273e-08
-7.4672e-08
-7.78628e-08
-7.00765e-08
-6.73031e-08
-6.5159e-08
-5.74886e-08
-5.99677e-08
-4.84521e-08
-5.45555e-08
-4.02181e-08
-4.89809e-08
-3.28023e-08
-4.33072e-08
-2.62109e-08
-3.76037e-08
-2.04406e-08
-3.19457e-08
-1.54781e-08
-2.64149e-08
-1.12999e-08
-2.11009e-08
-7.87223e-09
-1.61013e-08
-5.15146e-09
-1.15232e-08
-3.08424e-09
-7.48438e-09
-1.60832e-09
-4.11466e-09
-6.53662e-10
-1.55724e-09
-1.44045e-10
2.99325e-11
4.65008e-10
-7.32923e-10
3.23678e-09
-2.80807e-09
1.02453e-08
-6.11936e-09
1.7527e-08
-1.05731e-08
2.48802e-08
-1.60842e-08
3.21474e-08
-2.25739e-08
3.92031e-08
-2.99679e-08
4.5951e-08
-3.81951e-08
5.23203e-08
-4.71869e-08
5.82613e-08
-5.68766e-08
6.37423e-08
-6.71994e-08
6.87458e-08
-7.80924e-08
7.32658e-08
-8.94944e-08
7.73055e-08
-1.01346e-07
8.08745e-08
-1.13592e-07
8.39877e-08
-1.26175e-07
8.6663e-08
-1.39044e-07
8.89205e-08
-1.52147e-07
9.07813e-08
-1.65438e-07
9.22664e-08
-1.7887e-07
9.33965e-08
-1.92398e-07
9.41911e-08
-2.0598e-07
9.46683e-08
-2.19576e-07
9.48446e-08
-2.33147e-07
9.47342e-08
-2.46654e-07
9.43498e-08
-2.60062e-07
9.37017e-08
-2.73333e-07
9.27985e-08
-2.86434e-07
9.16466e-08
-2.99329e-07
9.02509e-08
-3.11984e-07
8.86144e-08
-3.24365e-07
8.67388e-08
-3.36438e-07
8.46245e-08
-3.48169e-07
8.2271e-08
-3.59524e-07
7.96768e-08
-3.70467e-07
7.684e-08
-3.80966e-07
7.37584e-08
-3.90985e-07
7.04298e-08
-4.00489e-07
6.68522e-08
-4.09443e-07
6.30241e-08
-4.17813e-07
5.89448e-08
-4.25563e-07
5.46146e-08
-4.3266e-07
5.0035e-08
-4.3907e-07
4.52092e-08
-4.44759e-07
4.01419e-08
-4.49696e-07
3.48399e-08
-4.53851e-07
2.9312e-08
-4.57193e-07
2.35692e-08
-4.59697e-07
1.76253e-08
-4.61337e-07
1.14961e-08
-4.62091e-07
5.20043e-09
-4.61939e-07
-1.24044e-09
-4.60866e-07
-7.80249e-09
-4.58859e-07
-1.44591e-08
-4.55909e-07
-2.1181e-08
-4.52012e-07
-2.79367e-08
-4.47169e-07
-3.46922e-08
-4.41384e-07
-4.14114e-08
-4.34667e-07
-4.80564e-08
-4.27034e-07
-5.45877e-08
-4.18506e-07
-6.09648e-08
-4.0911e-07
-6.71458e-08
-3.98876e-07
-7.30889e-08
-3.87844e-07
-7.87519e-08
-3.76057e-07
-8.4093e-08
-3.63563e-07
-8.90714e-08
-3.50417e-07
-9.36477e-08
-3.36679e-07
-9.77843e-08
-3.22412e-07
-1.01446e-07