/*--------------------------------*- C++ -*----------------------------------*\
  =========                 |
  \\      /  F ield         | OpenFOAM: The Open Source CFD Toolbox
   \\    /   O peration     | Website:  https://openfoam.org
    \\  /    A nd           | Version:  7
     \\/     M anipulation  |
\*---------------------------------------------------------------------------*/
FoamFile
{
    version     2.0;
    format      ascii;
    class       volVectorField;
    location    "0.375";
    object      U;
}
// * * * * * * * * * * * * * * * * * * * * * * * * * * * * * * * * * * * * * //

dimensions      [0 1 -1 0 0 0 0];

internalField   nonuniform List<vector> 
10000
(
(3.79366e-06 -3.68575e-06 0)
(1.32038e-05 -5.92541e-06 0)
(2.27365e-05 -4.77094e-06 0)
(2.5997e-05 -1.94505e-06 0)
(2.02748e-05 1.36187e-06 0)
(4.89185e-06 4.65767e-06 0)
(-1.9946e-05 7.7196e-06 0)
(-5.36826e-05 1.04992e-05 0)
(-9.55551e-05 1.29727e-05 0)
(-0.000144774 1.51321e-05 0)
(-0.000200506 1.70072e-05 0)
(-0.000261953 1.86233e-05 0)
(-0.000328381 1.99977e-05 0)
(-0.000399083 2.11591e-05 0)
(-0.000473416 2.21281e-05 0)
(-0.000550806 2.29176e-05 0)
(-0.000630716 2.3552e-05 0)
(-0.000712664 2.40585e-05 0)
(-0.000796232 2.44508e-05 0)
(-0.000881031 2.47348e-05 0)
(-0.000966707 2.49201e-05 0)
(-0.00105294 2.50164e-05 0)
(-0.00113946 2.50317e-05 0)
(-0.00122599 2.4979e-05 0)
(-0.0013123 2.48714e-05 0)
(-0.00139815 2.47129e-05 0)
(-0.00148334 2.44985e-05 0)
(-0.00156767 2.42254e-05 0)
(-0.00165093 2.38968e-05 0)
(-0.00173293 2.35141e-05 0)
(-0.00181347 2.30769e-05 0)
(-0.00189237 2.25851e-05 0)
(-0.00196941 2.20395e-05 0)
(-0.0020444 2.1439e-05 0)
(-0.00211712 2.07781e-05 0)
(-0.00218736 2.00513e-05 0)
(-0.00225489 1.92568e-05 0)
(-0.00231948 1.83939e-05 0)
(-0.00238089 1.74607e-05 0)
(-0.00243887 1.64537e-05 0)
(-0.00249317 1.537e-05 0)
(-0.00254354 1.42092e-05 0)
(-0.00258971 1.29709e-05 0)
(-0.00263142 1.16541e-05 0)
(-0.00266842 1.02577e-05 0)
(-0.00270045 8.78279e-06 0)
(-0.00272727 7.2324e-06 0)
(-0.00274862 5.61015e-06 0)
(-0.00276428 3.91864e-06 0)
(-0.00277404 2.16118e-06 0)
(-0.0027777 3.44021e-07 0)
(-0.00277509 -1.52471e-06 0)
(-0.00276606 -3.43684e-06 0)
(-0.00275048 -5.38384e-06 0)
(-0.00272827 -7.35649e-06 0)
(-0.00269937 -9.34486e-06 0)
(-0.00266377 -1.13368e-05 0)
(-0.00262148 -1.33182e-05 0)
(-0.00257258 -1.52747e-05 0)
(-0.00251718 -1.71931e-05 0)
(-0.00245544 -1.90593e-05 0)
(-0.00238756 -2.08581e-05 0)
(-0.0023138 -2.25738e-05 0)
(-0.00223447 -2.41912e-05 0)
(-0.00214992 -2.56956e-05 0)
(-0.00206055 -2.70728e-05 0)
(-0.00196682 -2.83086e-05 0)
(-0.00186919 -2.93893e-05 0)
(-0.00176822 -3.03027e-05 0)
(-0.00166446 -3.10381e-05 0)
(-0.00155852 -3.15869e-05 0)
(-0.00145101 -3.19421e-05 0)
(-0.00134259 -3.20977e-05 0)
(-0.00123392 -3.20489e-05 0)
(-0.00112568 -3.17924e-05 0)
(-0.00101855 -3.13277e-05 0)
(-0.0009132 -3.06565e-05 0)
(-0.000810312 -2.97821e-05 0)
(-0.000710543 -2.87095e-05 0)
(-0.000614529 -2.74459e-05 0)
(-0.000522885 -2.6e-05 0)
(-0.00043619 -2.43822e-05 0)
(-0.000354991 -2.26047e-05 0)
(-0.000279788 -2.06807e-05 0)
(-0.000211037 -1.86247e-05 0)
(-0.000149143 -1.64523e-05 0)
(-9.44491e-05 -1.41803e-05 0)
(-4.72392e-05 -1.18264e-05 0)
(-7.7257e-06 -9.41003e-06 0)
(2.39564e-05 -6.95429e-06 0)
(4.77641e-05 -4.48693e-06 0)
(6.37639e-05 -2.04368e-06 0)
(7.2156e-05 3.29894e-07 0)
(7.33168e-05 2.56936e-06 0)
(6.78683e-05 4.57509e-06 0)
(5.6785e-05 6.18616e-06 0)
(4.15368e-05 7.14034e-06 0)
(2.43628e-05 6.99965e-06 0)
(9.07332e-06 5.10111e-06 0)
(1.2563e-06 1.26385e-06 0)
(5.9247e-06 -1.31894e-05 0)
(1.79189e-05 -1.78948e-05 0)
(2.39115e-05 -9.72704e-06 0)
(1.39483e-05 5.17835e-06 0)
(-1.72609e-05 2.28431e-05 0)
(-7.16922e-05 4.1065e-05 0)
(-0.000149535 5.87164e-05 0)
(-0.000249957 7.52306e-05 0)
(-0.000371567 9.03077e-05 0)
(-0.00051259 0.000103859 0)
(-0.00067115 0.000115877 0)
(-0.00084535 0.000126409 0)
(-0.0010333 0.000135544 0)
(-0.00123322 0.000143384 0)
(-0.00144343 0.000150024 0)
(-0.00166237 0.000155568 0)
(-0.00188861 0.000160123 0)
(-0.00212082 0.000163781 0)
(-0.00235781 0.000166631 0)
(-0.00259847 0.000168755 0)
(-0.00284182 0.000170221 0)
(-0.00308692 0.000171084 0)
(-0.00333296 0.000171392 0)
(-0.00357915 0.000171196 0)
(-0.00382479 0.000170537 0)
(-0.0040692 0.000169444 0)
(-0.00431174 0.000167935 0)
(-0.00455179 0.000166022 0)
(-0.00478878 0.000163714 0)
(-0.0050221 0.000161014 0)
(-0.00525119 0.00015792 0)
(-0.00547546 0.000154431 0)
(-0.00569432 0.000150541 0)
(-0.00590718 0.000146239 0)
(-0.00611342 0.000141512 0)
(-0.00631242 0.000136342 0)
(-0.00650353 0.00013072 0)
(-0.00668609 0.000124631 0)
(-0.00685943 0.000118063 0)
(-0.00702286 0.000111001 0)
(-0.00717568 0.000103438 0)
(-0.00731718 9.537e-05 0)
(-0.00744664 8.6792e-05 0)
(-0.00756335 7.77031e-05 0)
(-0.00766661 6.81075e-05 0)
(-0.00775571 5.80159e-05 0)
(-0.00782999 4.74448e-05 0)
(-0.00788879 3.64151e-05 0)
(-0.0079315 2.49521e-05 0)
(-0.00795755 1.30874e-05 0)
(-0.00796643 8.60366e-07 0)
(-0.00795768 -1.16815e-05 0)
(-0.00793091 -2.44847e-05 0)
(-0.00788583 -3.74908e-05 0)
(-0.0078222 -5.06353e-05 0)
(-0.00773991 -6.38467e-05 0)
(-0.00763894 -7.70467e-05 0)
(-0.00751939 -9.01522e-05 0)
(-0.00738146 -0.000103077 0)
(-0.00722549 -0.000115732 0)
(-0.00705193 -0.000128024 0)
(-0.00686139 -0.000139857 0)
(-0.00665457 -0.000151136 0)
(-0.00643232 -0.000161764 0)
(-0.00619564 -0.00017165 0)
(-0.00594563 -0.000180701 0)
(-0.00568351 -0.000188831 0)
(-0.00541064 -0.000195957 0)
(-0.00512846 -0.000202006 0)
(-0.00483852 -0.000206909 0)
(-0.00454245 -0.000210611 0)
(-0.00424198 -0.000213062 0)
(-0.00393886 -0.000214225 0)
(-0.0036349 -0.000214071 0)
(-0.00333195 -0.000212584 0)
(-0.00303186 -0.000209761 0)
(-0.00273648 -0.000205611 0)
(-0.00244765 -0.000200155 0)
(-0.00216715 -0.000193426 0)
(-0.00189673 -0.000185468 0)
(-0.00163806 -0.000176337 0)
(-0.00139271 -0.000166101 0)
(-0.00116217 -0.000154837 0)
(-0.000947802 -0.000142634 0)
(-0.00075084 -0.000129592 0)
(-0.000572364 -0.000115818 0)
(-0.000413293 -0.000101431 0)
(-0.000274358 -8.65655e-05 0)
(-0.000156087 -7.13685e-05 0)
(-5.87729e-05 -5.60119e-05 0)
(1.75589e-05 -4.06969e-05 0)
(7.32035e-05 -2.56698e-05 0)
(0.000108843 -1.12422e-05 0)
(0.000125647 2.17485e-06 0)
(0.000125412 1.40142e-05 0)
(0.000110747 2.34734e-05 0)
(8.52586e-05 2.94118e-05 0)
(5.38157e-05 3.02134e-05 0)
(2.36976e-05 2.37866e-05 0)
(5.04641e-06 9.04509e-06 0)
(4.5786e-06 -2.25023e-05 0)
(9.43877e-06 -2.38951e-05 0)
(-8.52193e-07 4.16712e-07 0)
(-3.6398e-05 3.89367e-05 0)
(-0.000103051 8.4123e-05 0)
(-0.000203417 0.000131341 0)
(-0.00033796 0.00017781 0)
(-0.000505868 0.000221881 0)
(-0.000705348 0.000262694 0)
(-0.000934115 0.000299803 0)
(-0.00118961 0.000333049 0)
(-0.00146912 0.000362479 0)
(-0.00176996 0.000388224 0)
(-0.00208951 0.000410479 0)
(-0.00242527 0.000429486 0)
(-0.00277488 0.000445488 0)
(-0.00313613 0.000458726 0)
(-0.003507 0.00046944 0)
(-0.00388559 0.000477856 0)
(-0.00427019 0.000484182 0)
(-0.0046592 0.000488602 0)
(-0.00505116 0.000491279 0)
(-0.00544471 0.000492347 0)
(-0.00583861 0.000491929 0)
(-0.00623166 0.000490126 0)
(-0.00662278 0.00048702 0)
(-0.0070109 0.000482668 0)
(-0.00739503 0.000477117 0)
(-0.00777417 0.000470392 0)
(-0.00814737 0.000462508 0)
(-0.00851367 0.000453464 0)
(-0.00887212 0.000443254 0)
(-0.00922176 0.000431863 0)
(-0.00956161 0.000419265 0)
(-0.00989068 0.000405429 0)
(-0.010208 0.000390323 0)
(-0.0105125 0.000373914 0)
(-0.0108031 0.00035617 0)
(-0.0110787 0.00033706 0)
(-0.0113383 0.000316555 0)
(-0.0115808 0.000294634 0)
(-0.0118051 0.000271288 0)
(-0.0120099 0.000246512 0)
(-0.0121943 0.00022031 0)
(-0.0123571 0.000192699 0)
(-0.0124973 0.000163712 0)
(-0.0126138 0.000133399 0)
(-0.0127055 0.000101821 0)
(-0.0127717 6.90549e-05 0)
(-0.0128114 3.5196e-05 0)
(-0.0128238 3.58856e-07 0)
(-0.0128082 -3.53247e-05 0)
(-0.0127641 -7.17053e-05 0)
(-0.0126911 -0.000108616 0)
(-0.0125888 -0.000145873 0)
(-0.012457 -0.000183273 0)
(-0.0122959 -0.000220602 0)
(-0.0121054 -0.00025763 0)
(-0.0118861 -0.000294116 0)
(-0.0116385 -0.000329812 0)
(-0.0113632 -0.00036446 0)
(-0.0110613 -0.000397797 0)
(-0.0107338 -0.00042956 0)
(-0.0103822 -0.000459486 0)
(-0.0100079 -0.000487318 0)
(-0.00961272 -0.000512807 0)
(-0.00919856 -0.000535715 0)
(-0.00876752 -0.000555818 0)
(-0.00832184 -0.000572912 0)
(-0.00786393 -0.000586813 0)
(-0.00739634 -0.000597362 0)
(-0.00692171 -0.000604426 0)
(-0.00644277 -0.000607899 0)
(-0.00596235 -0.000607707 0)
(-0.00548327 -0.000603806 0)
(-0.00500843 -0.000596186 0)
(-0.00454068 -0.000584873 0)
(-0.00408285 -0.000569924 0)
(-0.00363773 -0.000551431 0)
(-0.00320801 -0.000529519 0)
(-0.00279626 -0.000504345 0)
(-0.00240493 -0.000476097 0)
(-0.00203632 -0.000444994 0)
(-0.00169252 -0.000411288 0)
(-0.00137543 -0.000375261 0)
(-0.0010867 -0.000337226 0)
(-0.000827721 -0.00029753 0)
(-0.000599589 -0.000256562 0)
(-0.000403067 -0.00021476 0)
(-0.000238545 -0.000172626 0)
(-0.000105982 -0.000130746 0)
(-4.83942e-06 -8.9823e-05 0)
(6.60133e-05 -5.07259e-05 0)
(0.000108417 -1.45557e-05 0)
(0.000125085 1.72549e-05 0)
(0.000119786 4.28185e-05 0)
(9.74897e-05 5.96551e-05 0)
(6.45359e-05 6.45841e-05 0)
(3.00183e-05 5.38346e-05 0)
(6.87969e-06 2.41884e-05 0)
(1.87698e-06 -2.56972e-05 0)
(-5.39401e-06 -1.37992e-05 0)
(-3.95906e-05 3.60562e-05 0)
(-0.000108641 0.000107594 0)
(-0.000217645 0.000189986 0)
(-0.000369157 0.000276102 0)
(-0.000563704 0.000361282 0)
(-0.000800258 0.000442687 0)
(-0.00107682 0.000518621 0)
(-0.00139075 0.000588144 0)
(-0.00173897 0.000650876 0)
(-0.00211824 0.000706746 0)
(-0.00252526 0.000755897 0)
(-0.00295678 0.000798627 0)
(-0.00340964 0.000835307 0)
(-0.00388085 0.00086634 0)
(-0.00436758 0.000892149 0)
(-0.00486718 0.000913146 0)
(-0.00537718 0.00092972 0)
(-0.0058953 0.000942247 0)
(-0.00641943 0.000951063 0)
(-0.0069476 0.000956464 0)
(-0.00747798 0.000958711 0)
(-0.00800887 0.000958027 0)
(-0.00853866 0.000954598 0)
(-0.00906584 0.000948573 0)
(-0.00958896 0.000940067 0)
(-0.0101066 0.00092917 0)
(-0.0106175 0.000915937 0)
(-0.0111202 0.000900396 0)
(-0.0116136 0.000882557 0)
(-0.0120961 0.000862409 0)
(-0.0125666 0.000839927 0)
(-0.0130237 0.000815069 0)
(-0.013466 0.000787783 0)
(-0.0138923 0.000758016 0)
(-0.014301 0.000725715 0)
(-0.0146909 0.000690822 0)
(-0.0150603 0.000653282 0)
(-0.015408 0.000613053 0)
(-0.0157324 0.000570106 0)
(-0.016032 0.000524422 0)
(-0.0163054 0.000475999 0)
(-0.0165512 0.000424856 0)
(-0.0167677 0.000371036 0)
(-0.0169538 0.000314608 0)
(-0.0171079 0.000255666 0)
(-0.0172289 0.000194335 0)
(-0.0173155 0.000130771 0)
(-0.0173666 6.51611e-05 0)
(-0.0173812 -2.27103e-06 0)
(-0.0173584 -7.12704e-05 0)
(-0.0172976 -0.000141549 0)
(-0.0171981 -0.000212785 0)
(-0.0170596 -0.000284625 0)
(-0.0168819 -0.000356686 0)
(-0.0166652 -0.000428554 0)
(-0.0164095 -0.000499794 0)
(-0.0161155 -0.000569949 0)
(-0.0157839 -0.000638545 0)
(-0.0154157 -0.000705096 0)
(-0.0150122 -0.000769105 0)
(-0.0145748 -0.000830074 0)
(-0.0141054 -0.00088751 0)
(-0.0136061 -0.000940928 0)
(-0.0130791 -0.000989859 0)
(-0.0125269 -0.00103386 0)
(-0.0119523 -0.0010725 0)
(-0.0113583 -0.0011054 0)
(-0.0107479 -0.00113221 0)
(-0.0101247 -0.00115265 0)
(-0.00949197 -0.00116644 0)
(-0.00885335 -0.0011734 0)
(-0.00821252 -0.00117339 0)
(-0.0075732 -0.00116632 0)
(-0.00693915 -0.00115218 0)
(-0.00631413 -0.00113102 0)
(-0.00570183 -0.00110294 0)
(-0.00510589 -0.00106812 0)
(-0.00452983 -0.0010268 0)
(-0.00397702 -0.000979282 0)
(-0.00345066 -0.000925922 0)
(-0.00295373 -0.000867146 0)
(-0.00248897 -0.000803438 0)
(-0.00205883 -0.000735345 0)
(-0.00166546 -0.000663474 0)
(-0.00131064 -0.000588505 0)
(-0.00099576 -0.000511197 0)
(-0.000721771 -0.000432406 0)
(-0.000489124 -0.000353107 0)
(-0.000297711 -0.00027443 0)
(-0.000146779 -0.000197708 0)
(-3.48397e-05 -0.000124553 0)
(4.04569e-05 -5.69472e-05 0)
(8.24662e-05 2.62735e-06 0)
(9.57173e-05 5.10379e-05 0)
(8.60104e-05 8.43432e-05 0)
(6.05574e-05 9.76932e-05 0)
(2.94453e-05 8.53913e-05 0)
(7.00197e-06 4.11836e-05 0)
(-1.35373e-06 -1.98962e-05 0)
(-2.31805e-05 1.79091e-05 0)
(-8.57287e-05 0.000103477 0)
(-0.000193215 0.000216977 0)
(-0.000349079 0.000344915 0)
(-0.000555424 0.000477879 0)
(-0.000812341 0.000609567 0)
(-0.00111854 0.000735863 0)
(-0.00147173 0.000854189 0)
(-0.00186892 0.000963082 0)
(-0.00230668 0.00106181 0)
(-0.00278136 0.00115015 0)
(-0.00328918 0.00122823 0)
(-0.0038264 0.00129641 0)
(-0.00438936 0.00135516 0)
(-0.00497454 0.00140508 0)
(-0.0055786 0.00144675 0)
(-0.00619839 0.00148078 0)
(-0.00683093 0.00150776 0)
(-0.00747347 0.00152823 0)
(-0.00812341 0.0015427 0)
(-0.00877836 0.00155163 0)
(-0.00943605 0.00155541 0)
(-0.0100944 0.00155441 0)
(-0.0107513 0.00154889 0)
(-0.011405 0.0015391 0)
(-0.0120536 0.00152523 0)
(-0.0126953 0.00150741 0)
(-0.0133285 0.00148573 0)
(-0.0139515 0.00146025 0)
(-0.0145626 0.00143098 0)
(-0.0151602 0.00139792 0)
(-0.0157426 0.00136103 0)
(-0.0163082 0.00132025 0)
(-0.0168553 0.00127552 0)
(-0.0173822 0.00122676 0)
(-0.0178871 0.00117388 0)
(-0.0183684 0.0011168 0)
(-0.0188242 0.00105546 0)
(-0.0192527 0.000989799 0)
(-0.0196522 0.00091977 0)
(-0.0200208 0.000845357 0)
(-0.0203568 0.000766569 0)
(-0.0206584 0.000683447 0)
(-0.0209238 0.000596069 0)
(-0.0211514 0.000504554 0)
(-0.0213395 0.000409061 0)
(-0.0214865 0.000309799 0)
(-0.0215911 0.000207022 0)
(-0.0216519 0.000101039 0)
(-0.0216677 -7.78849e-06 0)
(-0.0216375 -0.000119048 0)
(-0.0215605 -0.000232276 0)
(-0.0214361 -0.000346956 0)
(-0.0212638 -0.000462524 0)
(-0.0210435 -0.000578365 0)
(-0.0207752 -0.000693825 0)
(-0.0204594 -0.000808209 0)
(-0.0200966 -0.000920795 0)
(-0.0196879 -0.00103083 0)
(-0.0192345 -0.00113754 0)
(-0.0187378 -0.00124014 0)
(-0.0181999 -0.00133786 0)
(-0.0176229 -0.0014299 0)
(-0.0170093 -0.0015155 0)
(-0.0163618 -0.00159393 0)
(-0.0156836 -0.00166449 0)
(-0.014978 -0.0017265 0)
(-0.0142486 -0.00177937 0)
(-0.0134992 -0.00182255 0)
(-0.0127338 -0.00185556 0)
(-0.0119567 -0.00187802 0)
(-0.0111721 -0.00188962 0)
(-0.0103846 -0.00189012 0)
(-0.00959856 -0.00187942 0)
(-0.00881857 -0.00185747 0)
(-0.00804915 -0.00182437 0)
(-0.00729477 -0.00178028 0)
(-0.00655981 -0.00172548 0)
(-0.00584852 -0.00166035 0)
(-0.00516495 -0.00158538 0)
(-0.00451295 -0.00150114 0)
(-0.00389613 -0.00140831 0)
(-0.00331775 -0.00130769 0)
(-0.00278077 -0.00120013 0)
(-0.00228774 -0.00108663 0)
(-0.00184078 -0.00096829 0)
(-0.00144153 -0.000846331 0)
(-0.0010911 -0.000722132 0)
(-0.000789983 -0.000597257 0)
(-0.000538026 -0.000473495 0)
(-0.000334315 -0.000352934 0)
(-0.0001771 -0.000238043 0)
(-6.36776e-05 -0.00013179 0)
(9.72923e-06 -3.77823e-05 0)
(4.81126e-05 3.95627e-05 0)
(5.77551e-05 9.48361e-05 0)
(4.63596e-05 0.000121507 0)
(2.43625e-05 0.00011185 0)
(6.13533e-06 5.6465e-05 0)
(-4.66989e-06 -4.31847e-06 0)
(-4.20633e-05 7.36089e-05 0)
(-0.00013516 0.000205971 0)
(-0.000283758 0.000370704 0)
(-0.00048918 0.000552215 0)
(-0.000752547 0.000739399 0)
(-0.00107333 0.00092446 0)
(-0.00144973 0.00110214 0)
(-0.00187905 0.00126906 0)
(-0.00235796 0.00142317 0)
(-0.0028827 0.00156338 0)
(-0.00344924 0.0016893 0)
(-0.00405345 0.00180099 0)
(-0.00469118 0.00189886 0)
(-0.00535836 0.0019835 0)
(-0.00605104 0.00205562 0)
(-0.00676548 0.00211602 0)
(-0.00749807 0.0021655 0)
(-0.00824544 0.00220483 0)
(-0.00900442 0.00223477 0)
(-0.00977201 0.00225599 0)
(-0.0105454 0.00226914 0)
(-0.011322 0.00227475 0)
(-0.0120992 0.00227332 0)
(-0.0128747 0.00226524 0)
(-0.0136463 0.00225085 0)
(-0.0144118 0.00223042 0)
(-0.0151692 0.00220414 0)
(-0.0159163 0.00217214 0)
(-0.0166511 0.00213452 0)
(-0.0173718 0.00209129 0)
(-0.0180764 0.00204246 0)
(-0.0187628 0.00198798 0)
(-0.0194291 0.00192777 0)
(-0.0200734 0.00186177 0)
(-0.0206935 0.00178985 0)
(-0.0212875 0.00171193 0)
(-0.0218533 0.00162788 0)
(-0.0223889 0.00153763 0)
(-0.022892 0.00144111 0)
(-0.0233607 0.00133827 0)
(-0.0237929 0.00122909 0)
(-0.0241864 0.0011136 0)
(-0.0245392 0.000991874 0)
(-0.0248493 0.000864037 0)
(-0.0251147 0.000730271 0)
(-0.0253337 0.000590819 0)
(-0.0255043 0.000445989 0)
(-0.0256249 0.000296162 0)
(-0.0256942 0.00014179 0)
(-0.0257106 -1.65997e-05 0)
(-0.0256732 -0.000178407 0)
(-0.0255808 -0.000342957 0)
(-0.025433 -0.000509505 0)
(-0.0252292 -0.000677233 0)
(-0.0249692 -0.000845257 0)
(-0.0246533 -0.00101264 0)
(-0.0242818 -0.00117838 0)
(-0.0238556 -0.00134144 0)
(-0.0233758 -0.00150075 0)
(-0.0228438 -0.00165519 0)
(-0.0222615 -0.00180366 0)
(-0.0216311 -0.00194503 0)
(-0.0209551 -0.00207819 0)
(-0.0202365 -0.00220204 0)
(-0.0194784 -0.00231555 0)
(-0.0186845 -0.0024177 0)
(-0.0178586 -0.00250755 0)
(-0.0170048 -0.00258424 0)
(-0.0161276 -0.002647 0)
(-0.0152316 -0.00269516 0)
(-0.0143217 -0.00272816 0)
(-0.0134028 -0.00274554 0)
(-0.0124801 -0.00274701 0)
(-0.0115588 -0.00273238 0)
(-0.010644 -0.00270163 0)
(-0.00974106 -0.00265486 0)
(-0.00885506 -0.00259232 0)
(-0.00799104 -0.00251442 0)
(-0.00715389 -0.0024217 0)
(-0.00634828 -0.00231487 0)
(-0.00557864 -0.00219477 0)
(-0.0048491 -0.00206237 0)
(-0.00416341 -0.00191881 0)
(-0.00352495 -0.00176537 0)
(-0.00293664 -0.00160347 0)
(-0.00240088 -0.00143472 0)
(-0.00191954 -0.00126088 0)
(-0.00149387 -0.00108396 0)
(-0.00112441 -0.000906174 0)
(-0.000810992 -0.000730085 0)
(-0.000552596 -0.000558613 0)
(-0.000347302 -0.000395161 0)
(-0.000192187 -0.000243737 0)
(-8.32237e-05 -0.000109103 0)
(-1.5171e-05 3.03829e-06 0)
(1.8486e-05 8.58466e-05 0)
(2.56536e-05 0.000131165 0)
(1.66046e-05 0.000129324 0)
(4.76107e-06 6.81841e-05 0)
(-7.90987e-06 2.11635e-05 0)
(-6.09916e-05 0.000154186 0)
(-0.000185352 0.000345097 0)
(-0.000376208 0.000570538 0)
(-0.000632372 0.000813666 0)
(-0.000953799 0.00106204 0)
(-0.00133908 0.00130673 0)
(-0.0017857 0.00154155 0)
(-0.00229048 0.00176241 0)
(-0.00284968 0.00196671 0)
(-0.00345916 0.00215305 0)
(-0.00411457 0.00232085 0)
(-0.00481143 0.0024701 0)
(-0.00554526 0.00260124 0)
(-0.00631166 0.00271495 0)
(-0.00710633 0.00281212 0)
(-0.00792514 0.00289368 0)
(-0.00876417 0.00296065 0)
(-0.00961966 0.003014 0)
(-0.0104881 0.00305468 0)
(-0.0113661 0.00308356 0)
(-0.0122506 0.00310146 0)
(-0.0131385 0.00310909 0)
(-0.0140271 0.00310707 0)
(-0.0149136 0.00309592 0)
(-0.0157955 0.0030761 0)
(-0.0166703 0.00304795 0)
(-0.0175357 0.00301172 0)
(-0.0183892 0.0029676 0)
(-0.0192285 0.00291572 0)
(-0.0200515 0.00285611 0)
(-0.0208558 0.00278878 0)
(-0.0216391 0.00271368 0)
(-0.0223993 0.00263072 0)
(-0.0231341 0.00253981 0)
(-0.023841 0.00244082 0)
(-0.0245179 0.00233361 0)
(-0.0251623 0.00221808 0)
(-0.025772 0.00209411 0)
(-0.0263444 0.00196162 0)
(-0.0268774 0.00182057 0)
(-0.0273684 0.00167096 0)
(-0.0278151 0.00151284 0)
(-0.0282154 0.00134631 0)
(-0.0285668 0.00117157 0)
(-0.0288672 0.000988878 0)
(-0.0291145 0.000798568 0)
(-0.0293068 0.000601073 0)
(-0.0294422 0.00039692 0)
(-0.0295191 0.000186729 0)
(-0.0295359 -2.87829e-05 0)
(-0.0294916 -0.0002488 0)
(-0.0293849 -0.000472406 0)
(-0.0292153 -0.000698591 0)
(-0.0289822 -0.000926253 0)
(-0.0286855 -0.0011542 0)
(-0.0283254 -0.00138117 0)
(-0.0279025 -0.00160582 0)
(-0.0274176 -0.00182676 0)
(-0.026872 -0.00204255 0)
(-0.0262675 -0.0022517 0)
(-0.025606 -0.00245272 0)
(-0.0248902 -0.00264411 0)
(-0.0241228 -0.00282438 0)
(-0.0233072 -0.00299209 0)
(-0.0224469 -0.00314582 0)
(-0.021546 -0.00328424 0)
(-0.0206087 -0.00340609 0)
(-0.0196399 -0.00351022 0)
(-0.0186444 -0.0035956 0)
(-0.0176274 -0.00366134 0)
(-0.0165944 -0.00370669 0)
(-0.0155509 -0.00373105 0)
(-0.0145027 -0.00373403 0)
(-0.0134555 -0.00371537 0)
(-0.0124153 -0.00367505 0)
(-0.0113879 -0.0036132 0)
(-0.0103789 -0.00353018 0)
(-0.00939412 -0.00342653 0)
(-0.00843892 -0.00330299 0)
(-0.00751854 -0.00316051 0)
(-0.00663794 -0.00300022 0)
(-0.00580169 -0.00282345 0)
(-0.00501401 -0.00263174 0)
(-0.00427864 -0.00242682 0)
(-0.00359883 -0.00221062 0)
(-0.00297726 -0.00198531 0)
(-0.00241598 -0.00175328 0)
(-0.00191637 -0.00151721 0)
(-0.00147907 -0.00128009 0)
(-0.00110389 -0.00104527 0)
(-0.000789782 -0.000816589 0)
(-0.00053473 -0.000598423 0)
(-0.000335695 -0.000395845 0)
(-0.000188533 -0.000214771 0)
(-8.79158e-05 -6.21503e-05 0)
(-2.72814e-05 5.38136e-05 0)
(1.25917e-06 0.000123462 0)
(7.45219e-06 0.000135408 0)
(3.16817e-06 7.53591e-05 0)
(-1.09704e-05 5.63233e-05 0)
(-7.94157e-05 0.000259657 0)
(-0.000234885 0.000521126 0)
(-0.000468002 0.00081704 0)
(-0.000775056 0.0011298 0)
(-0.00115466 0.00144615 0)
(-0.00160431 0.00175637 0)
(-0.00212069 0.00205357 0)
(-0.00269998 0.00233306 0)
(-0.00333797 0.00259188 0)
(-0.00403011 0.0028283 0)
(-0.00477171 0.0030416 0)
(-0.00555797 0.00323172 0)
(-0.0063841 0.00339912 0)
(-0.00724538 0.00354458 0)
(-0.00813724 0.00366913 0)
(-0.00905524 0.00377389 0)
(-0.00999513 0.00386004 0)
(-0.0109529 0.00392878 0)
(-0.0119247 0.00398124 0)
(-0.0129068 0.0040185 0)
(-0.0138959 0.00404156 0)
(-0.0148886 0.00405127 0)
(-0.0158818 0.00404843 0)
(-0.0168725 0.00403368 0)
(-0.017858 0.00400758 0)
(-0.0188353 0.00397056 0)
(-0.0198019 0.00392295 0)
(-0.0207551 0.003865 0)
(-0.0216924 0.00379684 0)
(-0.0226111 0.00371855 0)
(-0.0235089 0.00363014 0)
(-0.024383 0.00353156 0)
(-0.0252311 0.00342271 0)
(-0.0260505 0.00330347 0)
(-0.0268387 0.00317369 0)
(-0.0275931 0.00303324 0)
(-0.028311 0.00288196 0)
(-0.02899 0.00271976 0)
(-0.0296272 0.00254653 0)
(-0.0302202 0.00236223 0)
(-0.0307663 0.00216689 0)
(-0.0312629 0.00196059 0)
(-0.0317074 0.0017435 0)
(-0.0320975 0.00151585 0)
(-0.0324306 0.00127802 0)
(-0.0327046 0.00103044 0)
(-0.0329172 0.000773696 0)
(-0.0330666 0.000508469 0)
(-0.0331508 0.000235569 0)
(-0.0331683 -4.407e-05 0)
(-0.0331177 -0.00032939 0)
(-0.032998 -0.000619207 0)
(-0.0328084 -0.000912218 0)
(-0.0325483 -0.001207 0)
(-0.0322177 -0.00150203 0)
(-0.0318168 -0.00179568 0)
(-0.0313462 -0.00208624 0)
(-0.030807 -0.00237191 0)
(-0.0302005 -0.00265084 0)
(-0.0295287 -0.00292115 0)
(-0.0287939 -0.00318093 0)
(-0.0279987 -0.00342826 0)
(-0.0271464 -0.00366123 0)
(-0.0262406 -0.00387801 0)
(-0.0252852 -0.00407678 0)
(-0.0242847 -0.00425585 0)
(-0.0232439 -0.00441361 0)
(-0.0221678 -0.00454861 0)
(-0.0210619 -0.00465952 0)
(-0.0199319 -0.0047452 0)
(-0.0187838 -0.0048047 0)
(-0.0176237 -0.00483727 0)
(-0.0164579 -0.00484239 0)
(-0.0152927 -0.00481976 0)
(-0.0141346 -0.00476933 0)
(-0.01299 -0.0046913 0)
(-0.0118652 -0.0045861 0)
(-0.0107664 -0.00445445 0)
(-0.00969947 -0.00429731 0)
(-0.00867025 -0.00411588 0)
(-0.00768412 -0.00391164 0)
(-0.00674611 -0.00368632 0)
(-0.00586083 -0.00344188 0)
(-0.00503237 -0.00318056 0)
(-0.00426427 -0.00290487 0)
(-0.00355947 -0.00261758 0)
(-0.00292021 -0.00232177 0)
(-0.00234802 -0.00202086 0)
(-0.00184361 -0.00171865 0)
(-0.00140686 -0.00141936 0)
(-0.00103669 -0.00112776 0)
(-0.000731083 -0.00084923 0)
(-0.000486959 -0.000589913 0)
(-0.000300159 -0.000356853 0)
(-0.000165386 -0.000158194 0)
(-7.61644e-05 -3.39781e-06 0)
(-2.47788e-05 9.65437e-05 0)
(-2.22538e-06 0.000128818 0)
(1.53101e-06 7.75566e-05 0)
(-1.38301e-05 0.000100785 0)
(-9.70992e-05 0.000389437 0)
(-0.000282931 0.000733634 0)
(-0.000557638 0.00110985 0)
(-0.000914996 0.0015003 0)
(-0.00135215 0.00189134 0)
(-0.00186546 0.00227277 0)
(-0.00245067 0.00263725 0)
(-0.00310324 0.00297971 0)
(-0.0038184 0.00329687 0)
(-0.00459118 0.00358683 0)
(-0.00541648 0.00384874 0)
(-0.0062892 0.00408252 0)
(-0.00720424 0.00428869 0)
(-0.00815661 0.00446812 0)
(-0.00914145 0.00462199 0)
(-0.0101541 0.0047516 0)
(-0.01119 0.00485832 0)
(-0.0122448 0.00494355 0)
(-0.0133145 0.00500861 0)
(-0.0143952 0.00505479 0)
(-0.0154831 0.00508324 0)
(-0.0165748 0.00509503 0)
(-0.0176667 0.00509106 0)
(-0.0187557 0.00507214 0)
(-0.0198387 0.00503891 0)
(-0.0209127 0.00499191 0)
(-0.0219746 0.00493154 0)
(-0.0230217 0.00485809 0)
(-0.0240511 0.00477175 0)
(-0.02506 0.00467261 0)
(-0.0260456 0.00456068 0)
(-0.0270052 0.00443592 0)
(-0.0279359 0.00429822 0)
(-0.028835 0.00414743 0)
(-0.0296997 0.00398341 0)
(-0.030527 0.00380598 0)
(-0.0313143 0.003615 0)
(-0.0320585 0.00341033 0)
(-0.0327569 0.00319189 0)
(-0.0334065 0.00295964 0)
(-0.0340046 0.00271363 0)
(-0.0345483 0.00245399 0)
(-0.0350349 0.00218093 0)
(-0.0354616 0.00189479 0)
(-0.035826 0.00159603 0)
(-0.0361255 0.00128521 0)
(-0.0363578 0.000963079 0)
(-0.0365208 0.000630491 0)
(-0.0366125 0.000288469 0)
(-0.0366312 -6.18206e-05 0)
(-0.0365756 -0.000419053 0)
(-0.0364443 -0.000781751 0)
(-0.0362366 -0.00114829 0)
(-0.0359519 -0.00151691 0)
(-0.0355902 -0.0018857 0)
(-0.0351518 -0.00225266 0)
(-0.0346372 -0.00261565 0)
(-0.0340477 -0.00297247 0)
(-0.0333847 -0.00332081 0)
(-0.0326504 -0.00365836 0)
(-0.0318472 -0.00398273 0)
(-0.0309781 -0.00429157 0)
(-0.0300466 -0.00458253 0)
(-0.0290564 -0.00485332 0)
(-0.0280121 -0.00510172 0)
(-0.0269182 -0.00532563 0)
(-0.0257801 -0.00552307 0)
(-0.0246032 -0.00569224 0)
(-0.0233935 -0.00583151 0)
(-0.022157 -0.00593948 0)
(-0.0209004 -0.00601495 0)
(-0.0196301 -0.00605703 0)
(-0.018353 -0.00606505 0)
(-0.0170761 -0.00603865 0)
(-0.0158062 -0.00597778 0)
(-0.0145503 -0.00588267 0)
(-0.0133152 -0.00575389 0)
(-0.0121076 -0.00559232 0)
(-0.010934 -0.00539915 0)
(-0.00980061 -0.00517589 0)
(-0.00871326 -0.00492438 0)
(-0.0076774 -0.00464677 0)
(-0.00669801 -0.00434551 0)
(-0.00577952 -0.0040234 0)
(-0.00492576 -0.00368354 0)
(-0.00413991 -0.00332938 0)
(-0.00342441 -0.00296473 0)
(-0.00278093 -0.00259381 0)
(-0.00221031 -0.00222124 0)
(-0.00171247 -0.00185218 0)
(-0.00128641 -0.00149235 0)
(-0.000930121 -0.00114814 0)
(-0.000640553 -0.000826744 0)
(-0.000413607 -0.000536314 0)
(-0.000244097 -0.000286112 0)
(-0.000125723 -8.67446e-05 0)
(-5.10336e-05 4.96479e-05 0)
(-1.18581e-05 0.000109116 0)
(-4.8886e-08 7.47127e-05 0)
(-1.65075e-05 0.000154067 0)
(-0.000113925 0.000542718 0)
(-0.000329098 0.000981674 0)
(-0.000644289 0.00144804 0)
(-0.00105082 0.00192427 0)
(-0.00154441 0.00239667 0)
(-0.0021202 0.00285488 0)
(-0.00277294 0.00329135 0)
(-0.00349731 0.00370082 0)
(-0.0042879 0.00407983 0)
(-0.00513925 0.0044264 0)
(-0.00604588 0.00473964 0)
(-0.00700233 0.00501949 0)
(-0.0080032 0.00526655 0)
(-0.00904323 0.00548181 0)
(-0.0101173 0.00566661 0)
(-0.0112205 0.00582242 0)
(-0.0123481 0.00595081 0)
(-0.0134955 0.00605338 0)
(-0.0146585 0.00613166 0)
(-0.0158328 0.00618712 0)
(-0.0170145 0.00622111 0)
(-0.0181999 0.00623485 0)
(-0.0193854 0.00622941 0)
(-0.0205674 0.0062057 0)
(-0.0217427 0.0061645 0)
(-0.0229079 0.00610644 0)
(-0.02406 0.00603198 0)
(-0.0251959 0.00594147 0)
(-0.0263123 0.00583513 0)
(-0.0274065 0.00571309 0)
(-0.0284752 0.00557536 0)
(-0.0295156 0.00542189 0)
(-0.0305246 0.00525256 0)
(-0.0314992 0.00506724 0)
(-0.0324363 0.00486573 0)
(-0.033333 0.00464785 0)
(-0.034186 0.00441345 0)
(-0.0349923 0.00416238 0)
(-0.0357488 0.00389456 0)
(-0.0364525 0.00360997 0)
(-0.0371003 0.00330869 0)
(-0.0376892 0.00299088 0)
(-0.0382162 0.00265684 0)
(-0.0386784 0.00230699 0)
(-0.0390731 0.00194189 0)
(-0.0393976 0.00156227 0)
(-0.0396495 0.00116902 0)
(-0.0398264 0.000763193 0)
(-0.0399263 0.000346044 0)
(-0.0399473 -8.1006e-05 0)
(-0.0398879 -0.000516347 0)
(-0.0397468 -0.000958186 0)
(-0.0395232 -0.00140456 0)
(-0.0392166 -0.00185332 0)
(-0.0388267 -0.00230219 0)
(-0.0383539 -0.00274872 0)
(-0.0377988 -0.00319034 0)
(-0.0371628 -0.00362439 0)
(-0.0364475 -0.0040481 0)
(-0.035655 -0.00445865 0)
(-0.034788 -0.00485321 0)
(-0.0338498 -0.00522891 0)
(-0.0328439 -0.00558293 0)
(-0.0317745 -0.00591252 0)
(-0.0306463 -0.006215 0)
(-0.0294643 -0.00648784 0)
(-0.0282342 -0.00672865 0)
(-0.0269618 -0.00693527 0)
(-0.0256535 -0.00710574 0)
(-0.0243158 -0.00723835 0)
(-0.0229558 -0.00733169 0)
(-0.0215804 -0.00738464 0)
(-0.020197 -0.00739644 0)
(-0.0188131 -0.00736664 0)
(-0.017436 -0.00729517 0)
(-0.0160733 -0.00718232 0)
(-0.0147321 -0.00702879 0)
(-0.0134198 -0.00683564 0)
(-0.0121433 -0.00660431 0)
(-0.0109093 -0.00633664 0)
(-0.0097239 -0.00603486 0)
(-0.00859312 -0.00570157 0)
(-0.00752225 -0.00533977 0)
(-0.00651606 -0.00495282 0)
(-0.00557866 -0.00454448 0)
(-0.00471349 -0.00411893 0)
(-0.00392318 -0.00368074 0)
(-0.00320959 -0.00323495 0)
(-0.00257366 -0.00278709 0)
(-0.00201543 -0.00234324 0)
(-0.00153397 -0.00191009 0)
(-0.00112734 -0.00149506 0)
(-0.000792572 -0.00110639 0)
(-0.000525663 -0.000753278 0)
(-0.000321589 -0.000446036 0)
(-0.000174269 -0.000196303 0)
(-7.65493e-05 -1.71967e-05 0)
(-2.10848e-05 7.64483e-05 0)
(-1.51421e-06 6.69941e-05 0)
(-1.90041e-05 0.000215713 0)
(-0.000129881 0.000718514 0)
(-0.000373224 0.00126402 0)
(-0.000727508 0.00183033 0)
(-0.00118178 0.0024004 0)
(-0.00173035 0.00296079 0)
(-0.00236711 0.00350128 0)
(-0.00308579 0.00401434 0)
(-0.00388023 0.00449467 0)
(-0.00474438 0.00493883 0)
(-0.00567223 0.00534483 0)
(-0.00665786 0.00571182 0)
(-0.00769545 0.00603984 0)
(-0.0087793 0.0063296 0)
(-0.00990388 0.00658226 0)
(-0.0110638 0.0067993 0)
(-0.012254 0.0069824 0)
(-0.0134695 0.00713334 0)
(-0.0147054 0.00725392 0)
(-0.0159574 0.00734586 0)
(-0.017221 0.00741084 0)
(-0.0184921 0.00745039 0)
(-0.0197667 0.00746589 0)
(-0.0210411 0.00745856 0)
(-0.0223116 0.00742946 0)
(-0.0235745 0.00737946 0)
(-0.0248266 0.00730927 0)
(-0.0260643 0.00721946 0)
(-0.0272844 0.00711041 0)
(-0.0284837 0.00698238 0)
(-0.0296588 0.00683552 0)
(-0.0308067 0.00666985 0)
(-0.031924 0.00648532 0)
(-0.0330076 0.00628181 0)
(-0.0340542 0.00605915 0)
(-0.0350605 0.00581715 0)
(-0.0360233 0.0055556 0)
(-0.0369393 0.00527434 0)
(-0.0378053 0.00497321 0)
(-0.0386178 0.00465215 0)
(-0.0393737 0.00431114 0)
(-0.0400696 0.00395031 0)
(-0.0407024 0.00356986 0)
(-0.0412689 0.00317016 0)
(-0.041766 0.00275173 0)
(-0.0421908 0.00231525 0)
(-0.0425405 0.00186161 0)
(-0.0428124 0.00139187 0)
(-0.043004 0.000907297 0)
(-0.0431132 0.000409381 0)
(-0.043138 -0.000100181 0)
(-0.0430768 -0.000619477 0)
(-0.0429281 -0.00114638 0)
(-0.0426911 -0.00167855 0)
(-0.0423651 -0.00221347 0)
(-0.04195 -0.00274841 0)
(-0.0414461 -0.00328049 0)
(-0.0408541 -0.00380668 0)
(-0.0401753 -0.00432381 0)
(-0.0394115 -0.00482863 0)
(-0.0385648 -0.00531781 0)
(-0.0376382 -0.00578797 0)
(-0.036635 -0.00623575 0)
(-0.0355591 -0.00665782 0)
(-0.0344148 -0.00705091 0)
(-0.0332072 -0.00741187 0)
(-0.0319415 -0.00773771 0)
(-0.0306237 -0.0080256 0)