# Probe 0 (1 1 1)
#       Probe             0
#        Time
       0.0033             (-1.79769e+307 -1.79769e+307 -1.79769e+307)
       0.0066             (-1.79769e+307 -1.79769e+307 -1.79769e+307)
       0.0099             (-1.79769e+307 -1.79769e+307 -1.79769e+307)
       0.0132             (-1.79769e+307 -1.79769e+307 -1.79769e+307)
       0.0165             (-1.79769e+307 -1.79769e+307 -1.79769e+307)
       0.0198             (-1.79769e+307 -1.79769e+307 -1.79769e+307)
       0.0231             (-1.79769e+307 -1.79769e+307 -1.79769e+307)
       0.0264             (-1.79769e+307 -1.79769e+307 -1.79769e+307)
       0.0297             (-1.79769e+307 -1.79769e+307 -1.79769e+307)
        0.033             (-1.79769e+307 -1.79769e+307 -1.79769e+307)
       0.0363             (-1.79769e+307 -1.79769e+307 -1.79769e+307)
       0.0396             (-1.79769e+307 -1.79769e+307 -1.79769e+307)
       0.0429             (-1.79769e+307 -1.79769e+307 -1.79769e+307)
       0.0462             (-1.79769e+307 -1.79769e+307 -1.79769e+307)
       0.0495             (-1.79769e+307 -1.79769e+307 -1.79769e+307)
       0.0528             (-1.79769e+307 -1.79769e+307 -1.79769e+307)
       0.0561             (-1.79769e+307 -1.79769e+307 -1.79769e+307)
       0.0594             (-1.79769e+307 -1.79769e+307 -1.79769e+307)
       0.0627             (-1.79769e+307 -1.79769e+307 -1.79769e+307)
        0.066             (-1.79769e+307 -1.79769e+307 -1.79769e+307)
       0.0693             (-1.79769e+307 -1.79769e+307 -1.79769e+307)
       0.0726             (-1.79769e+307 -1.79769e+307 -1.79769e+307)
       0.0759             (-1.79769e+307 -1.79769e+307 -1.79769e+307)
       0.0792             (-1.79769e+307 -1.79769e+307 -1.79769e+307)
       0.0825             (-1.79769e+307 -1.79769e+307 -1.79769e+307)
       0.0858             (-1.79769e+307 -1.79769e+307 -1.79769e+307)
       0.0891             (-1.79769e+307 -1.79769e+307 -1.79769e+307)
       0.0924             (-1.79769e+307 -1.79769e+307 -1.79769e+307)
       0.0957             (-1.79769e+307 -1.79769e+307 -1.79769e+307)
        0.099             (-1.79769e+307 -1.79769e+307 -1.79769e+307)
       0.1023             (-1.79769e+307 -1.79769e+307 -1.79769e+307)
       0.1056             (-1.79769e+307 -1.79769e+307 -1.79769e+307)
       0.1089             (-1.79769e+307 -1.79769e+307 -1.79769e+307)
       0.1122             (-1.79769e+307 -1.79769e+307 -1.79769e+307)
       0.1155             (-1.79769e+307 -1.79769e+307 -1.79769e+307)
       0.1188             (-1.79769e+307 -1.79769e+307 -1.79769e+307)
       0.1221             (-1.79769e+307 -1.79769e+307 -1.79769e+307)
       0.1254             (-1.79769e+307 -1.79769e+307 -1.79769e+307)
       0.1287             (-1.79769e+307 -1.79769e+307 -1.79769e+307)
        0.132             (-1.79769e+307 -1.79769e+307 -1.79769e+307)
       0.1353             (-1.79769e+307 -1.79769e+307 -1.79769e+307)
       0.1386             (-1.79769e+307 -1.79769e+307 -1.79769e+307)
       0.1419             (-1.79769e+307 -1.79769e+307 -1.79769e+307)
       0.1452             (-1.79769e+307 -1.79769e+307 -1.79769e+307)
       0.1485             (-1.79769e+307 -1.79769e+307 -1.79769e+307)
       0.1518             (-1.79769e+307 -1.79769e+307 -1.79769e+307)
       0.1551             (-1.79769e+307 -1.79769e+307 -1.79769e+307)
       0.1584             (-1.79769e+307 -1.79769e+307 -1.79769e+307)
       0.1617             (-1.79769e+307 -1.79769e+307 -1.79769e+307)
        0.165             (-1.79769e+307 -1.79769e+307 -1.79769e+307)
       0.1683             (-1.79769e+307 -1.79769e+307 -1.79769e+307)
       0.1716             (-1.79769e+307 -1.79769e+307 -1.79769e+307)
       0.1749             (-1.79769e+307 -1.79769e+307 -1.79769e+307)
       0.1782             (-1.79769e+307 -1.79769e+307 -1.79769e+307)
       0.1815             (-1.79769e+307 -1.79769e+307 -1.79769e+307)
       0.1848             (-1.79769e+307 -1.79769e+307 -1.79769e+307)
       0.1881             (-1.79769e+307 -1.79769e+307 -1.79769e+307)
       0.1914             (-1.79769e+307 -1.79769e+307 -1.79769e+307)
       0.1947             (-1.79769e+307 -1.79769e+307 -1.79769e+307)
        0.198             (-1.79769e+307 -1.79769e+307 -1.79769e+307)
       0.2013             (-1.79769e+307 -1.79769e+307 -1.79769e+307)
       0.2046             (-1.79769e+307 -1.79769e+307 -1.79769e+307)
       0.2079             (-1.79769e+307 -1.79769e+307 -1.79769e+307)
       0.2112             (-1.79769e+307 -1.79769e+307 -1.79769e+307)
       0.2145             (-1.79769e+307 -1.79769e+307 -1.79769e+307)
       0.2178             (-1.79769e+307 -1.79769e+307 -1.79769e+307)
       0.2211             (-1.79769e+307 -1.79769e+307 -1.79769e+307)
       0.2244             (-1.79769e+307 -1.79769e+307 -1.79769e+307)
       0.2277             (-1.79769e+307 -1.79769e+307 -1.79769e+307)
        0.231             (-1.79769e+307 -1.79769e+307 -1.79769e+307)
       0.2343             (-1.79769e+307 -1.79769e+307 -1.79769e+307)
       0.2376             (-1.79769e+307 -1.79769e+307 -1.79769e+307)
       0.2409             (-1.79769e+307 -1.79769e+307 -1.79769e+307)
       0.2442             (-1.79769e+307 -1.79769e+307 -1.79769e+307)
       0.2475             (-1.79769e+307 -1.79769e+307 -1.79769e+307)
       0.2508             (-1.79769e+307 -1.79769e+307 -1.79769e+307)
       0.2541             (-1.79769e+307 -1.79769e+307 -1.79769e+307)
       0.2574             (-1.79769e+307 -1.79769e+307 -1.79769e+307)
       0.2607             (-1.79769e+307 -1.79769e+307 -1.79769e+307)
        0.264             (-1.79769e+307 -1.79769e+307 -1.79769e+307)
       0.2673             (-1.79769e+307 -1.79769e+307 -1.79769e+307)
       0.2706             (-1.79769e+307 -1.79769e+307 -1.79769e+307)
       0.2739             (-1.79769e+307 -1.79769e+307 -1.79769e+307)
       0.2772             (-1.79769e+307 -1.79769e+307 -1.79769e+307)
       0.2805             (-1.79769e+307 -1.79769e+307 -1.79769e+307)
       0.2838             (-1.79769e+307 -1.79769e+307 -1.79769e+307)
       0.2871             (-1.79769e+307 -1.79769e+307 -1.79769e+307)
       0.2904             (-1.79769e+307 -1.79769e+307 -1.79769e+307)
       0.2937             (-1.79769e+307 -1.79769e+307 -1.79769e+307)
        0.297             (-1.79769e+307 -1.79769e+307 -1.79769e+307)
       0.3003             (-1.79769e+307 -1.79769e+307 -1.79769e+307)
       0.3036             (-1.79769e+307 -1.79769e+307 -1.79769e+307)
       0.3069             (-1.79769e+307 -1.79769e+307 -1.79769e+307)
       0.3102             (-1.79769e+307 -1.79769e+307 -1.79769e+307)
       0.3135             (-1.79769e+307 -1.79769e+307 -1.79769e+307)
       0.3168             (-1.79769e+307 -1.79769e+307 -1.79769e+307)
       0.3201             (-1.79769e+307 -1.79769e+307 -1.79769e+307)
       0.3234             (-1.79769e+307 -1.79769e+307 -1.79769e+307)
       0.3267             (-1.79769e+307 -1.79769e+307 -1.79769e+307)
         0.33             (-1.79769e+307 -1.79769e+307 -1.79769e+307)
       0.3333             (-1.79769e+307 -1.79769e+307 -1.79769e+307)
       0.3366             (-1.79769e+307 -1.79769e+307 -1.79769e+307)
       0.3399             (-1.79769e+307 -1.79769e+307 -1.79769e+307)
       0.3432             (-1.79769e+307 -1.79769e+307 -1.79769e+307)
       0.3465             (-1.79769e+307 -1.79769e+307 -1.79769e+307)
       0.3498             (-1.79769e+307 -1.79769e+307 -1.79769e+307)
       0.3531             (-1.79769e+307 -1.79769e+307 -1.79769e+307)
       0.3564             (-1.79769e+307 -1.79769e+307 -1.79769e+307)
       0.3597             (-1.79769e+307 -1.79769e+307 -1.79769e+307)
        0.363             (-1.79769e+307 -1.79769e+307 -1.79769e+307)
       0.3663             (-1.79769e+307 -1.79769e+307 -1.79769e+307)
       0.3696             (-1.79769e+307 -1.79769e+307 -1.79769e+307)
       0.3729             (-1.79769e+307 -1.79769e+307 -1.79769e+307)
       0.3762             (-1.79769e+307 -1.79769e+307 -1.79769e+307)
       0.3795             (-1.79769e+307 -1.79769e+307 -1.79769e+307)
       0.3828             (-1.79769e+307 -1.79769e+307 -1.79769e+307)
       0.3861             (-1.79769e+307 -1.79769e+307 -1.79769e+307)
       0.3894             (-1.79769e+307 -1.79769e+307 -1.79769e+307)
       0.3927             (-1.79769e+307 -1.79769e+307 -1.79769e+307)
        0.396             (-1.79769e+307 -1.79769e+307 -1.79769e+307)
       0.3993             (-1.79769e+307 -1.79769e+307 -1.79769e+307)
       0.4026             (-1.79769e+307 -1.79769e+307 -1.79769e+307)
       0.4059             (-1.79769e+307 -1.79769e+307 -1.79769e+307)
       0.4092             (-1.79769e+307 -1.79769e+307 -1.79769e+307)
       0.4125             (-1.79769e+307 -1.79769e+307 -1.79769e+307)
       0.4158             (-1.79769e+307 -1.79769e+307 -1.79769e+307)
       0.4191             (-1.79769e+307 -1.79769e+307 -1.79769e+307)
       0.4224             (-1.79769e+307 -1.79769e+307 -1.79769e+307)
       0.4257             (-1.79769e+307 -1.79769e+307 -1.79769e+307)
        0.429             (-1.79769e+307 -1.79769e+307 -1.79769e+307)
       0.4323             (-1.79769e+307 -1.79769e+307 -1.79769e+307)
       0.4356             (-1.79769e+307 -1.79769e+307 -1.79769e+307)
       0.4389             (-1.79769e+307 -1.79769e+307 -1.79769e+307)
       0.4422             (-1.79769e+307 -1.79769e+307 -1.79769e+307)
       0.4455             (-1.79769e+307 -1.79769e+307 -1.79769e+307)
       0.4488             (-1.79769e+307 -1.79769e+307 -1.79769e+307)
       0.4521             (-1.79769e+307 -1.79769e+307 -1.79769e+307)
       0.4554             (-1.79769e+307 -1.79769e+307 -1.79769e+307)
       0.4587             (-1.79769e+307 -1.79769e+307 -1.79769e+307)
        0.462             (-1.79769e+307 -1.79769e+307 -1.79769e+307)
       0.4653             (-1.79769e+307 -1.79769e+307 -1.79769e+307)
       0.4686             (-1.79769e+307 -1.79769e+307 -1.79769e+307)
       0.4719             (-1.79769e+307 -1.79769e+307 -1.79769e+307)
       0.4752             (-1.79769e+307 -1.79769e+307 -1.79769e+307)
       0.4785             (-1.79769e+307 -1.79769e+307 -1.79769e+307)
       0.4818             (-1.79769e+307 -1.79769e+307 -1.79769e+307)
       0.4851             (-1.79769e+307 -1.79769e+307 -1.79769e+307)
       0.4884             (-1.79769e+307 -1.79769e+307 -1.79769e+307)
       0.4917             (-1.79769e+307 -1.79769e+307 -1.79769e+307)
        0.495             (-1.79769e+307 -1.79769e+307 -1.79769e+307)
       0.4983             (-1.79769e+307 -1.79769e+307 -1.79769e+307)
       0.5016             (-1.79769e+307 -1.79769e+307 -1.79769e+307)
       0.5049             (-1.79769e+307 -1.79769e+307 -1.79769e+307)
       0.5082             (-1.79769e+307 -1.79769e+307 -1.79769e+307)
       0.5115             (-1.79769e+307 -1.79769e+307 -1.79769e+307)
       0.5148             (-1.79769e+307 -1.79769e+307 -1.79769e+307)
       0.5181             (-1.79769e+307 -1.79769e+307 -1.79769e+307)
       0.5214             (-1.79769e+307 -1.79769e+307 -1.79769e+307)
       0.5247             (-1.79769e+307 -1.79769e+307 -1.79769e+307)
        0.528             (-1.79769e+307 -1.79769e+307 -1.79769e+307)
       0.5313             (-1.79769e+307 -1.79769e+307 -1.79769e+307)
       0.5346             (-1.79769e+307 -1.79769e+307 -1.79769e+307)
       0.5379             (-1.79769e+307 -1.79769e+307 -1.79769e+307)
       0.5412             (-1.79769e+307 -1.79769e+307 -1.79769e+307)
       0.5445             (-1.79769e+307 -1.79769e+307 -1.79769e+307)
       0.5478             (-1.79769e+307 -1.79769e+307 -1.79769e+307)
       0.5511             (-1.79769e+307 -1.79769e+307 -1.79769e+307)
       0.5544             (-1.79769e+307 -1.79769e+307 -1.79769e+307)
       0.5577             (-1.79769e+307 -1.79769e+307 -1.79769e+307)
        0.561             (-1.79769e+307 -1.79769e+307 -1.79769e+307)
       0.5643             (-1.79769e+307 -1.79769e+307 -1.79769e+307)
       0.5676             (-1.79769e+307 -1.79769e+307 -1.79769e+307)
       0.5709             (-1.79769e+307 -1.79769e+307 -1.79769e+307)
       0.5742             (-1.79769e+307 -1.79769e+307 -1.79769e+307)
       0.5775             (-1.79769e+307 -1.79769e+307 -1.79769e+307)
       0.5808             (-1.79769e+307 -1.79769e+307 -1.79769e+307)
       0.5841             (-1.79769e+307 -1.79769e+307 -1.79769e+307)
       0.5874             (-1.79769e+307 -1.79769e+307 -1.79769e+307)
       0.5907             (-1.79769e+307 -1.79769e+307 -1.79769e+307)
        0.594             (-1.79769e+307 -1.79769e+307 -1.79769e+307)
       0.5973             (-1.79769e+307 -1.79769e+307 -1.79769e+307)
       0.6006             (-1.79769e+307 -1.79769e+307 -1.79769e+307)
       0.6039             (-1.79769e+307 -1.79769e+307 -1.79769e+307)
       0.6072             (-1.79769e+307 -1.79769e+307 -1.79769e+307)
       0.6105             (-1.79769e+307 -1.79769e+307 -1.79769e+307)
       0.6138             (-1.79769e+307 -1.79769e+307 -1.79769e+307)
       0.6171             (-1.79769e+307 -1.79769e+307 -1.79769e+307)
       0.6204             (-1.79769e+307 -1.79769e+307 -1.79769e+307)
       0.6237             (-1.79769e+307 -1.79769e+307 -1.79769e+307)
        0.627             (-1.79769e+307 -1.79769e+307 -1.79769e+307)
       0.6303             (-1.79769e+307 -1.79769e+307 -1.79769e+307)
       0.6336             (-1.79769e+307 -1.79769e+307 -1.79769e+307)
       0.6369             (-1.79769e+307 -1.79769e+307 -1.79769e+307)
       0.6402             (-1.79769e+307 -1.79769e+307 -1.79769e+307)
       0.6435             (-1.79769e+307 -1.79769e+307 -1.79769e+307)
       0.6468             (-1.79769e+307 -1.79769e+307 -1.79769e+307)
       0.6501             (-1.79769e+307 -1.79769e+307 -1.79769e+307)
       0.6534             (-1.79769e+307 -1.79769e+307 -1.79769e+307)
       0.6567             (-1.79769e+307 -1.79769e+307 -1.79769e+307)
         0.66             (-1.79769e+307 -1.79769e+307 -1.79769e+307)
       0.6633             (-1.79769e+307 -1.79769e+307 -1.79769e+307)
       0.6666             (-1.79769e+307 -1.79769e+307 -1.79769e+307)
       0.6699             (-1.79769e+307 -1.79769e+307 -1.79769e+307)
       0.6732             (-1.79769e+307 -1.79769e+307 -1.79769e+307)
       0.6765             (-1.79769e+307 -1.79769e+307 -1.79769e+307)
       0.6798             (-1.79769e+307 -1.79769e+307 -1.79769e+307)
       0.6831             (-1.79769e+307 -1.79769e+307 -1.79769e+307)
       0.6864             (-1.79769e+307 -1.79769e+307 -1.79769e+307)
       0.6897             (-1.79769e+307 -1.79769e+307 -1.79769e+307)
        0.693             (-1.79769e+307 -1.79769e+307 -1.79769e+307)
       0.6963             (-1.79769e+307 -1.79769e+307 -1.79769e+307)
       0.6996             (-1.79769e+307 -1.79769e+307 -1.79769e+307)
       0.7029             (-1.79769e+307 -1.79769e+307 -1.79769e+307)
       0.7062             (-1.79769e+307 -1.79769e+307 -1.79769e+307)
       0.7095             (-1.79769e+307 -1.79769e+307 -1.79769e+307)
       0.7128             (-1.79769e+307 -1.79769e+307 -1.79769e+307)
       0.7161             (-1.79769e+307 -1.79769e+307 -1.79769e+307)
       0.7194             (-1.79769e+307 -1.79769e+307 -1.79769e+307)
       0.7227             (-1.79769e+307 -1.79769e+307 -1.79769e+307)
        0.726             (-1.79769e+307 -1.79769e+307 -1.79769e+307)
       0.7293             (-1.79769e+307 -1.79769e+307 -1.79769e+307)
       0.7326             (-1.79769e+307 -1.79769e+307 -1.79769e+307)
       0.7359             (-1.79769e+307 -1.79769e+307 -1.79769e+307)
       0.7392             (-1.79769e+307 -1.79769e+307 -1.79769e+307)
       0.7425             (-1.79769e+307 -1.79769e+307 -1.79769e+307)
       0.7458             (-1.79769e+307 -1.79769e+307 -1.79769e+307)
       0.7491             (-1.79769e+307 -1.79769e+307 -1.79769e+307)
       0.7524             (-1.79769e+307 -1.79769e+307 -1.79769e+307)
       0.7557             (-1.79769e+307 -1.79769e+307 -1.79769e+307)
        0.759             (-1.79769e+307 -1.79769e+307 -1.79769e+307)
       0.7623             (-1.79769e+307 -1.79769e+307 -1.79769e+307)
       0.7656             (-1.79769e+307 -1.79769e+307 -1.79769e+307)
       0.7689             (-1.79769e+307 -1.79769e+307 -1.79769e+307)
       0.7722             (-1.79769e+307 -1.79769e+307 -1.79769e+307)
       0.7755             (-1.79769e+307 -1.79769e+307 -1.79769e+307)
       0.7788             (-1.79769e+307 -1.79769e+307 -1.79769e+307)
       0.7821             (-1.79769e+307 -1.79769e+307 -1.79769e+307)
       0.7854             (-1.79769e+307 -1.79769e+307 -1.79769e+307)
       0.7887             (-1.79769e+307 -1.79769e+307 -1.79769e+307)
        0.792             (-1.79769e+307 -1.79769e+307 -1.79769e+307)
       0.7953             (-1.79769e+307 -1.79769e+307 -1.79769e+307)
       0.7986             (-1.79769e+307 -1.79769e+307 -1.79769e+307)
       0.8019             (-1.79769e+307 -1.79769e+307 -1.79769e+307)
       0.8052             (-1.79769e+307 -1.79769e+307 -1.79769e+307)
       0.8085             (-1.79769e+307 -1.79769e+307 -1.79769e+307)
       0.8118             (-1.79769e+307 -1.79769e+307 -1.79769e+307)
       0.8151             (-1.79769e+307 -1.79769e+307 -1.79769e+307)
       0.8184             (-1.79769e+307 -1.79769e+307 -1.79769e+307)
       0.8217             (-1.79769e+307 -1.79769e+307 -1.79769e+307)
        0.825             (-1.79769e+307 -1.79769e+307 -1.79769e+307)
       0.8283             (-1.79769e+307 -1.79769e+307 -1.79769e+307)
       0.8316             (-1.79769e+307 -1.79769e+307 -1.79769e+307)
       0.8349             (-1.79769e+307 -1.79769e+307 -1.79769e+307)
       0.8382             (-1.79769e+307 -1.79769e+307 -1.79769e+307)
       0.8415             (-1.79769e+307 -1.79769e+307 -1.79769e+307)
       0.8448             (-1.79769e+307 -1.79769e+307 -1.79769e+307)
       0.8481             (-1.79769e+307 -1.79769e+307 -1.79769e+307)
       0.8514             (-1.79769e+307 -1.79769e+307 -1.79769e+307)
       0.8547             (-1.79769e+307 -1.79769e+307 -1.79769e+307)
        0.858             (-1.79769e+307 -1.79769e+307 -1.79769e+307)
       0.8613             (-1.79769e+307 -1.79769e+307 -1.79769e+307)
       0.8646             (-1.79769e+307 -1.79769e+307 -1.79769e+307)
       0.8679             (-1.79769e+307 -1.79769e+307 -1.79769e+307)
       0.8712             (-1.79769e+307 -1.79769e+307 -1.79769e+307)
       0.8745             (-1.79769e+307 -1.79769e+307 -1.79769e+307)
       0.8778             (-1.79769e+307 -1.79769e+307 -1.79769e+307)
       0.8811             (-1.79769e+307 -1.79769e+307 -1.79769e+307)
       0.8844             (-1.79769e+307 -1.79769e+307 -1.79769e+307)
       0.8877             (-1.79769e+307 -1.79769e+307 -1.79769e+307)
        0.891             (-1.79769e+307 -1.79769e+307 -1.79769e+307)
       0.8943             (-1.79769e+307 -1.79769e+307 -1.79769e+307)
       0.8976             (-1.79769e+307 -1.79769e+307 -1.79769e+307)
       0.9009             (-1.79769e+307 -1.79769e+307 -1.79769e+307)
       0.9042             (-1.79769e+307 -1.79769e+307 -1.79769e+307)
       0.9075             (-1.79769e+307 -1.79769e+307 -1.79769e+307)
       0.9108             (-1.79769e+307 -1.79769e+307 -1.79769e+307)
       0.9141             (-1.79769e+307 -1.79769e+307 -1.79769e+307)
       0.9174             (-1.79769e+307 -1.79769e+307 -1.79769e+307)
       0.9207             (-1.79769e+307 -1.79769e+307 -1.79769e+307)
        0.924             (-1.79769e+307 -1.79769e+307 -1.79769e+307)
       0.9273             (-1.79769e+307 -1.79769e+307 -1.79769e+307)
       0.9306             (-1.79769e+307 -1.79769e+307 -1.79769e+307)
       0.9339             (-1.79769e+307 -1.79769e+307 -1.79769e+307)
       0.9372             (-1.79769e+307 -1.79769e+307 -1.79769e+307)
       0.9405             (-1.79769e+307 -1.79769e+307 -1.79769e+307)
       0.9438             (-1.79769e+307 -1.79769e+307 -1.79769e+307)
       0.9471             (-1.79769e+307 -1.79769e+307 -1.79769e+307)
       0.9504             (-1.79769e+307 -1.79769e+307 -1.79769e+307)
       0.9537             (-1.79769e+307 -1.79769e+307 -1.79769e+307)
        0.957             (-1.79769e+307 -1.79769e+307 -1.79769e+307)
       0.9603             (-1.79769e+307 -1.79769e+307 -1.79769e+307)
       0.9636             (-1.79769e+307 -1.79769e+307 -1.79769e+307)
       0.9669             (-1.79769e+307 -1.79769e+307 -1.79769e+307)
       0.9702             (-1.79769e+307 -1.79769e+307 -1.79769e+307)
       0.9735             (-1.79769e+307 -1.79769e+307 -1.79769e+307)
       0.9768             (-1.79769e+307 -1.79769e+307 -1.79769e+307)
       0.9801             (-1.79769e+307 -1.79769e+307 -1.79769e+307)
       0.9834             (-1.79769e+307 -1.79769e+307 -1.79769e+307)
       0.9867             (-1.79769e+307 -1.79769e+307 -1.79769e+307)
         0.99             (-1.79769e+307 -1.79769e+307 -1.79769e+307)
       0.9933             (-1.79769e+307 -1.79769e+307 -1.79769e+307)
       0.9966             (-1.79769e+307 -1.79769e+307 -1.79769e+307)
       0.9999             (-1.79769e+307 -1.79769e+307 -1.79769e+307)
       1.0032             (-1.79769e+307 -1.79769e+307 -1.79769e+307)
       1.0065             (-1.79769e+307 -1.79769e+307 -1.79769e+307)
       1.0098             (-1.79769e+307 -1.79769e+307 -1.79769e+307)
       1.0131             (-1.79769e+307 -1.79769e+307 -1.79769e+307)
       1.0164             (-1.79769e+307 -1.79769e+307 -1.79769e+307)
       1.0197             (-1.79769e+307 -1.79769e+307 -1.79769e+307)
        1.023             (-1.79769e+307 -1.79769e+307 -1.79769e+307)
       1.0263             (-1.79769e+307 -1.79769e+307 -1.79769e+307)
       1.0296             (-1.79769e+307 -1.79769e+307 -1.79769e+307)
       1.0329             (-1.79769e+307 -1.79769e+307 -1.79769e+307)
       1.0362             (-1.79769e+307 -1.79769e+307 -1.79769e+307)
       1.0395             (-1.79769e+307 -1.79769e+307 -1.79769e+307)
       1.0428             (-1.79769e+307 -1.79769e+307 -1.79769e+307)
       1.0461             (-1.79769e+307 -1.79769e+307 -1.79769e+307)
       1.0494             (-1.79769e+307 -1.79769e+307 -1.79769e+307)
       1.0527             (-1.79769e+307 -1.79769e+307 -1.79769e+307)
        1.056             (-1.79769e+307 -1.79769e+307 -1.79769e+307)
       1.0593             (-1.79769e+307 -1.79769e+307 -1.79769e+307)
       1.0626             (-1.79769e+307 -1.79769e+307 -1.79769e+307)
       1.0659             (-1.79769e+307 -1.79769e+307 -1.79769e+307)
       1.0692             (-1.79769e+307 -1.79769e+307 -1.79769e+307)
       1.0725             (-1.79769e+307 -1.79769e+307 -1.79769e+307)
       1.0758             (-1.79769e+307 -1.79769e+307 -1.79769e+307)
       1.0791             (-1.79769e+307 -1.79769e+307 -1.79769e+307)
       1.0824             (-1.79769e+307 -1.79769e+307 -1.79769e+307)
       1.0857             (-1.79769e+307 -1.79769e+307 -1.79769e+307)
        1.089             (-1.79769e+307 -1.79769e+307 -1.79769e+307)
       1.0923             (-1.79769e+307 -1.79769e+307 -1.79769e+307)
       1.0956             (-1.79769e+307 -1.79769e+307 -1.79769e+307)
       1.0989             (-1.79769e+307 -1.79769e+307 -1.79769e+307)
       1.1022             (-1.79769e+307 -1.79769e+307 -1.79769e+307)
       1.1055             (-1.79769e+307 -1.79769e+307 -1.79769e+307)
       1.1088             (-1.79769e+307 -1.79769e+307 -1.79769e+307)
       1.1121             (-1.79769e+307 -1.79769e+307 -1.79769e+307)
       1.1154             (-1.79769e+307 -1.79769e+307 -1.79769e+307)
       1.1187             (-1.79769e+307 -1.79769e+307 -1.79769e+307)
        1.122             (-1.79769e+307 -1.79769e+307 -1.79769e+307)
       1.1253             (-1.79769e+307 -1.79769e+307 -1.79769e+307)
       1.1286             (-1.79769e+307 -1.79769e+307 -1.79769e+307)
       1.1319             (-1.79769e+307 -1.79769e+307 -1.79769e+307)
       1.1352             (-1.79769e+307 -1.79769e+307 -1.79769e+307)
       1.1385             (-1.79769e+307 -1.79769e+307 -1.79769e+307)
       1.1418             (-1.79769e+307 -1.79769e+307 -1.79769e+307)
       1.1451             (-1.79769e+307 -1.79769e+307 -1.79769e+307)
       1.1484             (-1.79769e+307 -1.79769e+307 -1.79769e+307)
       1.1517             (-1.79769e+307 -1.79769e+307 -1.79769e+307)
        1.155             (-1.79769e+307 -1.79769e+307 -1.79769e+307)
       1.1583             (-1.79769e+307 -1.79769e+307 -1.79769e+307)
       1.1616             (-1.79769e+307 -1.79769e+307 -1.79769e+307)
       1.1649             (-1.79769e+307 -1.79769e+307 -1.79769e+307)
       1.1682             (-1.79769e+307 -1.79769e+307 -1.79769e+307)
       1.1715             (-1.79769e+307 -1.79769e+307 -1.79769e+307)
       1.1748             (-1.79769e+307 -1.79769e+307 -1.79769e+307)
       1.1781             (-1.79769e+307 -1.79769e+307 -1.79769e+307)
       1.1814             (-1.79769e+307 -1.79769e+307 -1.79769e+307)
       1.1847             (-1.79769e+307 -1.79769e+307 -1.79769e+307)
        1.188             (-1.79769e+307 -1.79769e+307 -1.79769e+307)
       1.1913             (-1.79769e+307 -1.79769e+307 -1.79769e+307)
       1.1946             (-1.79769e+307 -1.79769e+307 -1.79769e+307)
       1.1979             (-1.79769e+307 -1.79769e+307 -1.79769e+307)
       1.2012             (-1.79769e+307 -1.79769e+307 -1.79769e+307)
       1.2045             (-1.79769e+307 -1.79769e+307 -1.79769e+307)
       1.2078             (-1.79769e+307 -1.79769e+307 -1.79769e+307)
       1.2111             (-1.79769e+307 -1.79769e+307 -1.79769e+307)
       1.2144             (-1.79769e+307 -1.79769e+307 -1.79769e+307)
       1.2177             (-1.79769e+307 -1.79769e+307 -1.79769e+307)
        1.221             (-1.79769e+307 -1.79769e+307 -1.79769e+307)
       1.2243             (-1.79769e+307 -1.79769e+307 -1.79769e+307)
       1.2276             (-1.79769e+307 -1.79769e+307 -1.79769e+307)
       1.2309             (-1.79769e+307 -1.79769e+307 -1.79769e+307)
       1.2342             (-1.79769e+307 -1.79769e+307 -1.79769e+307)
       1.2375             (-1.79769e+307 -1.79769e+307 -1.79769e+307)
       1.2408             (-1.79769e+307 -1.79769e+307 -1.79769e+307)
       1.2441             (-1.79769e+307 -1.79769e+307 -1.79769e+307)
       1.2474             (-1.79769e+307 -1.79769e+307 -1.79769e+307)
       1.2507             (-1.79769e+307 -1.79769e+307 -1.79769e+307)
        1.254             (-1.79769e+307 -1.79769e+307 -1.79769e+307)
       1.2573             (-1.79769e+307 -1.79769e+307 -1.79769e+307)
       1.2606             (-1.79769e+307 -1.79769e+307 -1.79769e+307)
       1.2639             (-1.79769e+307 -1.79769e+307 -1.79769e+307)
       1.2672             (-1.79769e+307 -1.79769e+307 -1.79769e+307)
       1.2705             (-1.79769e+307 -1.79769e+307 -1.79769e+307)
       1.2738             (-1.79769e+307 -1.79769e+307 -1.79769e+307)
       1.2771             (-1.79769e+307 -1.79769e+307 -1.79769e+307)
       1.2804             (-1.79769e+307 -1.79769e+307 -1.79769e+307)
       1.2837             (-1.79769e+307 -1.79769e+307 -1.79769e+307)
        1.287             (-1.79769e+307 -1.79769e+307 -1.79769e+307)
       1.2903             (-1.79769e+307 -1.79769e+307 -1.79769e+307)
       1.2936             (-1.79769e+307 -1.79769e+307 -1.79769e+307)
       1.2969             (-1.79769e+307 -1.79769e+307 -1.79769e+307)
       1.3002             (-1.79769e+307 -1.79769e+307 -1.79769e+307)
       1.3035             (-1.79769e+307 -1.79769e+307 -1.79769e+307)
       1.3068             (-1.79769e+307 -1.79769e+307 -1.79769e+307)
       1.3101             (-1.79769e+307 -1.79769e+307 -1.79769e+307)
       1.3134             (-1.79769e+307 -1.79769e+307 -1.79769e+307)
       1.3167             (-1.79769e+307 -1.79769e+307 -1.79769e+307)
         1.32             (-1.79769e+307 -1.79769e+307 -1.79769e+307)
       1.3233             (-1.79769e+307 -1.79769e+307 -1.79769e+307)
       1.3266             (-1.79769e+307 -1.79769e+307 -1.79769e+307)
       1.3299             (-1.79769e+307 -1.79769e+307 -1.79769e+307)
       1.3332             (-1.79769e+307 -1.79769e+307 -1.79769e+307)
       1.3365             (-1.79769e+307 -1.79769e+307 -1.79769e+307)
       1.3398             (-1.79769e+307 -1.79769e+307 -1.79769e+307)
       1.3431             (-1.79769e+307 -1.79769e+307 -1.79769e+307)
       1.3464             (-1.79769e+307 -1.79769e+307 -1.79769e+307)
       1.3497             (-1.79769e+307 -1.79769e+307 -1.79769e+307)
        1.353             (-1.79769e+307 -1.79769e+307 -1.79769e+307)
       1.3563             (-1.79769e+307 -1.79769e+307 -1.79769e+307)
       1.3596             (-1.79769e+307 -1.79769e+307 -1.79769e+307)
       1.3629             (-1.79769e+307 -1.79769e+307 -1.79769e+307)
       1.3662             (-1.79769e+307 -1.79769e+307 -1.79769e+307)
       1.3695             (-1.79769e+307 -1.79769e+307 -1.79769e+307)
       1.3728             (-1.79769e+307 -1.79769e+307 -1.79769e+307)
       1.3761             (-1.79769e+307 -1.79769e+307 -1.79769e+307)
       1.3794             (-1.79769e+307 -1.79769e+307 -1.79769e+307)
       1.3827             (-1.79769e+307 -1.79769e+307 -1.79769e+307)
        1.386             (-1.79769e+307 -1.79769e+307 -1.79769e+307)
       1.3893             (-1.79769e+307 -1.79769e+307 -1.79769e+307)
       1.3926             (-1.79769e+307 -1.79769e+307 -1.79769e+307)
       1.3959             (-1.79769e+307 -1.79769e+307 -1.79769e+307)
       1.3992             (-1.79769e+307 -1.79769e+307 -1.79769e+307)
       1.4025             (-1.79769e+307 -1.79769e+307 -1.79769e+307)
       1.4058             (-1.79769e+307 -1.79769e+307 -1.79769e+307)
       1.4091             (-1.79769e+307 -1.79769e+307 -1.79769e+307)