/*--------------------------------*- C++ -*----------------------------------*\
  =========                 |
  \\      /  F ield         | OpenFOAM: The Open Source CFD Toolbox
   \\    /   O peration     | Website:  https://openfoam.org
    \\  /    A nd           | Version:  7
     \\/     M anipulation  |
\*---------------------------------------------------------------------------*/
FoamFile
{
    version     2.0;
    format      ascii;
    class       volScalarField;
    location    "0.0625";
    object      p;
}
// * * * * * * * * * * * * * * * * * * * * * * * * * * * * * * * * * * * * * //

dimensions      [0 2 -2 0 0 0 0];

internalField   nonuniform List<scalar> 
10000
(
1.9578e-08
-6.00056e-06
-2.33837e-05
-4.94573e-05
-7.98113e-05
-0.000110009
-0.000137093
-0.000159161
-0.000174909
-0.000183456
-0.000184253
-0.000177013
-0.000161665
-0.000138276
-0.000106954
-6.77966e-05
-2.09279e-05
3.34613e-05
9.51585e-05
0.00016401
0.000239919
0.00032278
0.00041243
0.000508682
0.000611361
0.000720328
0.000835473
0.000956675
0.00108378
0.00121658
0.00135489
0.00149849
0.00164725
0.00180101
0.0019596
0.00212281
0.00229044
0.0024623
0.00263821
0.00281799
0.00300147
0.00318846
0.00337872
0.00357204
0.0037682
0.00396696
0.00416809
0.00437134
0.00457643
0.00478307
0.00499096
0.00519978
0.00540924
0.00561901
0.00582878
0.00603821
0.00624696
0.0064547
0.0066611
0.00686586
0.00706866
0.00726918
0.00746711
0.00766213
0.00785392
0.00804218
0.00822659
0.00840686
0.00858266
0.00875368
0.00891958
0.00908005
0.00923477
0.0093834
0.00952563
0.00966115
0.00978965
0.00991082
0.0100244
0.01013
0.0102274
0.0103164
0.0103966
0.0104678
0.0105298
0.0105823
0.0106252
0.0106582
0.0106812
0.0106943
0.0106975
0.0106911
0.0106758
0.0106523
0.0106222
0.0105874
0.0105509
0.0105169
0.0104913
0.0104798
1.45917e-05
8.48695e-06
-5.58752e-06
-2.56182e-05
-4.8697e-05
-7.18121e-05
-9.24819e-05
-0.00010897
-0.000120094
-0.00012499
-0.000123043
-0.00011386
-9.72334e-05
-7.30984e-05
-4.14711e-05
-2.38892e-06
4.40972e-05
9.78938e-05
0.000158862
0.000226852
0.000301741
0.000383425
0.0004718
0.000566741
0.000668091
0.000775675
0.000889335
0.00100894
0.00113438
0.00126549
0.00140206
0.0015439
0.00169082
0.00184265
0.00199926
0.00216045
0.00232603
0.00249579
0.00266956
0.00284716
0.00302842
0.00321313
0.00340108
0.00359207
0.00378585
0.00398221
0.00418091
0.00438169
0.00458428
0.00478839
0.00499372
0.00519996
0.00540683
0.00561399
0.00582113
0.00602792
0.00623403
0.00643913
0.0066429
0.00684503
0.00704521
0.00724314
0.00743849
0.00763095
0.00782021
0.00800596
0.0081879
0.00836572
0.00853911
0.00870775
0.00887132
0.0090295
0.00918198
0.00932842
0.00946853
0.009602
0.00972853
0.00984783
0.00995962
0.0100636
0.0101596
0.0102472
0.0103263
0.0103967
0.0104581
0.0105105
0.0105536
0.0105874
0.0106119
0.0106272
0.0106335
0.0106313
0.0106211
0.0106039
0.0105812
0.0105546
0.0105267
0.0105006
0.0104801
0.0104687
4.46687e-05
3.27014e-05
1.70238e-05
-1.32293e-06
-2.12047e-05
-4.06012e-05
-5.75432e-05
-7.05765e-05
-7.86507e-05
-8.09915e-05
-7.70335e-05
-6.63647e-05
-4.87115e-05
-2.39231e-05
8.05018e-06
4.7192e-05
9.34718e-05
0.000146863
0.000207307
0.000274687
0.000348852
0.000429681
0.00051709
0.000611002
0.00071129
0.000817777
0.000930281
0.00104866
0.00117278
0.00130252
0.0014377
0.00157812
0.00172358
0.00187392
0.00202898
0.00218858
0.00235255
0.00252069
0.00269281
0.00286875
0.00304831
0.0032313
0.0034175
0.00360671
0.00379869
0.00399323
0.00419008
0.00438899
0.00458966
0.00479183
0.00499519
0.00519945
0.00540432
0.00560948
0.00581462
0.00601939
0.00622349
0.00642658
0.00662837
0.00682855
0.0070268
0.00722281
0.00741626
0.00760684
0.00779424
0.00797815
0.00815828
0.0083343
0.00850591
0.00867278
0.00883461
0.00899107
0.00914185
0.00928664
0.00942514
0.00955706
0.00968212
0.00980002
0.00991051
0.0100133
0.0101082
0.010195
0.0102734
0.0103433
0.0104045
0.0104569
0.0105005
0.0105351
0.0105608
0.0105779
0.0105866
0.0105873
0.0105806
0.0105676
0.0105493
0.0105274
0.0105038
0.0104807
0.0104603
0.0104439
8.29956e-05
6.25171e-05
4.26712e-05
2.31656e-05
3.79181e-06
-1.41325e-05
-2.92172e-05
-4.03133e-05
-4.65287e-05
-4.71985e-05
-4.18225e-05
-3.00372e-05
-1.15801e-05
1.37437e-05
4.60416e-05
8.53155e-05
0.000131526
0.000184661
0.00024471
0.000311605
0.00038522
0.000465427
0.000552125
0.000645229
0.000744629
0.000850183
0.000961732
0.00107912
0.0012022
0.00133083
0.00146483
0.00160405
0.00174831
0.00189745
0.00205128
0.00220962
0.00237231
0.00253915
0.00270999
0.00288463
0.00306289
0.00324456
0.00342942
0.00361725
0.00380786
0.00400099
0.00419641
0.00439386
0.00459304
0.00479368
0.0049955
0.00519821
0.00540151
0.0056051
0.00580866
0.00601188
0.00621442
0.006416
0.00661629
0.006815
0.00701182
0.00720642
0.00739849
0.0075877
0.00777375
0.00795633
0.00813513
0.00830983
0.00848012
0.00864568
0.0088062
0.00896136
0.00911086
0.00925439
0.00939167
0.00952242
0.00964636
0.00976323
0.00987279
0.00997477
0.010069
0.0101552
0.0102332
0.0103029
0.0103641
0.0104167
0.0104607
0.0104961
0.010523
0.0105415
0.0105519
0.0105546
0.0105503
0.0105398
0.010524
0.0105041
0.0104818
0.0104588
0.0104352
0.010411
0.000122969
9.39004e-05
6.91814e-05
4.74154e-05
2.73039e-05
9.67072e-06
-4.529e-06
-1.44822e-05
-1.95032e-05
-1.90339e-05
-1.26317e-05
1.60889e-08
1.91341e-05
4.49046e-05
7.74574e-05
0.00011684
0.000163037
0.000216023
0.000275772
0.000342238
0.000415349
0.000495015
0.000581127
0.000673561
0.000772193
0.000876903
0.000987574
0.00110407
0.00122622
0.00135387
0.00148684
0.001625
0.00176819
0.00191626
0.00206902
0.00222629
0.00238788
0.00255364
0.0027234
0.00289696
0.00307414
0.0032547
0.00343845
0.00362516
0.00381462
0.00400659
0.00420081
0.00439702
0.00459494
0.0047943
0.00499481
0.0051962
0.00539818
0.00560044
0.00580269
0.0060046
0.00620587
0.00640621
0.0066053
0.00680285
0.00699854
0.00719204
0.00738303
0.00757119
0.0077562
0.00793775
0.00811552
0.00828919
0.00845845
0.00862298
0.00878245
0.00893658
0.00908504
0.00922757
0.00936388
0.00949371
0.0096168
0.00973288
0.00984173
0.00994311
0.0100368
0.0101227
0.0102005
0.0102701
0.0103314
0.0103844
0.0104289
0.010465
0.0104928
0.0105125
0.0105243
0.0105286
0.0105259
0.0105169
0.0105024
0.0104833
0.0104609
0.0104364
0.0104085
0.0103758
0.000161045
0.000123884
9.42841e-05
6.98328e-05
4.82185e-05
3.00345e-05
1.59559e-05
6.49639e-06
2.13853e-06
3.30908e-06
1.03709e-05
2.36124e-05
4.32351e-05
6.93688e-05
0.000102114
0.000141554
0.000187727
0.000240612
0.000300153
0.00036629
0.000438978
0.000518162
0.000603751
0.000695613
0.000793605
0.000897609
0.00100752
0.00112321
0.00124454
0.00137133
0.00150343
0.00164069
0.00178298
0.00193015
0.002082
0.00223837
0.00239908
0.00256397
0.00273287
0.00290558
0.00308189
0.00326159
0.00344447
0.00363029
0.00381885
0.00400989
0.00420315
0.00439836
0.00459526
0.00479357
0.00499303
0.00519335
0.00539426
0.00559546
0.00579666
0.00599756
0.00619785
0.00639724
0.00659544
0.00679213
0.00698699
0.00717971
0.00736994
0.00755736
0.00774164
0.00792246
0.00809951
0.00827246
0.00844098
0.00860476
0.00876349
0.00891687
0.0090646
0.00920642
0.00934205
0.00947124
0.00959374
0.00970931
0.00981772
0.00991874
0.0100122
0.0100979
0.0101756
0.0102453
0.0103069
0.0103602
0.0104052
0.0104419
0.0104705
0.0104911
0.0105038
0.0105091
0.0105074
0.0104992
0.0104851
0.0104659
0.0104424
0.0104156
0.010383
0.010342
0.000194915
0.000150437
0.000116181
8.88916e-05
6.54e-05
4.6139e-05
3.16037e-05
2.21053e-05
1.79629e-05
1.94688e-05
2.68885e-05
4.04732e-05
6.04093e-05
8.67954e-05
0.000119695
0.000159182
0.000205313
0.000258085
0.00031745
0.000383348
0.000455725
0.000534523
0.000619655
0.000711008
0.000808459
0.000911891
0.00102118
0.00113621
0.00125683
0.00138289
0.00151427
0.00165082
0.00179239
0.00193884
0.00208998
0.00224565
0.00240569
0.00256994
0.0027382
0.00291029
0.00308597
0.00326505
0.00344729
0.00363247
0.00382037
0.00401072
0.00420327
0.00439774
0.00459387
0.0047914
0.00499006
0.0051896
0.00538972
0.00559016
0.00579061
0.00599078
0.0061904
0.00638916
0.00658678
0.00678293
0.00697729
0.00716953
0.00735931
0.0075463
0.00773016
0.00791058
0.00808721
0.00825974
0.00842784
0.00859119
0.00874949
0.00890244
0.00904977
0.00919119
0.00932647
0.00945534
0.00957756
0.00969291
0.00980115
0.00990207
0.00999547
0.0100812
0.0101591
0.0102289
0.0102907
0.0103444
0.0103898
0.0104271
0.0104562
0.0104773
0.0104907
0.0104965
0.0104952
0.0104871
0.0104728
0.0104528
0.0104277
0.0103981
0.0103608
0.0103123
0.000223067
0.00017215
0.000133549
0.000103433
7.7925e-05
5.73119e-05
4.19689e-05
3.20557e-05
2.77725e-05
2.9321e-05
3.68768e-05
5.06104e-05
7.06757e-05
9.71781e-05
0.000130177
0.000169711
0.000215806
0.000268463
0.00032766
0.000393361
0.000465506
0.00054401
0.000628775
0.000719703
0.000816701
0.000919663
0.00102846
0.00114296
0.00126302
0.00138851
0.00151932
0.00165532
0.00179636
0.00194228
0.00209291
0.0022481
0.00240768
0.0025715
0.00273936
0.00291105
0.00308634
0.00326502
0.00344686
0.00363165
0.00381912
0.00400903
0.0042011
0.00439508
0.00459071
0.00478772
0.00498588
0.00518491
0.00538454
0.0055845
0.00578451
0.00598428
0.00618354
0.006382
0.00657934
0.00677526
0.00696943
0.0071615
0.00735113
0.00753798
0.00772173
0.00790203
0.00807855
0.00825096
0.00841895
0.0085822
0.00874039
0.00889325
0.0090405
0.00918188
0.00931713
0.00944601
0.00956827
0.00968368
0.00979202
0.00989306
0.00998663
0.0100725
0.0101506
0.0102208
0.0102828
0.0103368
0.0103825
0.0104201
0.0104496
0.010471
0.0104846
0.0104906
0.0104893
0.0104809
0.0104659
0.0104446
0.0104175
0.0103851
0.0103435
0.0102885
0.000244369
0.000187915
0.000145402
0.000112584
8.50278e-05
6.29315e-05
4.65889e-05
3.60264e-05
3.13496e-05
3.27066e-05
4.0212e-05
5.39504e-05
7.402e-05
0.000100528
0.000133546
0.00017309
0.000219151
0.000271717
0.00033078
0.000396316
0.000468264
0.000546531
0.000631016
0.000721626
0.000818276
0.000920869
0.00102928
0.00114337
0.00126302
0.00138812
0.00151854
0.00165417
0.00179485
0.00194043
0.00209076
0.00224568
0.00240503
0.00256864
0.00273631
0.00290782
0.00308294
0.00326145
0.00344313
0.00362774
0.00381503
0.00400473
0.00419658
0.00439033
0.00458572
0.00478251
0.00498044
0.00517927
0.00537872
0.00557852
0.00577841
0.00597811
0.00617733
0.00637579
0.00657318
0.00676917
0.00696344
0.00715562
0.00734539
0.0075324
0.00771631
0.00789678
0.00807349
0.0082461
0.00841429
0.00857774
0.00873617
0.00888927
0.00903679
0.00917846
0.00931401
0.00944321
0.00956581
0.00968156
0.00979023
0.00989162
0.00998551
0.0100717
0.0101501
0.0102206
0.0102829
0.0103371
0.0103831
0.0104209
0.0104505
0.010472
0.0104856
0.0104914
0.0104897
0.0104808
0.0104648
0.010442
0.0104128
0.0103778
0.0103322
0.0102718
0.000257952
0.000196863
0.000150935
0.000115623
8.60783e-05
6.24541e-05
4.50053e-05
3.36666e-05
2.84481e-05
2.94408e-05
3.67244e-05
5.03421e-05
7.03431e-05
9.67994e-05
0.000129768
0.000169261
0.000215266
0.000267766
0.000326742
0.000392154
0.000463938
0.000542009
0.000626284
0.000716675
0.000813091
0.000915425
0.00102356
0.00113738
0.00125677
0.00138164
0.00151185
0.00164729
0.0017878
0.00193324
0.00208347
0.00223834
0.00239768
0.0025613
0.00272899
0.00290053
0.00307569
0.00325426
0.00343601
0.00362067
0.00380801
0.00399775
0.00418963
0.00438342
0.00457886
0.00477572
0.00497375
0.00517269
0.00537228
0.00557226
0.00577236
0.00597231
0.00617183
0.00637061
0.00656835
0.00676472
0.00695937
0.00715196
0.00734214
0.00752958
0.00771394
0.00789487
0.00807205
0.00824515
0.00841385
0.00857783
0.00873681
0.00889049
0.00903861
0.00918088
0.00931706
0.00944687
0.00957007
0.0096864
0.00979563
0.00989753
0.00999189
0.0100785
0.0101573
0.0102281
0.0102907
0.0103451
0.0103912
0.0104291
0.0104587
0.0104801
0.0104935
0.010499
0.0104967
0.010487
0.0104698
0.0104454
0.0104143
0.0103767
0.0103278
0.010263
0.000263286
0.000198371
0.000149504
0.000111952
8.0558e-05
5.54303e-05
3.68225e-05
2.46407e-05
1.88083e-05
1.9334e-05
2.62689e-05
3.96585e-05
5.95274e-05
8.58934e-05
0.000118774
0.00015818
0.000204111
0.000256552
0.000315466
0.000380792
0.000452457
0.00053039
0.000614524
0.000704779
0.000801057
0.000903245
0.00101123
0.00112492
0.00124422
0.00136902
0.0014992
0.00163462
0.00177516
0.00192067
0.00207102
0.00222604
0.00238557
0.0025494
0.00271732
0.00288911
0.00306454
0.00324339
0.00342541
0.00361036
0.00379798
0.00398801
0.0041802
0.00437431
0.0045701
0.00476734
0.00496578
0.00516517
0.00536524
0.00556574
0.0057664
0.00596695
0.00616709
0.00636652
0.00656492
0.00676195
0.00695728
0.00715055
0.00734143
0.00752958
0.00771465
0.00789632
0.00807427
0.00824815
0.00841766
0.00858249
0.00874233
0.0088969
0.00904591
0.00918909
0.00932616
0.00945685
0.00958088
0.00969799
0.00980794
0.0099105
0.0100055
0.0100926
0.0101718
0.0102429
0.0103058
0.0103604
0.0104066
0.0104445
0.0104741
0.0104953
0.0105084
0.0105134
0.0105105
0.0104998
0.0104814
0.0104556
0.0104226
0.0103828
0.010331
0.0102625
0.000260113
0.000192041
0.000140656
0.000101105
6.80261e-05
4.14887e-05
2.17349e-05
8.66546e-06
2.16723e-06
2.18153e-06
8.71693e-06
2.18121e-05
4.14803e-05
6.77057e-05
0.000100476
0.000139792
0.000185655
0.00023804
0.000296897
0.000362158
0.000433754
0.000511622
0.000595695
0.000685894
0.000782121
0.000884271
0.000992245
0.00110596
0.00122532
0.00135021
0.00148053
0.00161613
0.00175689
0.00190268
0.00205334
0.00220873
0.00236865
0.00253289
0.00270125
0.00287349
0.0030494
0.00322874
0.00341127
0.00359674
0.00378488
0.00397546
0.00416823
0.00436296
0.00455941
0.00475736
0.00495655
0.00515673
0.00535763
0.005559
0.00576057
0.00596205
0.00616315
0.00636354
0.0065629
0.0067609
0.00695719
0.00715143
0.00734328
0.00753241
0.00771849
0.00790119
0.00808018
0.00825514
0.00842576
0.00859172
0.00875271
0.00890845
0.00905863
0.00920297
0.00934116
0.00947293
0.00959798
0.00971605
0.00982688
0.00993022
0.0100259
0.0101136
0.0101933
0.0102648
0.010328
0.0103828
0.0104292
0.0104671
0.0104966
0.0105176
0.0105303
0.0105348
0.0105312
0.0105196
0.0105001
0.0104728
0.0104381
0.0103964
0.0103422
0.0102706
0.000248309
0.000177627
0.000124088
8.27528e-05
4.81432e-05
2.0323e-05
-5.11555e-07
-1.44817e-05
-2.16871e-05
-2.22024e-05
-1.60698e-05
-3.29423e-06
1.61223e-05
4.21619e-05
7.48049e-05
0.00011404
0.000159846
0.000212183
0.000270991
0.000336212
0.000407788
0.00048566
0.000569752
0.000659978
0.000756247
0.000858472
0.000966568
0.00108045
0.00120003
0.0013252
0.00145582
0.00159178
0.00173296
0.00187922
0.00203041
0.00218635
0.00234686
0.00251171
0.0026807
0.0028536
0.0030302
0.00321025
0.00339351
0.00357972
0.00376865
0.00396005
0.00415369
0.00434934
0.00454678
0.00474576
0.00494604
0.00514736
0.00534944
0.00555204
0.00575485
0.0059576
0.00615998
0.00636165
0.00656228
0.00676154
0.00695909
0.00715458
0.00734769
0.0075381
0.00772547
0.00790948
0.00808981
0.00826614
0.00843815
0.00860552
0.00876793
0.00892508
0.00907667
0.00922237
0.00936188
0.00949491
0.00962114
0.0097403
0.00985212
0.00995637
0.0100528
0.0101413
0.0102216
0.0102936
0.0103572
0.0104123
0.0104588
0.0104968
0.0105262
0.0105471
0.0105595
0.0105635
0.0105592
0.0105468
0.0105263
0.0104977
0.0104614
0.010418
0.0103617
0.0102876
0.000227822
0.00015497
9.95994e-05
5.66854e-05
2.06793e-05
-8.32083e-06
-3.01548e-05
-4.4983e-05
-5.28958e-05
-5.3954e-05
-4.82315e-05
-3.57839e-05
-1.66345e-05
9.20527e-06
4.1716e-05
8.08681e-05
0.00012662
0.000178916
0.000237701
0.000302923
0.000374532
0.000452466
0.000536646
0.000626985
0.000723402
0.000825825
0.000934181
0.00104839
0.00116834
0.00129393
0.00142504
0.00156155
0.00170334
0.00185026
0.00200217
0.00215886
0.00232013
0.00248579
0.00265561
0.00282938
0.00300687
0.00318785
0.00337206
0.00355927
0.00374924
0.00394174
0.00413655
0.00433344
0.00453219
0.00473254
0.00493425
0.00513704
0.00534065
0.00554481
0.00574921
0.00595355
0.00615752
0.00636078
0.00656298
0.00676381
0.00696291
0.00715996
0.00735464
0.00754662
0.00773558
0.00792121
0.00810317
0.00828115
0.00845482
0.00862386
0.00878793
0.00894672
0.0090999
0.00924715
0.00938815
0.00952257
0.00965012
0.0097705
0.00988345
0.00998872
0.0100861
0.0101754
0.0102564
0.010329
0.0103931
0.0104487
0.0104955
0.0105337
0.0105631
0.0105839
0.0105961
0.0105998
0.0105949
0.0105817
0.0105602
0.0105305
0.0104929
0.0104478
0.0103898
0.0103136
0.000198683
0.000123983
6.70501e-05
2.2762e-05
-1.45208e-05
-4.4635e-05
-6.73982e-05
-8.30064e-05
-9.15826e-05
-9.31862e-05
-8.78928e-05
-7.57786e-05
-5.68861e-05
-3.12346e-05
1.14727e-06
4.02122e-05
8.59055e-05
0.000138175
0.000196971
0.000262245
0.000333942
0.000411996
0.000496331
0.000586872
0.000683551
0.000786302
0.000895055
0.00100972
0.0011302
0.00125638
0.00138815
0.00152539
0.00166798
0.00181576
0.00196856
0.00212617
0.00228841
0.00245507
0.00262592
0.00280077
0.00297937
0.00316148
0.00334689
0.00353534
0.00372663
0.00392052
0.00411681
0.00431526
0.00451564
0.00471769
0.00492115
0.00512575
0.00533122
0.00553725
0.00574355
0.0059498
0.00615567
0.00636081
0.0065649
0.00676759
0.00696856
0.00716748
0.00736404
0.00755792
0.00774879
0.00793634
0.00812024
0.00830015
0.00847575
0.00864669
0.00881265
0.00897328
0.00912824
0.0092772
0.00941983
0.0095558
0.0096848
0.00980654
0.00992075
0.0100272
0.0101257
0.0102159
0.0102978
0.0103713
0.0104361
0.0104922
0.0105395
0.010578
0.0106076
0.0106285
0.0106405
0.0106439
0.0106386
0.0106247
0.0106023
0.0105714
0.0105326
0.0104862
0.0104265
0.0103484
0.000160992
8.46444e-05
2.63288e-05
-1.91608e-05
-5.75881e-05
-8.87459e-05
-0.000112386
-0.000128714
-0.000137901
-0.000140032
-0.000135171
-0.000123386
-0.000104734
-7.92575e-05
-4.70021e-05
-8.02355e-06
3.76223e-05
8.98892e-05
0.000148735
0.000214108
0.000285947
0.000364184
0.000448753
0.000539594
0.00063665
0.000739858
0.000849142
0.000964412
0.00108557
0.0012125
0.00134511
0.00148326
0.00162683
0.00177564
0.0019295
0.00208823
0.00225162
0.00241947
0.00259156
0.00276769
0.00294761
0.00313111
0.00331795
0.00350792
0.00370081
0.0038964
0.00409447
0.00429479
0.00449711
0.00470118
0.00490671
0.00511344
0.00532107
0.00552929
0.00573779
0.00594623
0.0061543
0.00636163
0.00656789
0.00677277
0.00697593
0.00717705
0.00737583
0.00757193
0.00776505
0.00795484
0.00814097
0.0083231
0.00850089
0.00867398
0.00884204
0.0090047
0.00916163
0.00931247
0.00945688
0.00959455
0.00972516
0.00984843
0.00996409
0.0100719
0.0101716
0.0102631
0.0103461
0.0104205
0.0104862
0.0105431
0.010591
0.01063
0.0106599
0.0106809
0.010693
0.0106961
0.0106903
0.0106758
0.0106526
0.0106208
0.0105807
0.010533
0.0104718
0.0103919
0.000114843
3.69694e-05
-2.26371e-05
-6.92224e-05
-0.000108662
-0.000140762
-0.000165236
-0.000182259
-0.000192025
-0.00019465
-0.000190197
-0.000178724
-0.0001603
-0.000134994
-0.000102863
-6.39597e-05
-1.83345e-05
3.39683e-05
9.29041e-05
0.00015842
0.000230454
0.000308945
0.00039384
0.000485089
0.000582642
0.000686432
0.00079638
0.000912395
0.00103438
0.00116224
0.00129585
0.00143509
0.0015798
0.00172981
0.00188492
0.00204494
0.00220967
0.00237891
0.00255245
0.00273007
0.00291155
0.00309667
0.00328522
0.00347699
0.00367177
0.00386935
0.00406951
0.00427201
0.00447658
0.00468297
0.00489088
0.00510003
0.00531011
0.0055208
0.00573178
0.00594272
0.00615327
0.00636309
0.00657185
0.00677923
0.00698492
0.00718859
0.00738992
0.0075886
0.00778429
0.00797664
0.00816532
0.00834995
0.0085302
0.00870569
0.00887607
0.00904098
0.00920006
0.00935297
0.00949937
0.00963893
0.00977136
0.00989636
0.0100137
0.0101231
0.0102243
0.0103171
0.0104015
0.0104771
0.0105438
0.0106016
0.0106503
0.0106899
0.0107203
0.0107415
0.0107536
0.0107565
0.0107504
0.0107353
0.0107113
0.0106784
0.0106373
0.0105882
0.0105256
0.010444
6.02611e-05
-1.90416e-05
-7.98791e-05
-0.000127514
-0.000167883
-0.000200832
-0.000226088
-0.000243796
-0.000254125
-0.000257205
-0.000253123
-0.000241944
-0.000223742
-0.0001986
-0.000166579
-0.000127728
-8.20875e-05
-2.97067e-05
2.93638e-05
9.50711e-05
0.000167362
0.000246191
0.000331513
0.000423285
0.000521454
0.000625951
0.000736696
0.000853603
0.000976579
0.00110552
0.00124031
0.00138079
0.00152681
0.00167818
0.00183471
0.00199621
0.00216247
0.00233331
0.0025085
0.00268784
0.00287111
0.00305811
0.00324864
0.00344249
0.00363946
0.00383934
0.0040419
0.00424687
0.004454
0.004663
0.00487357
0.00508542
0.00529823
0.00551167
0.00572542
0.00593912
0.00615245
0.00636507
0.00657665
0.00678688
0.00699544
0.00720201
0.00740627
0.00760787
0.00780647
0.00800172
0.00819325
0.00838069
0.00856367
0.00874182
0.00891477
0.00908216
0.00924363
0.00939884
0.00954745
0.00968915
0.00982363
0.00995061
0.0100698
0.010181
0.010284
0.0103785
0.0104643
0.0105413
0.0106093
0.0106681
0.0107177
0.0107579
0.0107888
0.0108103
0.0108224
0.0108252
0.0108187
0.010803
0.0107782
0.0107444
0.0107021
0.0106519
0.0105878
0.0105046
-2.79608e-06
-8.34382e-05
-0.000145438
-0.000194098
-0.000235387
-0.000269141
-0.000295129
-0.00031349
-0.000324362
-0.00032787
-0.000324129
-0.000313228
-0.000295243
-0.000270247
-0.000238306
-0.000199467
-0.000153772
-0.000101271
-4.20166e-05
2.39446e-05
9.65729e-05
0.000175834
0.000261692
0.000354102
0.000453008
0.000558339
0.000670019
0.000787967
0.000912088
0.00104227
0.00117839
0.00132027
0.00146776
0.00162066
0.00177878
0.00194193
0.00210992
0.00228255
0.00245961
0.0026409
0.00282622
0.00301536
0.00320815
0.00340437
0.00360384
0.00380631
0.00401154
0.00421928
0.00442924
0.00464113
0.00485464
0.00506946
0.00528528
0.00550174
0.00571853
0.00593531
0.00615173
0.00636747
0.00658222
0.00679565
0.00700745
0.00721728
0.00742482
0.0076297
0.00783156
0.00803004
0.00822474
0.00841528
0.00860129
0.00878238
0.00895818
0.00912833
0.00929247
0.00945026
0.00960137
0.00974548
0.0098823
0.0100115
0.0101329
0.0102462
0.0103511
0.0104474
0.0105349
0.0106134
0.0106828
0.0107427
0.0107933
0.0108343
0.0108657
0.0108875
0.0108996
0.0109022
0.0108953
0.0108791
0.0108535
0.0108187
0.0107753
0.0107238
0.0106584
0.0105735
-7.43731e-05
-0.000156316
-0.000219421
-0.000269082
-0.000311304
-0.000345868
-0.000372548
-0.000391516
-0.000402905
-0.000406828
-0.000403415
-0.000392774
-0.000374982
-0.000350103
-0.0003182
-0.000279326
-0.000233531
-0.000180862
-0.000121363
-5.5069e-05
1.79916e-05
9.77921e-05
0.000184298
0.000277461
0.000377225
0.000483522
0.00059628
0.000715418
0.000840835
0.00097241
0.00111
0.00125343
0.00140253
0.00155712
0.001717
0.00188199
0.0020519
0.00222653
0.00240568
0.00258916
0.00277677
0.00296833
0.00316366
0.00336254
0.00356477
0.00377012
0.00397831
0.00418909
0.00440215
0.00461719
0.00483391
0.00505197
0.00527106
0.00549084
0.00571097
0.00593112
0.00615097
0.00637018
0.00658846
0.00680546
0.00702088
0.00723436
0.00744554
0.00765406
0.00785953
0.00806156
0.00825976
0.00845373
0.00864308
0.00882742
0.00900639
0.00917962
0.00934675
0.00950745
0.00966138
0.00980823
0.00994768
0.0100795
0.0102033
0.0103188
0.0104259
0.0105242
0.0106136
0.0106937
0.0107645
0.0108257
0.0108772
0.010919
0.0109509
0.0109729
0.0109851
0.0109876
0.0109803
0.0109634
0.010937
0.0109013
0.0108568
0.0108042
0.0107373
0.0106509
-0.000154487
-0.000237783
-0.000301994
-0.000352627
-0.000395777
-0.000431161
-0.000458519
-0.000478058
-0.000489938
-0.00049427
-0.000491175
-0.000480767
-0.000463128
-0.000438323
-0.000406412
-0.000367456
-0.000321508
-0.000268608
-0.000208786
-0.000142065
-6.84671e-05
1.19832e-05
9.9249e-05
0.000193283
0.000294032
0.000401431
0.000515411
0.000635883
0.000762739
0.000895844
0.00103504
0.00118016
0.00133103
0.00148747
0.00164928
0.00181629
0.00198831
0.00216515
0.00234661
0.00253251
0.00272267
0.00291691
0.00311504
0.00331686
0.00352213
0.00373061
0.00394202
0.00415609
0.0043725
0.00459096
0.00481114
0.00503272
0.00525536
0.00547875
0.00570254
0.00592641
0.00615003
0.0063731
0.00659528
0.00681626
0.00703567
0.00725318
0.00746838
0.0076809
0.00789032
0.00809626
0.00829829
0.00849602
0.00868905
0.00887699
0.00905948
0.00923615
0.00940663
0.0095706
0.0097277
0.00987762
0.01002
0.0101546
0.0102811
0.0103992
0.0105086
0.0106091
0.0107004
0.0107823
0.0108545
0.010917
0.0109695
0.011012
0.0110444
0.0110668
0.011079
0.0110813
0.0110737
0.0110562
0.0110291
0.0109925
0.0109469
0.0108931
0.0108249
0.0107367
-0.000243166
-0.00032793
-0.00039331
-0.000444907
-0.000488955
-0.000525154
-0.000553199
-0.0005733
-0.000585654
-0.000590381
-0.000587584
-0.000577372
-0.000559838
-0.000535057
-0.000503093
-0.000464005
-0.000417839
-0.000364627
-0.000304387
-0.000237136
-0.000162891
-8.16804e-05
6.46043e-06
0.000101488
0.000203351
0.000311991
0.000427331
0.000549275
0.000677701
0.000812466
0.000953407
0.00110036
0.00125314
0.00141158
0.0015755
0.00174471
0.00191903
0.00209828
0.00228228
0.00247084
0.0026638
0.00286098
0.00306217
0.00326717
0.00347573
0.00368758
0.00390246
0.00412006
0.00434008
0.0045622
0.0047861
0.00501147
0.00523796
0.00546527
0.00569306
0.00592101
0.0061488
0.00637611
0.0066026
0.00682794
0.00705176
0.00727366
0.00749326
0.00771013
0.00792387
0.00813405
0.00834027
0.00854212
0.0087392
0.00893112
0.00911751
0.009298
0.00947222
0.00963983
0.00980047
0.0099538
0.0100995
0.0102372
0.0103666
0.0104874
0.0105993
0.0107021
0.0107954
0.0108791
0.0109528
0.0110166
0.0110702
0.0111135
0.0111465
0.0111692
0.0111815
0.0111837
0.0111757
0.0111577
0.0111299
0.0110924
0.0110458
0.0109908
0.0109211
0.0108312
-0.0003405
-0.000426836
-0.00049347
-0.000546062
-0.000590993
-0.000627997
-0.000656744
-0.000677422
-0.000690237
-0.000695326
-0.000692793
-0.00068274
-0.000665268
-0.000640465
-0.000608397
-0.000569113
-0.000522652
-0.000469034
-0.000408274
-0.000340385
-0.000265387
-0.000183305
-9.41713e-05
1.97488e-06
0.000105086
0.000215101
0.000331933
0.000455475
0.000585595
0.000722143
0.000864958
0.00101387
0.00116872
0.00132933
0.00149552
0.00166711
0.00184393
0.0020258
0.00221255
0.00240402
0.00260002
0.00280037
0.00300487
0.00321329
0.00342537
0.00364083
0.0038594
0.00408077
0.00430463
0.00453067
0.00475857
0.00498801
0.00521867
0.00545023
0.00568238
0.00591479
0.00614714
0.00637909
0.00661031
0.00684041
0.00706901
0.0072957
0.00752005
0.00774165
0.00796006
0.00817486
0.00838564
0.00859198
0.00879349
0.00898979
0.00918048
0.0093652
0.00954356
0.00971519
0.00987972
0.0100368
0.010186
0.0103271
0.0104597
0.0105834
0.010698
0.0108031
0.0108986
0.0109841
0.0110595
0.0111247
0.0111794
0.0112236
0.0112572
0.0112803
0.0112929
0.011295
0.0112867
0.0112683
0.0112398
0.0112014
0.0111537
0.0110975
0.0110264
0.0109346
-0.000446629
-0.000534602
-0.000602554
-0.000656208
-0.000702051
-0.00073986
-0.000769316
-0.000790581
-0.000803846
-0.000809264
-0.000806957
-0.000797031
-0.000779587
-0.000754716
-0.000722483
-0.000682931
-0.000636085
-0.000581963
-0.000520581
-0.000451951
-0.000376092
-0.000293025
-0.000202778
-0.000105384
-8.95037e-07
0.00011062
0.000229066
0.000354323
0.000486255
0.000624711
0.000769531
0.000920556
0.00107762
0.00124055
0.00140918
0.00158334
0.00176285
0.00194756
0.00213729
0.00233189
0.00253117
0.00273494
0.00294297
0.00315504
0.00337086
0.00359016
0.00381264
0.00403802
0.00426597
0.00449619
0.00472837
0.00496219
0.00519734
0.00543351
0.00567039
0.00590765
0.00614496
0.00638196
0.00661828
0.00685353
0.00708729
0.00731913
0.00754862
0.0077753
0.00799875
0.00821855
0.00843427
0.00864551
0.00885188
0.00905296
0.00924837
0.00943771
0.0096206
0.00979662
0.00996538
0.0101265
0.0102796
0.0104243
0.0105602
0.010687
0.0108044
0.0109122
0.0110099
0.0110975
0.0111747
0.0112414
0.0112973
0.0113426
0.011377
0.0114006
0.0114134
0.0114156
0.0114071
0.0113882
0.0113591
0.0113197
0.011271
0.0112135
0.0111408
0.0110469
-0.000561715
-0.000651371
-0.000720682
-0.000775467
-0.000822289
-0.000860925
-0.000891084
-0.00091293
-0.000926639
-0.000932368
-0.00093026
-0.000920433
-0.000902984
-0.000877996
-0.000845531
-0.000805626
-0.000758305
-0.000703586
-0.000641483
-0.000572011
-0.000495182
-0.000411014
-0.000319528
-0.000220761
-0.000114771
-1.63728e-06
0.000118535
0.000245622
0.000379483
0.000519971
0.000666932
0.000820208
0.00097964
0.00114506
0.00131631
0.00149322
0.00167564
0.0018634
0.00205634
0.0022543
0.00245709
0.0026645
0.0028763
0.00309223
0.00331202
0.00353538
0.00376202
0.00399164
0.00422395
0.00445863
0.00469539
0.00493393
0.00517392
0.00541508
0.00565707
0.00589956
0.00614221
0.00638463
0.00662643
0.00686719
0.00710647
0.00734381
0.00757878
0.00781092
0.00803979
0.00826498
0.00848605
0.00870262
0.00891425
0.00912055
0.00932109
0.00951546
0.00970324
0.00988401
0.0100573
0.0102228
0.01038
0.0105286
0.0106681
0.0107983
0.0109188
0.0110293
0.0111296
0.0112194
0.0112986
0.0113669
0.0114244
0.0114708
0.0115061
0.0115304
0.0115436
0.0115459
0.0115373
0.0115179
0.0114881
0.0114478
0.0113979
0.011339
0.0112644
0.0111683
-0.000685904
-0.000777322
-0.000848037
-0.000904
-0.000951865
-0.000991366
-0.00102223
-0.00104465
-0.0010588
-0.00106484
-0.00106292
-0.00105316
-0.00103567
-0.00101051
-0.00097774
-0.000937401
-0.000889519
-0.000834112
-0.000771195
-0.000700775
-0.000622863
-0.000537472
-0.000444625
-0.000344365
-0.000236759
-0.000121896
1.12614e-07
0.000129141
0.000265053
0.000407703
0.000556943
0.00071262
0.000874578
0.00104266
0.00121671
0.00139657
0.0015821
0.00177313
0.00196951
0.00217107
0.00237759
0.00258887
0.00280465
0.00302468
0.00324866
0.00347633
0.00370738
0.00394153
0.00417848
0.00441794
0.00465961
0.0049032
0.00514841
0.00539492
0.0056424
0.0058905
0.00613885
0.00638705
0.00663467
0.00688127
0.0071264
0.00736959
0.00761039
0.00784835
0.00808304
0.00831402
0.00854088
0.00876318
0.00898052
0.00919245
0.00939854
0.00959833
0.00979137
0.00997722
0.0101554
0.0103256
0.0104872
0.0106399
0.0107833
0.0109171
0.011041
0.0111546
0.0112576
0.01135
0.0114314
0.0115017
0.0115608
0.0116086
0.011645
0.0116701
0.0116837
0.0116861
0.0116774
0.0116576
0.0116269
0.0115856
0.0115344
0.0114739
0.0113975
0.0112989
-0.000819332
-0.000912641
-0.00098483
-0.001042
-0.00109095
-0.00113136
-0.00116295
-0.00118595
-0.00120056
-0.00120692
-0.00120518
-0.00119546
-0.00117787
-0.00115248
-0.00111934
-0.00107849
-0.00102997
-0.000973782
-0.00090995
-0.000838473
-0.00075936
-0.000672624
-0.000578297
-0.000476431
-0.0003671
-0.0002504
-0.000126444
4.64403e-06
0.000142731
0.000287678
0.000439339
0.000597568
0.000762215
0.000933132
0.00111017
0.00129319
0.00148204
0.00167657
0.00187662
0.00208199
0.00229248
0.00250785
0.00272784