/*--------------------------------*- C++ -*----------------------------------*\
  =========                 |
  \\      /  F ield         | OpenFOAM: The Open Source CFD Toolbox
   \\    /   O peration     | Website:  https://openfoam.org
    \\  /    A nd           | Version:  7
     \\/     M anipulation  |
\*---------------------------------------------------------------------------*/
FoamFile
{
    version     2.0;
    format      ascii;
    class       surfaceScalarField;
    location    "0.0625";
    object      phi;
}
// * * * * * * * * * * * * * * * * * * * * * * * * * * * * * * * * * * * * * //

dimensions      [0 3 -1 0 0 0 0];

internalField   nonuniform List<scalar> 
19800
(
6.98137e-11
-6.99289e-11
1.08554e-10
-3.87365e-11
5.62082e-11
5.23427e-11
-1.01114e-10
1.5732e-10
-3.583e-10
2.57186e-10
-7.03225e-10
3.44929e-10
-1.12152e-09
4.18291e-10
-1.59882e-09
4.77297e-10
-2.12199e-09
5.23177e-10
-2.67964e-09
5.57644e-10
-3.26212e-09
5.82479e-10
-3.86147e-09
5.9936e-10
-4.47119e-09
6.09735e-10
-5.08611e-09
6.14921e-10
-5.70216e-09
6.16055e-10
-6.31615e-09
6.13993e-10
-6.92557e-09
6.09413e-10
-7.5285e-09
6.02939e-10
-8.12356e-09
5.95062e-10
-8.70961e-09
5.86044e-10
-9.28563e-09
5.76017e-10
-9.85076e-09
5.65129e-10
-1.04043e-08
5.53566e-10
-1.09458e-08
5.41466e-10
-1.14746e-08
5.2886e-10
-1.19903e-08
5.157e-10
-1.24923e-08
5.01942e-10
-1.29799e-08
4.87599e-10
-1.34526e-08
4.72722e-10
-1.391e-08
4.57355e-10
-1.43515e-08
4.41509e-10
-1.47766e-08
4.25161e-10
-1.51849e-08
4.08287e-10
-1.55758e-08
3.90886e-10
-1.59488e-08
3.72981e-10
-1.63034e-08
3.54606e-10
-1.66392e-08
3.3578e-10
-1.69557e-08
3.16504e-10
-1.72524e-08
2.96774e-10
-1.7529e-08
2.76596e-10
-1.7785e-08
2.55986e-10
-1.802e-08
2.34962e-10
-1.82335e-08
2.13549e-10
-1.84253e-08
1.91772e-10
-1.8595e-08
1.69656e-10
-1.87422e-08
1.47214e-10
-1.88666e-08
1.24459e-10
-1.8968e-08
1.01408e-10
-1.90461e-08
7.80832e-11
-1.91006e-08
5.45116e-11
-1.91314e-08
3.07164e-11
-1.91381e-08
6.71613e-12
-1.91206e-08
-1.74715e-11
-1.90788e-08
-4.18244e-11
-1.90125e-08
-6.63188e-11
-1.89215e-08
-9.09271e-11
-1.88059e-08
-1.15617e-10
-1.86655e-08
-1.40357e-10
-1.85004e-08
-1.65114e-10
-1.83106e-08
-1.89856e-10
-1.8096e-08
-2.14556e-10
-1.78568e-08
-2.39179e-10
-1.75932e-08
-2.63682e-10
-1.73051e-08
-2.88023e-10
-1.6993e-08
-3.1216e-10
-1.66569e-08
-3.36057e-10
-1.62972e-08
-3.59675e-10
-1.59143e-08
-3.82976e-10
-1.55083e-08
-4.05919e-10
-1.50799e-08
-4.28463e-10
-1.46293e-08
-4.50571e-10
-1.41571e-08
-4.72203e-10
-1.36638e-08
-4.93322e-10
-1.31499e-08
-5.13889e-10
-1.2616e-08
-5.33855e-10
-1.20629e-08
-5.5317e-10
-1.14911e-08
-5.71775e-10
-1.09015e-08
-5.89598e-10
-1.0295e-08
-6.0654e-10
-9.67249e-09
-6.22471e-10
-9.03526e-09
-6.37222e-10
-8.38469e-09
-6.50575e-10
-7.72245e-09
-6.62237e-10
-7.05063e-09
-6.71824e-10
-6.37179e-09
-6.78843e-10
-5.68913e-09
-6.8267e-10
-5.0066e-09
-6.82529e-10
-4.32914e-09
-6.77467e-10
-3.6628e-09
-6.6634e-10
-3.01498e-09
-6.47813e-10
-2.39462e-09
-6.20363e-10
-1.8123e-09
-5.82318e-10
-1.28039e-09
-5.31905e-10
-8.13013e-10
-4.67383e-10
-4.25674e-10
-3.87342e-10
-1.34317e-10
-2.91357e-10
4.71382e-11
-1.81457e-10
1.12178e-10
-6.50468e-11
7.36508e-11
3.85206e-11
7.3643e-11
4.53661e-11
-1.15291e-10
-3.49162e-11
4.15556e-11
-3.27237e-10
3.44676e-10
-8.56192e-10
6.8628e-10
-1.61782e-09
1.01882e-09
-2.59107e-09
1.31818e-09
-3.74677e-09
1.57399e-09
-5.05372e-09
1.78425e-09
-6.48172e-09
1.95118e-09
-8.00321e-09
2.07914e-09
-9.59405e-09
2.17332e-09
-1.12336e-08
2.23895e-09
-1.29047e-08
2.28084e-09
-1.45933e-08
2.30344e-09
-1.62878e-08
2.31061e-09
-1.79793e-08
2.30551e-09
-1.96606e-08
2.29068e-09
-2.13259e-08
2.26825e-09
-2.29707e-08
2.23984e-09
-2.45913e-08
2.20664e-09
-2.61848e-08
2.16949e-09
-2.77487e-08
2.12902e-09
-2.92809e-08
2.08575e-09
-3.07794e-08
2.04004e-09
-3.22426e-08
1.99207e-09
-3.36688e-08
1.9419e-09
-3.50565e-08
1.88957e-09
-3.6404e-08
1.83515e-09
-3.771e-08
1.77869e-09
-3.89729e-08
1.72027e-09
-4.01913e-08
1.65993e-09
-4.13638e-08
1.59767e-09
-4.2489e-08
1.53348e-09
-4.35655e-08
1.4674e-09
-4.4592e-08
1.39946e-09
-4.55672e-08
1.32975e-09
-4.64897e-08
1.2583e-09
-4.73583e-08
1.18515e-09
-4.81719e-08
1.11033e-09
-4.89292e-08
1.03388e-09
-4.96291e-08
9.5587e-10
-5.02705e-08
8.76358e-10
-5.08523e-08
7.95424e-10
-5.13737e-08
7.13149e-10
-5.18337e-08
6.29609e-10
-5.22313e-08
5.44874e-10
-5.25659e-08
4.59013e-10
-5.28366e-08
3.72102e-10
-5.30427e-08
2.84222e-10
-5.31837e-08
1.95455e-10
-5.32588e-08
1.0588e-10
-5.32677e-08
1.55774e-11
-5.32098e-08
-7.53721e-11
-5.30847e-08
-1.6688e-10
-5.28922e-08
-2.58851e-10
-5.26319e-08
-3.51185e-10
-5.23038e-08
-4.43772e-10
-5.19076e-08
-5.365e-10
-5.14435e-08
-6.2925e-10
-5.09114e-08
-7.21903e-10
-5.03116e-08
-8.14331e-10
-4.96444e-08
-9.06405e-10
-4.89101e-08
-9.97981e-10
-4.81092e-08
-1.08891e-09
-4.72423e-08
-1.17906e-09
-4.63101e-08
-1.26827e-09
-4.53134e-08
-1.3564e-09
-4.42531e-08
-1.44331e-09
-4.31301e-08
-1.52884e-09
-4.19457e-08
-1.61285e-09
-4.07011e-08
-1.6952e-09
-3.93976e-08
-1.77572e-09
-3.80366e-08
-1.85429e-09
-3.66198e-08
-1.93072e-09
-3.51488e-08
-2.00485e-09
-3.36255e-08
-2.07646e-09
-3.2052e-08
-2.14531e-09
-3.04305e-08
-2.21109e-09
-2.87636e-08
-2.2734e-09
-2.70544e-08
-2.33174e-09
-2.53062e-08
-2.38544e-09
-2.35231e-08
-2.43363e-09
-2.17102e-08
-2.47517e-09
-1.98734e-08
-2.50863e-09
-1.80201e-08
-2.53215e-09
-1.61593e-08
-2.54344e-09
-1.43021e-08
-2.53969e-09
-1.24621e-08
-2.51753e-09
-1.06554e-08
-2.47299e-09
-8.90168e-09
-2.40157e-09
-7.22377e-09
-2.29828e-09
-5.6482e-09
-2.15788e-09
-4.20489e-09
-1.97523e-09
-2.92638e-09
-1.74589e-09
-1.84634e-09
-1.46739e-09
-9.96353e-10
-1.14135e-09
-4.00201e-10
-7.77612e-10
-6.43523e-11
-4.00881e-10
3.83462e-11
-6.41613e-11
1.11986e-10
-4.79511e-11
-6.73426e-11
-3.3689e-10
3.30505e-10
-9.38634e-10
9.46421e-10
-1.87392e-09
1.62157e-09
-3.13478e-09
2.27968e-09
-4.69426e-09
2.87766e-09
-6.51508e-09
3.39482e-09
-8.55599e-09
3.82515e-09
-1.07759e-08
4.17112e-09
-1.31364e-08
4.43967e-09
-1.5603e-08
4.6399e-09
-1.81456e-08
4.78151e-09
-2.07386e-08
4.87387e-09
-2.33608e-08
4.92563e-09
-2.59946e-08
4.94442e-09
-2.86258e-08
4.93671e-09
-3.12429e-08
4.90786e-09
-3.38369e-08
4.8622e-09
-3.64002e-08
4.80314e-09
-3.89268e-08
4.73324e-09
-4.14117e-08
4.65443e-09
-4.38509e-08
4.56814e-09
-4.62406e-08
4.47548e-09
-4.85777e-08
4.37718e-09
-5.08594e-08
4.27371e-09
-5.30828e-08
4.16536e-09
-5.52455e-08
4.05231e-09
-5.73451e-08
3.93474e-09
-5.93792e-08
3.81277e-09
-6.13454e-08
3.68652e-09
-6.32416e-08
3.55609e-09
-6.50655e-08
3.42152e-09
-6.68148e-08
3.28287e-09
-6.84877e-08
3.1402e-09
-7.00818e-08
2.99362e-09
-7.15953e-08
2.84324e-09
-7.30262e-08
2.68915e-09
-7.43725e-08
2.53145e-09
-7.56324e-08
2.37024e-09
-7.68041e-08
2.20562e-09
-7.7886e-08
2.03772e-09
-7.88763e-08
1.86668e-09
-7.97735e-08
1.69265e-09
-8.05761e-08
1.51579e-09
-8.12828e-08
1.33626e-09
-8.18921e-08
1.15421e-09
-8.24029e-08
9.69807e-10
-8.2814e-08
7.83206e-10
-8.31244e-08
5.94585e-10
-8.33331e-08
4.04116e-10
-8.34392e-08
2.11977e-10
-8.34419e-08
1.83499e-11
-8.33407e-08
-1.76576e-10
-8.3135e-08
-3.72606e-10
-8.28243e-08
-5.69532e-10
-8.24084e-08
-7.67134e-10
-8.18869e-08
-9.65183e-10
-8.126e-08
-1.16344e-09
-8.05276e-08
-1.36164e-09
-7.969e-08
-1.55954e-09
-7.87474e-08
-1.75687e-09
-7.77005e-08
-1.95335e-09
-7.65498e-08
-2.14869e-09
-7.52961e-08
-2.34259e-09
-7.39404e-08
-2.53476e-09
-7.24838e-08
-2.72488e-09
-7.09275e-08
-2.91265e-09
-6.9273e-08
-3.09777e-09
-6.7522e-08
-3.27992e-09
-6.5676e-08
-3.45878e-09
-6.37372e-08
-3.63404e-09
-6.17076e-08
-3.80537e-09
-5.95894e-08
-3.97245e-09
-5.73852e-08
-4.13491e-09
-5.50977e-08
-4.29233e-09
-5.27299e-08
-4.44426e-09
-5.02851e-08
-4.59012e-09
-4.7767e-08
-4.72923e-09
-4.51797e-08
-4.86071e-09
-4.2528e-08
-4.98341e-09
-3.98176e-08
-5.09587e-09
-3.7055e-08
-5.1962e-09
-3.42482e-08
-5.28197e-09
-3.14068e-08
-5.35009e-09
-2.85423e-08
-5.39667e-09
-2.56688e-08
-5.41695e-09
-2.28033e-08
-5.40513e-09
-1.99665e-08
-5.35437e-09
-1.71827e-08
-5.25677e-09
-1.44808e-08
-5.10346e-09
-1.18942e-08
-4.88492e-09
-9.4606e-09
-4.59145e-09
-7.22182e-09
-4.21401e-09
-5.22209e-09
-3.74563e-09
-3.50575e-09
-3.18373e-09
-2.11308e-09
-2.53403e-09
-1.07384e-09
-1.81686e-09
-3.9809e-10
-1.07664e-09
-6.40807e-11
-3.98162e-10
4.79069e-11
-1.55503e-10
8.81587e-11
-6.84549e-10
8.59556e-10
-1.62187e-09
1.88374e-09
-2.97241e-09
2.97211e-09
-4.7185e-09
4.02577e-09
-6.82626e-09
4.98541e-09
-9.25201e-09
5.82058e-09
-1.19478e-08
6.52098e-09
-1.48656e-08
7.08886e-09
-1.79595e-08
7.53357e-09
-2.11878e-08
7.86826e-09
-2.45138e-08
8.10746e-09
-2.79056e-08
8.26567e-09
-3.13364e-08
8.35643e-09
-3.47838e-08
8.39184e-09
-3.82294e-08
8.38232e-09
-4.16582e-08
8.33663e-09
-4.50579e-08
8.26188e-09
-4.84185e-08
8.16374e-09
-5.17318e-08
8.04659e-09
-5.49911e-08
7.91376e-09
-5.81907e-08
7.76772e-09
-6.13255e-08
7.61029e-09
-6.43911e-08
7.4428e-09
-6.73836e-08
7.26616e-09
-7.02992e-08
7.081e-09
-7.31347e-08
6.88774e-09
-7.58866e-08
6.68668e-09
-7.85519e-08
6.47806e-09
-8.11274e-08
6.26207e-09
-8.36102e-08
6.0389e-09
-8.59974e-08
5.8087e-09
-8.82862e-08
5.57161e-09
-9.04737e-08
5.32775e-09
-9.25574e-08
5.07728e-09
-9.45345e-08
4.82038e-09
-9.64026e-08
4.55722e-09
-9.81592e-08
4.288e-09
-9.98018e-08
4.0129e-09
-1.01328e-07
3.73211e-09
-1.02736e-07
3.44584e-09
-1.04024e-07
3.15434e-09
-1.05189e-07
2.85784e-09
-1.0623e-07
2.55661e-09
-1.07145e-07
2.25092e-09
-1.07932e-07
1.94103e-09
-1.08589e-07
1.62721e-09
-1.09116e-07
1.30975e-09
-1.0951e-07
9.88941e-10
-1.09771e-07
6.65083e-10
-1.09897e-07
3.38484e-10
-1.09888e-07
9.46489e-12
-1.09743e-07
-3.21644e-10
-1.09462e-07
-6.545e-10
-1.09042e-07
-9.88746e-10
-1.08485e-07
-1.32401e-09
-1.07791e-07
-1.65989e-09
-1.06958e-07
-1.99599e-09
-1.05988e-07
-2.33188e-09
-1.0488e-07
-2.66712e-09
-1.03636e-07
-3.00128e-09
-1.02255e-07
-3.33388e-09
-1.0074e-07
-3.66444e-09
-9.90898e-08
-3.99248e-09
-9.7307e-08
-4.31749e-09
-9.5393e-08
-4.63896e-09
-9.33492e-08
-4.9564e-09
-9.11777e-08
-5.26927e-09
-8.88806e-08
-5.57706e-09
-8.64601e-08
-5.87923e-09
-8.39189e-08
-6.17523e-09
-8.12598e-08
-6.46452e-09
-7.84857e-08
-6.7465e-09
-7.56001e-08
-7.02054e-09
-7.26065e-08
-7.28591e-09
-6.9509e-08
-7.54179e-09
-6.63119e-08
-7.78718e-09
-6.30203e-08
-8.02087e-09
-5.96397e-08
-8.2413e-09
-5.61766e-08
-8.44652e-09
-5.26385e-08
-8.634e-09
-4.90341e-08
-8.80052e-09
-4.53742e-08
-8.94196e-09
-4.16711e-08
-9.05314e-09
-3.79401e-08
-9.12764e-09
-3.41995e-08
-9.15759e-09
-3.0471e-08
-9.13359e-09
-2.67808e-08
-9.04461e-09
-2.31595e-08
-8.87808e-09
-1.96428e-08
-8.62016e-09
-1.62715e-08
-8.2562e-09
-1.30913e-08
-7.77166e-09
-1.01518e-08
-7.15356e-09
-7.50478e-09
-6.39262e-09
-5.20182e-09
-5.4867e-09
-3.28986e-09
-4.44598e-09
-1.80584e-09
-3.30087e-09
-7.69977e-10
-2.11251e-09
-1.78736e-10
-9.894e-10
-1.30827e-10
-2.58258e-10
3.46417e-10
-1.02444e-09
1.62574e-09
-2.29281e-09
3.15212e-09
-4.04563e-09
4.72492e-09
-6.251e-09
6.23114e-09
-8.86605e-09
7.60047e-09
-1.18406e-08
8.79518e-09
-1.51214e-08
9.80171e-09
-1.86549e-08
1.06224e-08
-2.23904e-08
1.12691e-08
-2.62812e-08
1.17591e-08
-3.02858e-08
1.2112e-08
-3.43677e-08
1.23476e-08
-3.84961e-08
1.24848e-08
-4.26448e-08
1.25405e-08
-4.67921e-08
1.25297e-08
-5.09201e-08
1.24647e-08
-5.50141e-08
1.23559e-08
-5.90619e-08
1.22115e-08
-6.30534e-08
1.20381e-08
-6.69803e-08
1.18406e-08
-7.08353e-08
1.16227e-08
-7.46123e-08
1.13873e-08
-7.83058e-08
1.11363e-08
-8.19108e-08
1.08712e-08
-8.54228e-08
1.0593e-08
-8.88374e-08
1.03024e-08
-9.21508e-08
1e-08
-9.5359e-08
9.68626e-09
-9.84583e-08
9.36138e-09
-1.01445e-07
9.02569e-09
-1.04316e-07
8.67946e-09
-1.07067e-07
8.32292e-09
-1.09696e-07
7.95633e-09
-1.12198e-07
7.57991e-09
-1.14572e-07
7.19394e-09
-1.16813e-07
6.79868e-09
-1.1892e-07
6.39443e-09
-1.20888e-07
5.98149e-09
-1.22716e-07
5.56016e-09
-1.24401e-07
5.13077e-09
-1.25941e-07
4.69367e-09
-1.27332e-07
4.24924e-09
-1.28573e-07
3.79784e-09
-1.29662e-07
3.33987e-09
-1.30597e-07
2.87573e-09
-1.31376e-07
2.40585e-09
-1.31997e-07
1.93064e-09
-1.32458e-07
1.45054e-09
-1.32759e-07
9.66018e-10
-1.32898e-07
4.77535e-10
-1.32874e-07
-1.44236e-11
-1.32687e-07
-5.09357e-10
-1.32334e-07
-1.00674e-09
-1.31817e-07
-1.50604e-09
-1.31134e-07
-2.00669e-09
-1.30286e-07
-2.50811e-09
-1.29272e-07
-3.00968e-09
-1.28094e-07
-3.51079e-09
-1.2675e-07
-4.01079e-09
-1.25242e-07
-4.509e-09
-1.23571e-07
-5.00476e-09
-1.21738e-07
-5.49735e-09
-1.19745e-07
-5.98606e-09
-1.17592e-07
-6.47014e-09
-1.15282e-07
-6.94886e-09
-1.12817e-07
-7.42146e-09
-1.10199e-07
-7.88718e-09
-1.07431e-07
-8.34522e-09
-1.04515e-07
-8.79481e-09
-1.01456e-07
-9.23512e-09
-9.82548e-08
-9.6653e-09
-9.49168e-08
-1.00845e-08
-9.14458e-08
-1.04916e-08
-8.7846e-08
-1.08857e-08
-8.41224e-08
-1.12654e-08
-8.02805e-08
-1.16291e-08
-7.63262e-08
-1.19751e-08
-7.22665e-08
-1.2301e-08
-6.81093e-08
-1.26037e-08
-6.38637e-08
-1.28796e-08
-5.95404e-08
-1.31238e-08
-5.51522e-08
-1.33302e-08
-5.07141e-08
-1.34912e-08
-4.62442e-08
-1.35975e-08
-4.1764e-08
-1.36378e-08
-3.72991e-08
-1.35985e-08
-3.28797e-08
-1.3464e-08
-2.85411e-08
-1.32167e-08
-2.43239e-08
-1.28373e-08
-2.02742e-08
-1.23059e-08
-1.64429e-08
-1.16029e-08
-1.28852e-08
-1.07113e-08
-9.65829e-09
-9.61949e-09
-6.81956e-09
-8.32543e-09
-4.42268e-09
-6.84285e-09
-2.51391e-09
-5.20964e-09
-1.12812e-09
-3.4983e-09
-2.86469e-10
-1.83105e-09
-4.17299e-10
-3.48684e-10
6.95101e-10
-1.33286e-09
2.60991e-09
-2.90957e-09
4.72883e-09
-5.03646e-09
6.85182e-09
-7.66538e-09
8.86006e-09
-1.07428e-08
1.06779e-08
-1.42114e-08
1.22638e-08
-1.80125e-08
1.36028e-08
-2.20884e-08
1.46983e-08
-2.63845e-08
1.55652e-08
-3.08505e-08
1.62252e-08
-3.54415e-08
1.6703e-08
-4.01179e-08
1.7024e-08
-4.48458e-08
1.72127e-08
-4.95963e-08
1.7291e-08
-5.43451e-08
1.72785e-08
-5.90722e-08
1.71918e-08
-6.37608e-08
1.70445e-08
-6.83969e-08
1.68477e-08
-7.29691e-08
1.66102e-08
-7.74673e-08
1.63389e-08
-8.18834e-08
1.60388e-08
-8.621e-08
1.57139e-08
-9.04407e-08
1.5367e-08
-9.45697e-08
1.50001e-08
-9.85916e-08
1.46149e-08
-1.02501e-07
1.42123e-08
-1.06295e-07
1.37931e-08
-1.09966e-07
1.33581e-08
-1.13513e-07
1.29077e-08
-1.16929e-07
1.24423e-08
-1.20212e-07
1.19624e-08
-1.23358e-07
1.14682e-08
-1.26362e-07
1.09602e-08
-1.2922e-07
1.04388e-08
-1.31931e-07
9.9042e-09
-1.34489e-07
9.35692e-09
-1.36892e-07
8.79735e-09
-1.39136e-07
8.2259e-09
-1.41219e-07
7.64302e-09
-1.43137e-07
7.04918e-09
-1.44889e-07
6.44485e-09
-1.4647e-07
5.83055e-09
-1.47879e-07
5.20681e-09
-1.49113e-07
4.57415e-09
-1.50171e-07
3.93314e-09
-1.51049e-07
3.28434e-09
-1.51747e-07
2.62836e-09
-1.52262e-07
1.96581e-09
-1.52593e-07
1.29732e-09
-1.52739e-07
6.23537e-10
-1.52699e-07
-5.4858e-11
-1.52471e-07
-7.37171e-10
-1.52055e-07
-1.42268e-09
-1.51451e-07
-2.11064e-09
-1.50657e-07
-2.80027e-09
-1.49674e-07
-3.49075e-09
-1.48503e-07
-4.18128e-09
-1.47143e-07
-4.87098e-09
-1.45594e-07
-5.55898e-09
-1.43859e-07
-6.24436e-09
-1.41938e-07
-6.92619e-09
-1.39832e-07
-7.60352e-09
-1.37542e-07
-8.27536e-09
-1.35072e-07
-8.94071e-09
-1.32422e-07
-9.59856e-09
-1.29596e-07
-1.02479e-08
-1.26595e-07
-1.08876e-08
-1.23424e-07
-1.15167e-08
-1.20084e-07
-1.2134e-08
-1.16581e-07
-1.27385e-08
-1.12917e-07
-1.33289e-08
-1.09098e-07
-1.3904e-08
-1.05127e-07
-1.44624e-08
-1.0101e-07
-1.50025e-08
-9.67531e-08
-1.55226e-08
-9.23618e-08
-1.60205e-08
-8.78434e-08
-1.64935e-08
-8.32059e-08
-1.69385e-08
-7.84584e-08
-1.73513e-08
-7.36113e-08
-1.77266e-08
-6.86772e-08
-1.8058e-08
-6.36703e-08
-1.83371e-08
-5.86078e-08
-1.85537e-08
-5.351e-08
-1.86953e-08
-4.8401e-08
-1.87468e-08
-4.33092e-08
-1.86903e-08
-3.82677e-08
-1.85054e-08
-3.33153e-08
-1.81691e-08
-2.8496e-08
-1.76566e-08
-2.38596e-08
-1.69424e-08
-1.94609e-08
-1.60017e-08
-1.5359e-08
-1.48132e-08
-1.1616e-08
-1.33625e-08
-8.29449e-09
-1.16469e-08
-5.45568e-09
-9.68166e-09
-3.15673e-09
-7.50859e-09
-1.4493e-09
-5.20574e-09
-3.80356e-10
-2.89999e-09
-7.97658e-10
-4.25352e-10
1.12045e-09
-1.60156e-09
3.78611e-09
-3.45435e-09
6.58162e-09
-5.91828e-09
9.31575e-09
-8.92877e-09
1.18706e-08
-1.24209e-08
1.417e-08
-1.63296e-08
1.61725e-08
-2.05907e-08
1.78639e-08
-2.51425e-08
1.92501e-08
-2.99271e-08
2.03498e-08
-3.48914e-08
2.11895e-08
-3.9988e-08
2.17996e-08
-4.51751e-08
2.22111e-08
-5.04165e-08
2.24541e-08
-5.56814e-08
2.25559e-08
-6.09437e-08
2.25408e-08
-6.61815e-08
2.24296e-08
-7.13767e-08
2.22396e-08
-7.65138e-08
2.19848e-08
-8.15801e-08
2.16765e-08
-8.65647e-08
2.13234e-08
-9.14581e-08
2.09322e-08
-9.62521e-08
2.0508e-08
-1.0094e-07
2.00545e-08
-1.05514e-07
1.95745e-08
-1.09969e-07
1.90701e-08
-1.143e-07
1.85428e-08
-1.185e-07
1.79936e-08
-1.22566e-07
1.74236e-08
-1.26491e-07
1.68333e-08
-1.30272e-07
1.62235e-08
-1.33905e-07
1.55946e-08
-1.37384e-07
1.49472e-08
-1.40705e-07
1.42818e-08
-1.43865e-07
1.35988e-08
-1.4686e-07
1.28989e-08
-1.49685e-07
1.21825e-08
-1.52338e-07
1.14502e-08
-1.54815e-07
1.07026e-08
-1.57112e-07
9.94017e-09
-1.59227e-07
9.16364e-09
-1.61155e-07
8.3736e-09
-1.62896e-07
7.57074e-09
-1.64444e-07
6.75573e-09
-1.658e-07
5.92928e-09
-1.66959e-07
5.09211e-09
-1.67919e-07
4.24498e-09
-1.68679e-07
3.38867e-09
-1.69238e-07
2.52397e-09
-1.69592e-07
1.65173e-09
-1.69741e-07
7.72797e-10
-1.69684e-07
-1.11951e-10
-1.6942e-07
-1.0016e-09
-1.68947e-07
-1.8952e-09
-1.68266e-07
-2.79179e-09
-1.67376e-07
-3.69034e-09
-1.66277e-07
-4.5898e-09
-1.64969e-07
-5.48911e-09
-1.63453e-07
-6.38715e-09
-1.61729e-07
-7.28278e-09
-1.59799e-07
-8.17482e-09
-1.57663e-07
-9.06206e-09
-1.55323e-07
-9.94327e-09
-1.52781e-07
-1.08172e-08
-1.50039e-07
-1.16825e-08
-1.471e-07
-1.25379e-08
-1.43966e-07
-1.33821e-08
-1.4064e-07
-1.42137e-08
-1.37125e-07
-1.50313e-08
-1.33426e-07
-1.58335e-08
-1.29545e-07
-1.66188e-08
-1.25489e-07
-1.73856e-08
-1.2126e-07
-1.81323e-08
-1.16866e-07
-1.88571e-08
-1.1231e-07
-1.95579e-08
-1.076e-07
-2.02323e-08
-1.02744e-07
-2.08774e-08
-9.77471e-08
-2.14899e-08
-9.26202e-08
-2.20654e-08
-8.73728e-08
-2.25986e-08
-8.20167e-08
-2.30828e-08
-7.65653e-08
-2.35093e-08
-7.10346e-08
-2.38678e-08
-6.54433e-08
-2.41451e-08
-5.98133e-08
-2.43253e-08
-5.41707e-08
-2.43894e-08
-4.85458e-08
-2.43152e-08
-4.29742e-08
-2.40771e-08
-3.74967e-08
-2.36466e-08
-3.216e-08
-2.29933e-08
-2.70167e-08
-2.20857e-08
-2.21244e-08
-2.08939e-08
-1.75459e-08
-1.93917e-08
-1.33473e-08
-1.75612e-08
-9.59698e-09
-1.53972e-08
-6.36408e-09
-1.29146e-08
-3.71735e-09
-1.01553e-08
-1.72536e-09
-7.19773e-09
-4.58889e-10
-4.16647e-09
-1.25655e-09
-4.88993e-10
1.60944e-09
-1.82958e-09
5.1267e-09
-3.92287e-09
8.67491e-09
-6.68322e-09
1.20761e-08
-1.00308e-08
1.52181e-08
-1.38893e-08
1.80286e-08
-1.81859e-08
2.04691e-08
-2.28507e-08
2.25287e-08
-2.7818e-08
2.42174e-08
-3.30269e-08
2.55586e-08
-3.84219e-08
2.65845e-08
-4.39535e-08
2.73313e-08
-4.95784e-08
2.7836e-08
-5.52586e-08
2.81344e-08
-6.09621e-08
2.82594e-08
-6.66613e-08
2.82401e-08
-7.23333e-08
2.81015e-08
-7.79584e-08
2.78648e-08
-8.35205e-08
2.75469e-08
-8.90057e-08
2.71617e-08
-9.44022e-08
2.67199e-08
-9.96999e-08
2.62299e-08
-1.0489e-07
2.56979e-08
-1.09964e-07
2.51287e-08
-1.14915e-07
2.45258e-08
-1.19737e-07
2.38919e-08
-1.24423e-07
2.3229e-08
-1.28968e-07
2.25384e-08
-1.33366e-07
2.18215e-08
-1.37612e-07
2.10792e-08
-1.41701e-07
2.03123e-08
-1.45628e-07
1.95215e-08
-1.49388e-07
1.87075e-08
-1.52977e-07
1.7871e-08
-1.56391e-07
1.70126e-08
-1.59625e-07
1.6133e-08
-1.62675e-07
1.5233e-08
-1.65538e-07
1.43131e-08
-1.6821e-07
1.33742e-08
-1.70687e-07
1.24171e-08
-1.72966e-07
1.14423e-08
-1.75043e-07
1.04509e-08
-1.76916e-07
9.44362e-09
-1.78581e-07
8.42132e-09
-1.80037e-07
7.38489e-09
-1.8128e-07
6.33525e-09
-1.82309e-07
5.27335e-09
-1.8312e-07
4.20017e-09
-1.83713e-07
3.11672e-09
-1.84085e-07
2.02403e-09
-1.84235e-07
9.23183e-10
-1.84163e-07
-1.84716e-10
-1.83866e-07
-1.29852e-09
-1.83344e-07
-2.41706e-09
-1.82597e-07
-3.53909e-09
-1.81624e-07
-4.66336e-09
-1.80425e-07
-5.78856e-09
-1.79001e-07
-6.91335e-09
-1.77351e-07
-8.03635e-09
-1.75478e-07
-9.15613e-09
-1.73382e-07
-1.02712e-08
-1.71064e-07
-1.13802e-08
-1.68526e-07
-1.24814e-08
-1.65769e-07
-1.35733e-08
-1.62798e-07
-1.46543e-08
-1.59613e-07
-1.57228e-08
-1.56218e-07
-1.67772e-08
-1.52616e-07
-1.78156e-08
-1.48811e-07
-1.88364e-08
-1.44806e-07
-1.98378e-08
-1.40607e-07
-2.08179e-08
-1.36218e-07
-2.17748e-08
-1.31644e-07
-2.27064e-08
-1.26891e-07
-2.36103e-08
-1.21965e-07
-2.44839e-08
-1.16873e-07
-2.53242e-08
-1.11623e-07
-2.61277e-08
-1.06222e-07
-2.689e-08
-1.00682e-07
-2.76057e-08
-9.50126e-08
-2.82682e-08
-8.92264e-08
-2.8869e-08
-8.33381e-08
-2.93977e-08
-7.73646e-08
-2.98413e-08
-7.13258e-08
-3.01838e-08
-6.5245e-08
-3.0406e-08
-5.91496e-08
-3.04848e-08
-5.30715e-08
-3.03933e-08
-4.70477e-08
-3.01009e-08
-4.1121e-08
-2.95734e-08
-3.53398e-08
-2.87744e-08
-2.97589e-08
-2.76667e-08
-2.44385e-08
-2.62142e-08
-1.94446e-08
-2.43857e-08
-1.48473e-08
-2.21584e-08
-1.07211e-08
-1.95235e-08
-7.14303e-09
-1.64926e-08
-4.1934e-09
-1.31049e-08
-1.95633e-09
-9.43481e-09
-5.22989e-10
-5.59981e-09
-1.77954e-09
-5.40959e-10
2.15039e-09
-2.01958e-09
6.60532e-09
-4.31821e-09
1.09735e-08
-7.33453e-09
1.50924e-08
-1.09752e-08
1.88588e-08
-1.51535e-08
2.22069e-08
-1.97887e-08
2.51043e-08
-2.48054e-08
2.75454e-08
-3.01338e-08
2.95458e-08
-3.57101e-08
3.11349e-08
-4.14766e-08
3.23511e-08
-4.73823e-08
3.32369e-08
-5.33821e-08
3.38358e-08
-5.94371e-08
3.41895e-08
-6.55142e-08
3.43364e-08
-7.15848e-08
3.43107e-08
-7.76251e-08
3.41418e-08
-8.36148e-08
3.38544e-08
-8.95367e-08
3.34688e-08
-9.53763e-08
3.30013e-08
-1.01121e-07
3.24648e-08
-1.0676e-07
3.18691e-08
-1.12285e-07
3.12221e-08
-1.17685e-07
3.05293e-08
-1.22955e-07
2.97952e-08
-1.28086e-07
2.9023e-08
-1.33072e-07
2.82152e-08
-1.37907e-07
2.73736e-08
-1.42585e-07
2.64999e-08
-1.47101e-07
2.55951e-08
-1.51449e-07
2.46603e-08
-1.55624e-07
2.36965e-08
-1.59622e-07
2.27046e-08
-1.63436e-07
2.16854e-08
-1.67063e-07
2.06397e-08
-1.70498e-07
1.95684e-08
-1.73738e-07
1.84724e-08
-1.76777e-07
1.73525e-08
-1.79613e-07
1.62096e-08
-1.8224e-07
1.50447e-08
-1.84657e-07
1.38587e-08
-1.86858e-07
1.26527e-08
-1.88842e-07
1.14276e-08
-1.90605e-07
1.01844e-08
-1.92145e-07
8.92439e-09
-1.93458e-07
7.64853e-09
-1.94543e-07
6.35803e-09
-1.95397e-07
5.05405e-09
-1.96018e-07
3.73784e-09
-1.96405e-07
2.41066e-09
-1.96555e-07
1.07381e-09
-1.96469e-07
-2.71361e-10
-1.96144e-07
-1.62347e-09
-1.9558e-07
-2.98108e-09
-1.94776e-07
-4.34271e-09
-1.93733e-07
-5.70682e-09
-1.92449e-07
-7.07184e-09
-1.90926e-07
-8.43616e-09
-1.89165e-07
-9.79809e-09
-1.87165e-07
-1.11559e-08
-1.84928e-07
-1.25079e-08
-1.82456e-07
-1.38522e-08
-1.79751e-07
-1.51869e-08
-1.76814e-07
-1.65103e-08
-1.73648e-07
-1.78203e-08
-1.70256e-07
-1.91149e-08
-1.66641e-07
-2.03923e-08
-1.62806e-07
-2.16502e-08
-1.58756e-07
-2.28866e-08
-1.54494e-07
-2.40993e-08
-1.50026e-07
-2.52861e-08
-1.45356e-07
-2.64446e-08
-1.40491e-07
-2.75721e-08
-1.35435e-07
-2.86659e-08
-1.30196e-07
-2.97227e-08
-1.24782e-07
-3.07389e-08
-1.19199e-07
-3.17101e-08
-1.13458e-07
-3.2631e-08
-1.07569e-07
-3.34951e-08
-1.01543e-07
-3.42943e-08
-9.53932e-08
-3.50186e-08
-8.91354e-08
-3.56555e-08
-8.27871e-08
-3.61896e-08
-7.63692e-08
-3.66018e-08
-6.99058e-08
-3.68694e-08
-6.34254e-08
-3.69652e-08
-5.6961e-08
-3.68577e-08
-5.05509e-08
-3.6511e-08
-4.4239e-08
-3.58852e-08
-3.80756e-08
-3.49379e-08
-3.21169e-08
-3.36253e-08
-2.64259e-08
-3.19052e-08
-2.10714e-08
-2.97402e-08
-1.61279e-08
-2.71018e-08
-1.16756e-08
-2.39759e-08
-7.79948e-09
-2.03687e-08
-4.59042e-09
-1.6314e-08
-2.14619e-09
-1.1879e-08
-5.74515e-10
-7.17148e-09
-2.35405e-09
-5.82921e-10
2.73331e-09
-2.1759e-09
8.1983e-09
-4.64746e-09
1.34451e-08
-7.88192e-09
1.83269e-08
-1.17745e-08
2.27513e-08
-1.62292e-08
2.66616e-08
-2.11579e-08
3.0033e-08
-2.64798e-08
3.28673e-08
-3.21211e-08
3.51871e-08
-3.80151e-08
3.70289e-08
-4.4102e-08
3.8438e-08
-5.03293e-08
3.94641e-08
-5.66506e-08
4.01571e-08
-6.30263e-08
4.05651e-08
-6.9422e-08
4.07322e-08
-7.58089e-08
4.06976e-08
-8.21622e-08
4.04951e-08
-8.84611e-08
4.01534e-08
-9.4688e-08
3.96957e-08
-1.00828e-07
3.9141e-08
-1.06867e-07
3.85043e-08
-1.12795e-07
3.77972e-08
-1.18602e-07
3.70288e-08
-1.24278e-07
3.62057e-08
-1.29816e-07
3.53332e-08
-1.35209e-07
3.44152e-08
-1.40448e-07
3.34547e-08
-1.45528e-07
3.24539e-08
-1.50443e-07
3.14147e-08
-1.55187e-07
3.03386e-08
-1.59753e-07
2.9227e-08
-1.64138e-07
2.80809e-08
-1.68335e-07
2.69014e-08
-1.72339e-07
2.56897e-08
-1.76146e-07
2.44467e-08
-1.79751e-07
2.31734e-08
-1.83149e-07
2.1871e-08
-1.86337e-07
2.05405e-08
-1.89311e-07
1.91829e-08
-1.92065e-07
1.77994e-08
-1.94598e-07
1.63911e-08
-1.96904e-07
1.49592e-08
-1.98982e-07
1.3505e-08
-2.00827e-07
1.20297e-08
-2.02437e-07
1.05346e-08
-2.0381e-07
9.02093e-09
-2.04942e-07
7.49017e-09
-2.05831e-07
5.9437e-09
-2.06477e-07
4.38298e-09
-2.06875e-07
2.8095e-09
-2.07026e-07
1.2248e-09
-2.06928e-07
-3.6953e-10
-2.0658e-07
-1.97184e-09
-2.0598e-07
-3.58042e-09
-2.0513e-07
-5.19354e-09
-2.04027e-07
-6.80939e-09
-2.02673e-07
-8.42609e-09
-2.01067e-07
-1.00418e-08
-1.99211e-07
-1.16544e-08
-1.97105e-07
-1.3262e-08
-1.9475e-07
-1.48625e-08
-1.92149e-07
-1.64537e-08
-1.89302e-07
-1.80335e-08
-1.86213e-07
-1.95996e-08
-1.82883e-07
-2.11497e-08
-1.79317e-07
-2.26816e-08
-1.75516e-07
-2.41928e-08
-1.71485e-07
-2.5681e-08
-1.67228e-07
-2.71435e-08
-1.6275e-07
-2.85779e-08
-1.58055e-07
-2.99814e-08
-1.53148e-07
-3.13512e-08
-1.48036e-07
-3.26842e-08
-1.42725e-07
-3.3977e-08
-1.37221e-07
-3.52259e-08
-1.31534e-07
-3.64263e-08
-1.25671e-07
-3.75733e-08
-1.19641e-07
-3.86604e-08
-1.13456e-07
-3.968e-08
-1.07128e-07
-4.06227e-08
-1.0067e-07
-4.14766e-08
-9.40984e-08
-4.22272e-08
-8.74315e-08
-4.28565e-08
-8.06907e-08
-4.33425e-08
-7.39011e-08
-4.3659e-08
-6.70917e-08
-4.37746e-08
-6.02965e-08
-4.3653e-08
-5.35546e-08
-4.32529e-08
-4.69112e-08
-4.25286e-08
-4.04179e-08
-4.14312e-08
-3.41327e-08
-3.99105e-08
-2.81207e-08
-3.79172e-08
-2.24539e-08
-3.5407e-08
-1.72111e-08
-3.23446e-08
-1.24778e-08
-2.87091e-08
-8.3467e-09
-2.44998e-08
-4.91789e-09
-1.97428e-08
-2.30062e-09
-1.44963e-08
-6.1557e-10
-8.85653e-09
-2.96962e-09
-6.16611e-10
3.34992e-09
-2.30355e-09
9.88524e-09
-4.91952e-09
1.60611e-08
-8.33841e-09
2.17458e-08
-1.24459e-08
2.68588e-08
-1.71381e-08
3.13538e-08
-2.23201e-08
3.5215e-08
-2.79061e-08
3.84533e-08
-3.38184e-08
4.10994e-08
-3.99874e-08
4.31979e-08
-4.63513e-08
4.4802e-08
-5.2856e-08
4.59687e-08
-5.94541e-08
4.67553e-08
-6.61051e-08
4.72161e-08
-7.2774e-08
4.74011e-08
-7.94314e-08
4.73549e-08
-8.6052e-08
4.71157e-08
-9.26146e-08
4.67159e-08
-9.91011e-08
4.61822e-08
-1.05496e-07
4.55359e-08
-1.11786e-07
4.47943e-08
-1.17959e-07
4.39707e-08
-1.24006e-07
4.30753e-08
-1.29916e-07
4.21161e-08
-1.35682e-07
4.10991e-08
-1.41296e-07
4.00289e-08
-1.4675e-07
3.89089e-08
-1.52038e-07
3.77419e-08
-1.57153e-07
3.653e-08
-1.6209e-07
3.52752e-08
-1.66842e-07
3.39789e-08
-1.71404e-07
3.26426e-08
-1.7577e-07
3.12675e-08
-1.79935e-07
2.98549e-08
-1.83894e-07
2.84061e-08
-1.87643e-07
2.69223e-08
-1.91177e-07
2.54047e-08
-1.94491e-07
2.38546e-08
-1.97581e-07
2.22732e-08
-2.00444e-07
2.06619e-08
-2.03075e-07
1.9022e-08
-2.05471e-07
1.7355e-08
-2.07628e-07
1.56622e-08
-2.09543e-07
1.39451e-08
-2.11214e-07
1.22052e-08
-2.12637e-07
1.0444e-08
-2.1381e-07
8.66324e-09
-2.14731e-07
6.86442e-09
-2.15397e-07
5.04927e-09
-2.15807e-07
3.21953e-09
-2.15959e-07
1.37699e-09
-2.15852e-07
-4.76504e-10
-2.15485e-07
-2.33904e-09
-2.14857e-07
-4.20866e-09
-2.13967e-07
-6.08333e-09
-2.12815e-07
-7.96095e-09
-2.11402e-07
-9.83939e-09
-2.09727e-07
-1.17164e-08
-2.07792e-07
-1.35898e-08
-2.05597e-07
-1.54571e-08
-2.03144e-07
-1.7316e-08
-2.00433e-07
-1.9164e-08
-1.97468e-07
-2.09985e-08
-1.94251e-07
-2.28171e-08
-1.90783e-07
-2.4617e-08
-1.87069e-07
-2.63956e-08
-1.83112e-07
-2.81501e-08
-1.78915e-07
-2.98776e-08
-1.74484e-07
-3.15754e-08
-1.69821e-07
-3.32403e-08
-1.64934e-07
-3.48692e-08
-1.59826e-07
-3.64588e-08
-1.54505e-07
-3.80054e-08
-1.48976e-07
-3.95053e-08
-1.43248e-07
-4.09538e-08
-1.37329e-07
-4.2346e-08
-1.31226e-07
-4.36757e-08
-1.24951e-07
-4.49358e-08
-1.18514e-07
-4.61172e-08
-1.11927e-07
-4.72092e-08
-1.05206e-07
-4.81982e-08
-9.83653e-08
-4.90675e-08
-9.14251e-08
-4.97966e-08
-8.44071e-08
-5.03606e-08
-7.73367e-08
-5.07294e-08
-7.02436e-08
-5.08676e-08
-6.31626e-08
-5.07341e-08
-5.61335e-08
-5.02819e-08
-4.92027e-08
-4.94594e-08
-4.24228e-08
-4.82111e-08
-3.58539e-08
-4.64795e-08
-2.95631e-08
-4.4208e-08
-2.36255e-08
-4.13446e-08
-1.8124e-08
-3.78462e-08
-1.31494e-08
-3.36837e-08
-8.80089e-09
-2.88483e-08
-5.18684e-09
-2.33569e-08
-2.42575e-09
-1.72574e-08
-6.48194e-10
-1.06341e-08
-3.61782e-09
-6.4361e-10
3.99353e-09
-2.40764e-09
1.16493e-08
-5.1439e-09
1.87973e-08
-8.71834e-09
2.53202e-08
-1.30089e-08
3.11494e-08
-1.79048e-08
3.62496e-08
-2.33055e-08
4.06157e-08
-2.91203e-08
4.42681e-08
-3.52678e-08
4.72469e-08
-4.16758e-08
4.96059e-08
-4.82805e-08
5.14067e-08
-5.5026e-08
5.27143e-08
-6.18642e-08
5.35934e-08
-6.87535e-08
5.41054e-08
-7.56585e-08
5.43062e-08
-8.25492e-08
5.42456e-08
-8.94e-08
5.39666e-08
-9.61894e-08
5.35053e-08
-1.02899e-07
5.28917e-08
-1.09513e-07
5.21499e-08
-1.16018e-07
5.1299e-08
-1.22401e-07
5.03543e-08
-1.28653e-07
4.93272e-08
-1.34764e-07
4.82269e-08
-1.40725e-07
4.70601e-08
-1.46528e-07
4.5832e-08
-1.52166e-07
4.45468e-08
-1.57632e-07
4.32076e-08
-1.62918e-07
4.18169e-08
-1.6802e-07
4.03769e-08
-1.72931e-07
3.88894e-08
-1.77644e-07
3.73561e-08
-1.82155e-07
3.57785e-08
-1.86458e-07
3.41581e-08
-1.90549e-07
3.24963e-08
-1.94421e-07
3.07946e-08
-1.98071e-07
2.90543e-08
-2.01493e-07
2.72771e-08
-2.04684e-07
2.54643e-08
-2.0764e-07
2.36174e-08
-2.10356e-07
2.17381e-08
-2.12829e-07
1.98279e-08
-2.15055e-07
1.78885e-08
-2.17031e-07
1.59215e-08
-2.18755e-07
1.39287e-08
-2.20223e-07
1.19118e-08
-2.21432e-07
9.87262e-09
-2.22381e-07
7.81309e-09
-2.23067e-07
5.73512e-09
-2.23488e-07
3.64068e-09
-2.23642e-07
1.53182e-09
-2.2353e-07
-5.89358e-10
-2.23148e-07
-2.72067e-09
-2.22497e-07
-4.85988e-09
-2.21575e-07
-7.00467e-09
-2.20384e-07
-9.15266e-09
-2.18922e-07
-1.13014e-08
-2.1719e-07
-1.34484e-08
-2.15188e-07
-1.5591e-08
-2.12919e-07
-1.77266e-08
-2.10382e-07
-1.98525e-08
-2.07581e-07
-2.19657e-08
-2.04516e-07
-2.40635e-08
-2.0119e-07
-2.61429e-08
-1.97606e-07
-2.8201e-08
-1.93767e-07
-3.02345e-08
-1.89677e-07