/*--------------------------------*- C++ -*----------------------------------*\
  =========                 |
  \\      /  F ield         | OpenFOAM: The Open Source CFD Toolbox
   \\    /   O peration     | Website:  https://openfoam.org
    \\  /    A nd           | Version:  7
     \\/     M anipulation  |
\*---------------------------------------------------------------------------*/
FoamFile
{
    version     2.0;
    format      ascii;
    class       volVectorField;
    location    "0.0625";
    object      U;
}
// * * * * * * * * * * * * * * * * * * * * * * * * * * * * * * * * * * * * * //

dimensions      [0 1 -1 0 0 0 0];

internalField   nonuniform List<vector> 
10000
(
(4.40482e-06 -3.90386e-06 0)
(1.05494e-05 -3.47438e-06 0)
(1.03782e-05 -2.64351e-07 0)
(-9.71389e-08 3.54036e-06 0)
(-2.09439e-05 7.07926e-06 0)
(-5.12771e-05 1.00919e-05 0)
(-8.97429e-05 1.25438e-05 0)
(-0.000134818 1.44703e-05 0)
(-0.000185108 1.59266e-05 0)
(-0.000239384 1.69832e-05 0)
(-0.00029659 1.77199e-05 0)
(-0.000355846 1.82011e-05 0)
(-0.000416436 1.84751e-05 0)
(-0.000477781 1.85881e-05 0)
(-0.000539417 1.85781e-05 0)
(-0.000600985 1.84718e-05 0)
(-0.000662205 1.82964e-05 0)
(-0.000722865 1.80824e-05 0)
(-0.000782805 1.78437e-05 0)
(-0.00084189 1.75717e-05 0)
(-0.000900012 1.72569e-05 0)
(-0.000957082 1.69081e-05 0)
(-0.00101303 1.65486e-05 0)
(-0.0010678 1.61951e-05 0)
(-0.00112133 1.58422e-05 0)
(-0.00117358 1.54692e-05 0)
(-0.00122447 1.50624e-05 0)
(-0.00127396 1.46267e-05 0)
(-0.00132198 1.4178e-05 0)
(-0.0013685 1.37273e-05 0)
(-0.00141346 1.3272e-05 0)
(-0.00145681 1.28011e-05 0)
(-0.00149849 1.2306e-05 0)
(-0.00153846 1.1787e-05 0)
(-0.00157666 1.12514e-05 0)
(-0.00161305 1.07059e-05 0)
(-0.00164758 1.01517e-05 0)
(-0.00168021 9.58468e-06 0)
(-0.00171089 9.00123e-06 0)
(-0.00173957 8.40077e-06 0)
(-0.0017662 7.78534e-06 0)
(-0.00179076 7.15731e-06 0)
(-0.00181319 6.51826e-06 0)
(-0.00183347 5.86907e-06 0)
(-0.00185155 5.21015e-06 0)
(-0.0018674 4.54134e-06 0)
(-0.00188099 3.86232e-06 0)
(-0.00189229 3.17335e-06 0)
(-0.00190126 2.47554e-06 0)
(-0.0019079 1.77023e-06 0)
(-0.00191217 1.05834e-06 0)
(-0.00191404 3.40043e-07 0)
(-0.00191351 -3.84669e-07 0)
(-0.00191055 -1.11558e-06 0)
(-0.00190514 -1.85217e-06 0)
(-0.00189728 -2.59356e-06 0)
(-0.00188696 -3.33862e-06 0)
(-0.00187416 -4.0862e-06 0)
(-0.00185889 -4.8352e-06 0)
(-0.00184114 -5.58474e-06 0)
(-0.00182091 -6.3341e-06 0)
(-0.00179822 -7.08227e-06 0)
(-0.00177308 -7.82763e-06 0)
(-0.00174549 -8.56848e-06 0)
(-0.00171548 -9.30343e-06 0)
(-0.00168306 -1.00313e-05 0)
(-0.00164826 -1.07511e-05 0)
(-0.00161112 -1.14612e-05 0)
(-0.00157167 -1.21605e-05 0)
(-0.00152994 -1.28477e-05 0)
(-0.00148597 -1.35219e-05 0)
(-0.00143982 -1.41822e-05 0)
(-0.00139153 -1.48277e-05 0)
(-0.00134116 -1.54574e-05 0)
(-0.00128876 -1.60698e-05 0)
(-0.00123439 -1.66635e-05 0)
(-0.00117812 -1.72374e-05 0)
(-0.00112004 -1.77897e-05 0)
(-0.00106021 -1.83178e-05 0)
(-0.000998729 -1.88183e-05 0)
(-0.000935713 -1.92864e-05 0)
(-0.000871286 -1.9716e-05 0)
(-0.0008056 -2.00984e-05 0)
(-0.000738841 -2.04222e-05 0)
(-0.000671239 -2.06724e-05 0)
(-0.000603078 -2.08299e-05 0)
(-0.000534714 -2.08698e-05 0)
(-0.000466585 -2.07603e-05 0)
(-0.000399238 -2.04619e-05 0)
(-0.000333343 -1.99276e-05 0)
(-0.000269713 -1.91033e-05 0)
(-0.000209321 -1.79255e-05 0)
(-0.000153319 -1.63202e-05 0)
(-0.000103038 -1.42047e-05 0)
(-5.99769e-05 -1.14968e-05 0)
(-2.57493e-05 -8.1397e-06 0)
(-1.94356e-06 -4.16584e-06 0)
(1.02252e-05 1.59658e-07 0)
(1.10858e-05 3.9599e-06 0)
(4.45108e-06 4.4527e-06 0)
(4.35944e-06 -1.08048e-05 0)
(5.04025e-06 -4.056e-06 0)
(-1.2698e-05 1.28689e-05 0)
(-5.35684e-05 3.24125e-05 0)
(-0.000118403 5.12957e-05 0)
(-0.00020574 6.80665e-05 0)
(-0.000312894 8.22127e-05 0)
(-0.000436758 9.36909e-05 0)
(-0.000574198 0.000102683 0)
(-0.000722286 0.000109489 0)
(-0.000878438 0.000114431 0)
(-0.00104042 0.000117818 0)
(-0.00120633 0.000119931 0)
(-0.00137462 0.00012102 0)
(-0.00154402 0.000121301 0)
(-0.00171352 0.000120943 0)
(-0.00188232 0.000120082 0)
(-0.00204977 0.00011884 0)
(-0.00221538 0.00011731 0)
(-0.00237873 0.000115549 0)
(-0.0025395 0.000113586 0)
(-0.00269743 0.000111448 0)
(-0.00285227 0.00010917 0)
(-0.00300385 0.000106779 0)
(-0.00315199 0.000104288 0)
(-0.0032965 0.000101689 0)
(-0.00343724 9.89747e-05 0)
(-0.00357403 9.61429e-05 0)
(-0.00370674 9.32021e-05 0)
(-0.00383521 9.01627e-05 0)
(-0.00395932 8.70294e-05 0)
(-0.0040789 8.37993e-05 0)
(-0.00419382 8.04663e-05 0)
(-0.00430394 7.70284e-05 0)
(-0.00440912 7.34898e-05 0)
(-0.00450923 6.98574e-05 0)
(-0.00460415 6.61357e-05 0)
(-0.00469374 6.23256e-05 0)
(-0.00477788 5.84265e-05 0)
(-0.00485645 5.44396e-05 0)
(-0.00492934 5.03677e-05 0)
(-0.00499642 4.6215e-05 0)
(-0.00505761 4.19863e-05 0)
(-0.0051128 3.76868e-05 0)
(-0.00516189 3.3321e-05 0)
(-0.00520479 2.88923e-05 0)
(-0.00524141 2.44035e-05 0)
(-0.00527169 1.98578e-05 0)
(-0.00529555 1.52597e-05 0)
(-0.00531292 1.06137e-05 0)
(-0.00532374 5.92426e-06 0)
(-0.00532795 1.19516e-06 0)
(-0.00532551 -3.5698e-06 0)
(-0.00531637 -8.36645e-06 0)
(-0.00530049 -1.31902e-05 0)
(-0.00527786 -1.80359e-05 0)
(-0.00524844 -2.28979e-05 0)
(-0.00521223 -2.77697e-05 0)
(-0.00516921 -3.2645e-05 0)
(-0.0051194 -3.75174e-05 0)
(-0.0050628 -4.23806e-05 0)
(-0.00499945 -4.72277e-05 0)
(-0.00492936 -5.20508e-05 0)
(-0.00485259 -5.68414e-05 0)
(-0.00476918 -6.15916e-05 0)
(-0.00467921 -6.62937e-05 0)
(-0.00458274 -7.09401e-05 0)
(-0.00447986 -7.55227e-05 0)
(-0.00437067 -8.00338e-05 0)
(-0.00425527 -8.44654e-05 0)
(-0.00413379 -8.881e-05 0)
(-0.00400635 -9.30602e-05 0)
(-0.00387309 -9.72089e-05 0)
(-0.00373416 -0.000101248 0)
(-0.00358973 -0.000105168 0)
(-0.00343996 -0.000108959 0)
(-0.00328507 -0.000112608 0)
(-0.00312526 -0.000116102 0)
(-0.00296077 -0.00011942 0)
(-0.00279189 -0.000122536 0)
(-0.00261892 -0.000125416 0)
(-0.00244225 -0.000128016 0)
(-0.00226232 -0.000130277 0)
(-0.00207967 -0.000132124 0)
(-0.00189496 -0.000133457 0)
(-0.00170902 -0.000134155 0)
(-0.00152282 -0.000134066 0)
(-0.0013376 -0.000133003 0)
(-0.00115484 -0.000130747 0)
(-0.000976307 -0.00012704 0)
(-0.000804131 -0.000121595 0)
(-0.000640784 -0.000114098 0)
(-0.000489096 -0.000104228 0)
(-0.000352218 -9.16841e-05 0)
(-0.000233517 -7.62476e-05 0)
(-0.000136359 -5.79195e-05 0)
(-6.36955e-05 -3.7187e-05 0)
(-1.72932e-05 -1.55168e-05 0)
(3.56098e-06 3.54537e-06 0)
(3.9654e-06 1.1053e-05 0)
(8.32874e-07 -1.10703e-05 0)
(-1.20975e-05 1.32153e-05 0)
(-5.56064e-05 5.64509e-05 0)
(-0.000132495 0.000104866 0)
(-0.000242814 0.000152155 0)
(-0.00038461 0.000194987 0)
(-0.000554587 0.000231811 0)
(-0.000748689 0.000262243 0)
(-0.000962705 0.000286543 0)
(-0.00119262 0.000305271 0)
(-0.00143476 0.000319128 0)
(-0.0016859 0.000328844 0)
(-0.00194325 0.000335107 0)
(-0.00220448 0.000338547 0)
(-0.00246767 0.000339716 0)
(-0.00273124 0.000339069 0)
(-0.00299391 0.000336973 0)
(-0.00325466 0.000333737 0)
(-0.00351269 0.000329605 0)
(-0.00376732 0.000324759 0)
(-0.00401801 0.000319324 0)
(-0.00426432 0.00031339 0)
(-0.00450584 0.000307028 0)
(-0.00474225 0.000300289 0)
(-0.00497325 0.000293208 0)
(-0.00519857 0.000285803 0)
(-0.00541795 0.000278086 0)
(-0.00563113 0.000270061 0)
(-0.00583786 0.000261733 0)
(-0.00603793 0.00025311 0)
(-0.00623111 0.0002442 0)
(-0.00641717 0.000235008 0)
(-0.00659588 0.000225538 0)
(-0.00676705 0.000215792 0)
(-0.00693044 0.000205774 0)
(-0.00708587 0.000195492 0)
(-0.00723314 0.000184954 0)
(-0.00737205 0.000174166 0)
(-0.0075024 0.000163135 0)
(-0.00762403 0.000151868 0)
(-0.00773675 0.000140374 0)
(-0.00784039 0.000128661 0)
(-0.00793481 0.00011674 0)
(-0.00801984 0.000104622 0)
(-0.00809533 9.23185e-05 0)
(-0.00816116 7.98411e-05 0)
(-0.0082172 6.71999e-05 0)
(-0.00826332 5.44056e-05 0)
(-0.00829942 4.14697e-05 0)
(-0.00832539 2.84041e-05 0)
(-0.00834115 1.52205e-05 0)
(-0.00834661 1.93127e-06 0)
(-0.0083417 -1.14508e-05 0)
(-0.00832636 -2.49124e-05 0)
(-0.00830055 -3.84398e-05 0)
(-0.00826423 -5.20181e-05 0)
(-0.00821736 -6.56316e-05 0)
(-0.00815995 -7.92635e-05 0)
(-0.00809198 -9.28959e-05 0)
(-0.00801347 -0.000106511 0)
(-0.00792445 -0.000120091 0)
(-0.00782496 -0.000133615 0)
(-0.00771506 -0.000147065 0)
(-0.00759482 -0.000160418 0)
(-0.00746432 -0.000173654 0)
(-0.00732368 -0.000186752 0)
(-0.007173 -0.00019969 0)
(-0.00701242 -0.000212447 0)
(-0.00684211 -0.000225002 0)
(-0.00666221 -0.000237333 0)
(-0.00647292 -0.000249419 0)
(-0.00627444 -0.000261237 0)
(-0.00606699 -0.000272765 0)
(-0.00585081 -0.000283979 0)
(-0.00562616 -0.000294852 0)
(-0.00539332 -0.000305352 0)
(-0.0051526 -0.000315441 0)
(-0.00490436 -0.000325074 0)
(-0.00464897 -0.000334192 0)
(-0.0043869 -0.000342716 0)
(-0.00411865 -0.000350549 0)
(-0.00384482 -0.000357561 0)
(-0.00356614 -0.000363584 0)
(-0.00328347 -0.000368406 0)
(-0.00299786 -0.000371756 0)
(-0.00271058 -0.000373299 0)
(-0.00242317 -0.000372626 0)
(-0.00213751 -0.000369251 0)
(-0.00185582 -0.000362606 0)
(-0.00158078 -0.000352048 0)
(-0.00131549 -0.000336873 0)
(-0.00106351 -0.000316353 0)
(-0.000828839 -0.000289789 0)
(-0.000615825 -0.000256612 0)
(-0.000428977 -0.000216552 0)
(-0.000272661 -0.00016995 0)
(-0.000150537 -0.00011829 0)
(-6.47118e-05 -6.50388e-05 0)
(-1.52998e-05 -1.7225e-05 0)
(2.21779e-07 1.02365e-05 0)
(-3.26306e-06 -1.2209e-06 0)
(-3.21387e-05 5.38122e-05 0)
(-0.000104728 0.000133324 0)
(-0.000219653 0.000219531 0)
(-0.000375199 0.000303511 0)
(-0.000568854 0.000379999 0)
(-0.000796672 0.000446383 0)
(-0.00105395 0.00050185 0)
(-0.00133579 0.000546626 0)
(-0.00163745 0.000581523 0)
(-0.00195453 0.000607659 0)
(-0.00228309 0.00062623 0)
(-0.0026197 0.000638419 0)
(-0.00296143 0.000645325 0)
(-0.00330584 0.000647929 0)
(-0.00365091 0.000647061 0)
(-0.00399497 0.000643407 0)
(-0.00433666 0.000637522 0)
(-0.00467489 0.000629848 0)
(-0.00500877 0.000620732 0)
(-0.00533756 0.000610437 0)
(-0.00566064 0.000599155 0)
(-0.00597748 0.000587017 0)
(-0.0062876 0.000574115 0)
(-0.00659059 0.000560514 0)
(-0.00688608 0.000546264 0)
(-0.00717372 0.000531403 0)
(-0.00745317 0.000515953 0)
(-0.00772411 0.000499925 0)
(-0.00798623 0.000483328 0)
(-0.00823922 0.000466174 0)
(-0.00848279 0.000448475 0)
(-0.00871665 0.000430246 0)
(-0.00894054 0.000411497 0)
(-0.00915416 0.000392237 0)
(-0.00935727 0.000372477 0)
(-0.00954959 0.000352231 0)
(-0.00973088 0.000331512 0)
(-0.0099009 0.000310336 0)
(-0.0100594 0.000288719 0)
(-0.0102062 0.000266676 0)
(-0.010341 0.000244225 0)
(-0.0104637 0.000221383 0)
(-0.0105741 0.000198173 0)
(-0.0106719 0.000174615 0)
(-0.010757 0.000150728 0)
(-0.0108292 0.000126535 0)
(-0.0108885 0.000102056 0)
(-0.0109346 7.73147e-05 0)
(-0.0109674 5.23336e-05 0)
(-0.0109867 2.71357e-05 0)
(-0.0109927 1.74559e-06 0)
(-0.010985 -2.38113e-05 0)
(-0.0109636 -4.95087e-05 0)
(-0.0109286 -7.53193e-05 0)
(-0.0108798 -0.000101214 0)
(-0.0108172 -0.000127163 0)
(-0.0107409 -0.000153134 0)
(-0.0106507 -0.000179095 0)
(-0.0105468 -0.000205011 0)
(-0.0104292 -0.000230848 0)
(-0.0102979 -0.000256569 0)
(-0.0101531 -0.000282138 0)
(-0.00999477 -0.000307515 0)
(-0.00982311 -0.000332662 0)
(-0.00963822 -0.00035754 0)
(-0.00944029 -0.000382108 0)
(-0.00922947 -0.000406328 0)
(-0.00900599 -0.000430157 0)
(-0.00877005 -0.000453556 0)
(-0.0085219 -0.000476482 0)
(-0.00826181 -0.000498892 0)
(-0.00799007 -0.000520743 0)
(-0.007707 -0.000541985 0)
(-0.00741295 -0.000562563 0)
(-0.00710829 -0.000582416 0)
(-0.00679344 -0.000601469 0)
(-0.00646888 -0.000619627 0)
(-0.00613512 -0.000636774 0)
(-0.00579276 -0.00065276 0)
(-0.0054425 -0.00066739 0)
(-0.00508514 -0.000680415 0)
(-0.00472164 -0.000691518 0)
(-0.00435315 -0.000700293 0)
(-0.00398104 -0.000706237 0)
(-0.00360697 -0.000708729 0)
(-0.00323293 -0.000707024 0)
(-0.0028613 -0.000700243 0)
(-0.00249491 -0.000687376 0)
(-0.00213706 -0.000667302 0)
(-0.0017916 -0.000638821 0)
(-0.00146285 -0.000600729 0)
(-0.00115561 -0.000551926 0)
(-0.000874996 -0.0004916 0)
(-0.000626267 -0.000419515 0)
(-0.000414483 -0.00033648 0)
(-0.000243917 -0.000245079 0)
(-0.000117313 -0.000150709 0)
(-3.66563e-05 -6.32982e-05 0)
(-4.02807e-06 -1.75569e-06 0)
(-6.99386e-06 1.95922e-05 0)
(-5.15095e-05 0.000118825 0)
(-0.000153032 0.000243963 0)
(-0.000305225 0.000375272 0)
(-0.000504141 0.000501914 0)
(-0.000746318 0.000617271 0)
(-0.0010271 0.000717857 0)
(-0.0013412 0.000802433 0)
(-0.00168321 0.000871207 0)
(-0.00204787 0.000925237 0)
(-0.00243028 0.000966038 0)
(-0.00282602 0.000995308 0)
(-0.00323118 0.00101476 0)
(-0.00364239 0.001026 0)
(-0.00405683 0.00103048 0)
(-0.00447212 0.00102945 0)
(-0.00488629 0.00102399 0)
(-0.00529773 0.00101494 0)
(-0.00570509 0.00100299 0)
(-0.00610728 0.00098866 0)
(-0.00650339 0.000972379 0)
(-0.00689264 0.000954458 0)
(-0.00727439 0.000935128 0)
(-0.00764805 0.000914543 0)
(-0.00801309 0.000892813 0)
(-0.00836905 0.000870017 0)
(-0.00871548 0.000846215 0)
(-0.00905197 0.000821452 0)
(-0.00937815 0.000795761 0)
(-0.00969361 0.000769166 0)
(-0.00999801 0.000741684 0)
(-0.010291 0.000713334 0)
(-0.0105722 0.000684135 0)
(-0.0108412 0.000654107 0)
(-0.0110979 0.000623273 0)
(-0.0113418 0.000591651 0)
(-0.0115726 0.000559263 0)
(-0.0117901 0.000526133 0)
(-0.0119939 0.000492283 0)
(-0.0121838 0.00045774 0)
(-0.0123595 0.000422528 0)
(-0.0125208 0.000386678 0)
(-0.0126673 0.00035022 0)
(-0.012799 0.000313185 0)
(-0.0129156 0.000275604 0)
(-0.0130168 0.000237511 0)
(-0.0131025 0.00019894 0)
(-0.0131725 0.000159924 0)
(-0.0132267 0.000120501 0)
(-0.0132649 8.07085e-05 0)
(-0.0132869 4.05834e-05 0)
(-0.0132927 1.65719e-07 0)
(-0.0132821 -4.05036e-05 0)
(-0.0132551 -8.13819e-05 0)
(-0.0132117 -0.000122425 0)
(-0.0131517 -0.000163587 0)
(-0.0130751 -0.000204818 0)
(-0.012982 -0.00024607 0)
(-0.0128724 -0.00028729 0)
(-0.0127462 -0.000328425 0)
(-0.0126036 -0.00036942 0)
(-0.0124447 -0.000410219 0)
(-0.0122695 -0.000450763 0)
(-0.0120781 -0.000490993 0)
(-0.0118708 -0.000530847 0)
(-0.0116476 -0.000570266 0)
(-0.0114088 -0.000609185 0)
(-0.0111546 -0.000647542 0)
(-0.0108852 -0.000685273 0)
(-0.0106009 -0.000722313 0)
(-0.0103021 -0.000758594 0)
(-0.00998896 -0.000794049 0)
(-0.00966193 -0.000828602 0)
(-0.00932137 -0.000862176 0)
(-0.00896771 -0.00089468 0)
(-0.00860142 -0.000926011 0)
(-0.008223 -0.000956045 0)
(-0.00783303 -0.000984631 0)
(-0.00743215 -0.00101158 0)
(-0.0070211 -0.00103664 0)
(-0.00660072 -0.0010595 0)
(-0.00617198 -0.00107978 0)
(-0.00573607 -0.00109696 0)
(-0.00529434 -0.00111041 0)
(-0.00484846 -0.00111936 0)
(-0.00440037 -0.00112285 0)
(-0.00395243 -0.00111974 0)
(-0.00350741 -0.00110871 0)
(-0.00306858 -0.00108826 0)
(-0.00263972 -0.00105675 0)
(-0.00222517 -0.00101243 0)
(-0.0018298 -0.000953627 0)
(-0.00145895 -0.000878831 0)
(-0.00111828 -0.000787008 0)
(-0.00081361 -0.000677969 0)
(-0.000550602 -0.000552952 0)
(-0.00033424 -0.000415452 0)
(-0.000168236 -0.000272304 0)
(-5.70148e-05 -0.000135294 0)
(-7.90693e-06 -2.51803e-05 0)
(-1.01342e-05 5.01921e-05 0)
(-6.87955e-05 0.000206855 0)
(-0.000197177 0.000386901 0)
(-0.000384161 0.00057007 0)
(-0.000623293 0.000744585 0)
(-0.000909969 0.000903027 0)
(-0.00123873 0.00104134 0)
(-0.00160367 0.00115803 0)
(-0.00199893 0.00125336 0)
(-0.00241884 0.00132866 0)
(-0.00285813 0.00138585 0)
(-0.00331203 0.00142716 0)
(-0.00377631 0.00145484 0)
(-0.0042473 0.00147104 0)
(-0.00472188 0.0014777 0)
(-0.00519739 0.00147654 0)
(-0.00567163 0.00146902 0)
(-0.00614279 0.00145632 0)
(-0.00660935 0.00143942 0)
(-0.00707003 0.00141907 0)
(-0.00752377 0.00139584 0)
(-0.00796967 0.00137018 0)
(-0.00840697 0.00134242 0)
(-0.00883499 0.00131281 0)
(-0.00925312 0.00128152 0)
(-0.00966079 0.00124868 0)
(-0.0100575 0.00121436 0)
(-0.0104428 0.00117864 0)
(-0.0108161 0.00114157 0)
(-0.0111771 0.00110319 0)
(-0.0115254 0.00106354 0)
(-0.0118605 0.00102264 0)
(-0.012182 0.000980525 0)
(-0.0124895 0.000937225 0)
(-0.0127827 0.00089277 0)
(-0.0130613 0.000847193 0)
(-0.0133248 0.000800526 0)
(-0.0135729 0.000752805 0)
(-0.0138054 0.000704064 0)
(-0.0140218 0.00065434 0)
(-0.0142219 0.000603671 0)
(-0.0144055 0.000552099 0)
(-0.0145722 0.000499668 0)
(-0.0147218 0.000446423 0)
(-0.014854 0.00039241 0)
(-0.0149686 0.000337674 0)
(-0.0150655 0.000282266 0)
(-0.0151443 0.000226236 0)
(-0.015205 0.000169636 0)
(-0.0152474 0.00011252 0)
(-0.0152713 5.49437e-05 0)
(-0.0152766 -3.03533e-06 0)
(-0.0152632 -6.13579e-05 0)
(-0.015231 -0.000119962 0)
(-0.01518 -0.000178785 0)
(-0.0151101 -0.000237759 0)
(-0.0150213 -0.000296816 0)
(-0.0149135 -0.000355883 0)
(-0.0147869 -0.000414887 0)
(-0.0146415 -0.000473753 0)
(-0.0144773 -0.000532403 0)
(-0.0142944 -0.000590757 0)
(-0.014093 -0.000648731 0)
(-0.0138732 -0.000706242 0)
(-0.0136352 -0.000763205 0)
(-0.0133791 -0.000819532 0)
(-0.0131052 -0.000875134 0)
(-0.0128138 -0.000929922 0)
(-0.0125051 -0.000983803 0)
(-0.0121795 -0.00103669 0)
(-0.0118373 -0.00108847 0)
(-0.0114788 -0.00113906 0)
(-0.0111046 -0.00118835 0)
(-0.0107149 -0.00123622 0)
(-0.0103104 -0.00128253 0)
(-0.00989158 -0.00132714 0)
(-0.00945899 -0.00136987 0)
(-0.00901332 -0.00141049 0)
(-0.00855531 -0.00144872 0)
(-0.00808582 -0.00148421 0)
(-0.00760581 -0.00151652 0)
(-0.00711642 -0.00154508 0)
(-0.00661898 -0.00156917 0)
(-0.00611505 -0.00158792 0)
(-0.00560649 -0.00160022 0)
(-0.0050955 -0.00160477 0)
(-0.0045847 -0.00160001 0)
(-0.00407715 -0.00158413 0)
(-0.00357643 -0.00155512 0)
(-0.00308669 -0.00151076 0)
(-0.0026126 -0.00144879 0)
(-0.00215942 -0.00136701 0)
(-0.00173288 -0.00126351 0)
(-0.00133907 -0.001137 0)
(-0.000984293 -0.000987276 0)
(-0.000674836 -0.000815847 0)
(-0.000416515 -0.00062679 0)
(-0.000214226 -0.000427773 0)
(-7.49914e-05 -0.00023145 0)
(-1.11653e-05 -5.88073e-05 0)
(-1.27079e-05 8.91645e-05 0)
(-8.3608e-05 0.000315515 0)
(-0.000235898 0.000559209 0)
(-0.000454181 0.000800576 0)
(-0.000729588 0.00102764 0)
(-0.0010563 0.00123271 0)
(-0.00142796 0.00141153 0)
(-0.00183804 0.0015626 0)
(-0.00228018 0.00168634 0)
(-0.00274838 0.0017844 0)
(-0.00323709 0.00185918 0)
(-0.00374124 0.00191343 0)
(-0.00425639 0.00194996 0)
(-0.00477865 0.0019715 0)
(-0.00530467 0.0019805 0)
(-0.00583162 0.00197916 0)
(-0.00635712 0.00196933 0)
(-0.00687918 0.00195256 0)
(-0.00739614 0.00193012 0)
(-0.00790661 0.00190299 0)
(-0.0084094 0.00187196 0)
(-0.00890351 0.00183761 0)
(-0.00938808 0.00180038 0)
(-0.00986232 0.0017606 0)
(-0.0103256 0.00171852 0)
(-0.0107772 0.00167432 0)
(-0.0112166 0.00162811 0)
(-0.0116433 0.00158001 0)
(-0.0120567 0.00153007 0)
(-0.0124564 0.00147837 0)
(-0.0128418 0.00142494 0)
(-0.0132126 0.00136985 0)
(-0.0135683 0.00131314 0)
(-0.0139084 0.00125484 0)
(-0.0142326 0.00119499 0)
(-0.0145404 0.00113365 0)
(-0.0148315 0.00107086 0)
(-0.0151055 0.00100667 0)
(-0.0153621 0.000941124 0)
(-0.0156009 0.000874275 0)
(-0.0158215 0.000806176 0)
(-0.0160237 0.000736884 0)
(-0.0162073 0.000666456 0)
(-0.0163718 0.000594954 0)
(-0.016517 0.000522437 0)
(-0.0166428 0.00044897 0)
(-0.0167488 0.00037462 0)
(-0.0168349 0.000299454 0)
(-0.0169009 0.000223542 0)
(-0.0169466 0.000146957 0)
(-0.0169718 6.97745e-05 0)
(-0.0169764 -7.928e-06 0)
(-0.0169604 -8.60706e-05 0)
(-0.0169235 -0.000164571 0)
(-0.0168659 -0.000243342 0)
(-0.0167873 -0.000322296 0)
(-0.0166878 -0.000401339 0)
(-0.0165675 -0.000480377 0)
(-0.0164263 -0.000559312 0)
(-0.0162643 -0.000638044 0)
(-0.0160815 -0.000716468 0)
(-0.0158782 -0.000794478 0)
(-0.0156543 -0.000871966 0)
(-0.0154102 -0.000948819 0)
(-0.015146 -0.00102492 0)
(-0.0148618 -0.00110017 0)
(-0.0145581 -0.00117443 0)
(-0.014235 -0.00124758 0)
(-0.0138929 -0.00131952 0)
(-0.0135321 -0.0013901 0)
(-0.013153 -0.00145921 0)
(-0.012756 -0.0015267 0)
(-0.0123416 -0.00159244 0)
(-0.0119104 -0.00165625 0)
(-0.0114627 -0.00171796 0)
(-0.0109993 -0.00177737 0)
(-0.0105208 -0.00183422 0)
(-0.0100279 -0.00188822 0)
(-0.00952149 -0.00193898 0)
(-0.0090025 -0.00198604 0)
(-0.00847202 -0.0020288 0)
(-0.00793128 -0.0020665 0)
(-0.00738175 -0.00209822 0)
(-0.00682515 -0.00212279 0)
(-0.00626349 -0.0021388 0)
(-0.00569917 -0.00214453 0)
(-0.00513497 -0.002138 0)
(-0.0045742 -0.00211689 0)
(-0.00402066 -0.00207865 0)
(-0.00347872 -0.00202051 0)
(-0.00295335 -0.00193964 0)
(-0.00245007 -0.00183329 0)
(-0.00197492 -0.00169913 0)
(-0.00153437 -0.00153556 0)
(-0.00113521 -0.00134221 0)
(-0.000784372 -0.00112065 0)
(-0.000488595 -0.000875169 0)
(-0.00025404 -0.000613694 0)
(-9.01937e-05 -0.00034894 0)
(-1.37889e-05 -0.000101078 0)
(-1.4782e-05 0.000135159 0)
(-9.60034e-05 0.000442002 0)
(-0.000268959 0.000757382 0)
(-0.000514651 0.0010628 0)
(-0.000822071 0.00134666 0)
(-0.00118418 0.00160144 0)
(-0.00159373 0.00182307 0)
(-0.0020435 0.00201026 0)
(-0.00252669 0.00216373 0)
(-0.00303695 0.00228559 0)
(-0.00356846 0.00237875 0)
(-0.00411595 0.0024465 0)
(-0.00467478 0.00249226 0)
(-0.00524091 0.00251931 0)
(-0.00581083 0.00253068 0)
(-0.00638159 0.00252901 0)
(-0.00695068 0.00251661 0)
(-0.00751597 0.00249536 0)
(-0.0080757 0.00246685 0)
(-0.00862838 0.00243232 0)
(-0.00917274 0.00239274 0)
(-0.00970769 0.00234886 0)
(-0.0102323 0.00230124 0)
(-0.0107457 0.00225032 0)
(-0.0112471 0.0021964 0)
(-0.0117359 0.00213972 0)
(-0.0122115 0.00208046 0)
(-0.0126731 0.00201874 0)
(-0.0131204 0.00195466 0)
(-0.0135527 0.00188831 0)
(-0.0139696 0.00181976 0)
(-0.0143705 0.00174907 0)
(-0.014755 0.00167631 0)
(-0.0151226 0.00160153 0)
(-0.0154728 0.00152478 0)
(-0.0158053 0.00144614 0)
(-0.0161196 0.00136565 0)
(-0.0164154 0.00128338 0)
(-0.0166922 0.0011994 0)
(-0.0169497 0.00111377 0)
(-0.0171876 0.00102656 0)
(-0.0174055 0.000937852 0)
(-0.0176031 0.000847708 0)
(-0.01778 0.00075621 0)
(-0.0179362 0.000663436 0)
(-0.0180712 0.000569468 0)
(-0.0181848 0.000474392 0)
(-0.0182768 0.000378294 0)
(-0.0183471 0.000281265 0)
(-0.0183954 0.000183399 0)
(-0.0184216 8.47908e-05 0)
(-0.0184255 -1.44597e-05 0)
(-0.018407 -0.00011425 0)
(-0.0183661 -0.000214475 0)
(-0.0183026 -0.000315023 0)
(-0.0182166 -0.000415781 0)
(-0.018108 -0.000516633 0)
(-0.0179769 -0.000617457 0)
(-0.0178232 -0.000718129 0)
(-0.017647 -0.000818521 0)
(-0.0174485 -0.000918503 0)
(-0.0172277 -0.00101794 0)
(-0.0169849 -0.00111669 0)
(-0.0167201 -0.00121462 0)
(-0.0164337 -0.00131157 0)
(-0.0161258 -0.00140742 0)
(-0.0157967 -0.00150199 0)
(-0.0154468 -0.00159515 0)
(-0.0150763 -0.00168674 0)
(-0.0146857 -0.00177659 0)
(-0.0142755 -0.00186454 0)
(-0.0138459 -0.00195041 0)
(-0.0133976 -0.00203402 0)
(-0.0129311 -0.00211516 0)
(-0.012447 -0.0021936 0)
(-0.0119459 -0.00226907 0)
(-0.0114286 -0.00234125 0)
(-0.0108959 -0.00240975 0)
(-0.0103486 -0.00247409 0)
(-0.0097878 -0.00253366 0)
(-0.00921468 -0.00258772 0)
(-0.00863057 -0.00263532 0)
(-0.00803702 -0.00267528 0)
(-0.00743587 -0.00270616 0)
(-0.00682927 -0.00272619 0)
(-0.00621973 -0.00273329 0)
(-0.0056102 -0.00272498 0)
(-0.00500411 -0.00269846 0)
(-0.00440545 -0.00265061 0)
(-0.00381878 -0.00257809 0)
(-0.00324924 -0.00247748 0)
(-0.0027026 -0.00234547 0)
(-0.00218519 -0.00217922 0)
(-0.00170381 -0.00197673 0)
(-0.00126574 -0.00173734 0)
(-0.000878621 -0.00146241 0)
(-0.000550097 -0.00115609 0)
(-0.000287574 -0.000826105 0)
(-0.000102714 -0.00048464 0)
(-1.58516e-05 -0.000150464 0)
(-1.64279e-05 0.000186898 0)
(-0.000106208 0.000583556 0)
(-0.000296648 0.000977807 0)
(-0.000565888 0.00135261 0)
(-0.000901074 0.00169713 0)
(-0.00129404 0.00200441 0)
(-0.00173667 0.00227085 0)
(-0.0022211 0.00249557 0)
(-0.00274003 0.0026798 0)
(-0.00328677 0.00282618 0)
(-0.00385527 0.0029382 0)
(-0.00444008 0.00301978 0)
(-0.0050364 0.00307495 0)
(-0.00564003 0.00310757 0)
(-0.0062474 0.0031212 0)
(-0.00685543 0.00311901 0)
(-0.00746153 0.00310372 0)
(-0.00806349 0.00307761 0)
(-0.00865946 0.00304255 0)
(-0.00924786 0.00300004 0)
(-0.00982737 0.00295127 0)
(-0.0103968 0.00289714 0)
(-0.0109552 0.00283835 0)
(-0.0115017 0.00277544 0)
(-0.0120353 0.00270878 0)
(-0.0125555 0.00263868 0)
(-0.0130616 0.00256535 0)
(-0.0135528 0.00248897 0)
(-0.0140286 0.00240967 0)
(-0.0144884 0.00232755 0)
(-0.0149318 0.00224271 0)
(-0.0153581 0.00215524 0)
(-0.0157668 0.0020652 0)
(-0.0161575 0.00197268 0)
(-0.0165297 0.00187775 0)
(-0.0168829 0.00178048 0)
(-0.0172167 0.00168096 0)
(-0.0175308 0.00157926 0)
(-0.0178246 0.00147547 0)
(-0.0180979 0.00136966 0)
(-0.0183501 0.00126192 0)
(-0.0185811 0.00115235 0)
(-0.0187905 0.00104104 0)
(-0.0189779 0.000928074 0)
(-0.0191431 0.000813561 0)
(-0.0192858 0.0006976 0)
(-0.0194058 0.000580295 0)
(-0.0195028 0.000461753 0)
(-0.0195766 0.000342088 0)
(-0.019627 0.000221413 0)
(-0.0196539 9.98485e-05 0)
(-0.0196571 -2.24846e-05 0)
(-0.0196365 -0.00014546 0)
(-0.0195921 -0.000268946 0)
(-0.0195237 -0.000392807 0)
(-0.0194314 -0.000516905 0)
(-0.019315 -0.000641095 0)
(-0.0191747 -0.000765229 0)
(-0.0190105 -0.000889156 0)
(-0.0188224 -0.00101272 0)
(-0.0186105 -0.00113576 0)
(-0.018375 -0.0012581 0)
(-0.0181161 -0.00137959 0)
(-0.0178339 -0.00150005 0)
(-0.0175287 -0.00161929 0)
(-0.0172007 -0.00173715 0)
(-0.0168503 -0.00185344 0)
(-0.0164777 -0.00196797 0)
(-0.0160834 -0.00208055 0)
(-0.0156677 -0.00219098 0)
(-0.0152311 -0.00229905 0)
(-0.0147741 -0.00240455 0)
(-0.0142971 -0.00250725 0)
(-0.0138009 -0.00260688 0)
(-0.013286 -0.00270316 0)
(-0.0127532 -0.00279576 0)
(-0.0122031 -0.00288427 0)
(-0.0116367 -0.00296823 0)
(-0.0110549 -0.00304702 0)
(-0.0104588 -0.00311993 0)
(-0.00984969 -0.00318602 0)
(-0.00922891 -0.00324415 0)
(-0.00859813 -0.00329291 0)
(-0.00795926 -0.00333054 0)
(-0.00731455 -0.00335494 0)
(-0.0066666 -0.00336361 0)
(-0.00601848 -0.00335363 0)
(-0.00537373 -0.00332166 0)
(-0.00473647 -0.00326401 0)
(-0.00411137 -0.00317676 0)
(-0.00350378 -0.00305585 0)
(-0.00291966 -0.00289739 0)
(-0.00236559 -0.00269795 0)
(-0.00184875 -0.00245501 0)
(-0.00137689 -0.00216747 0)
(-0.000958346 -0.00183625 0)
(-0.000601639 -0.00146507 0)
(-0.00031531 -0.00106106 0)
(-0.000112853 -0.000635534 0)
(-1.74498e-05 -0.000205597 0)
(-1.77217e-05 0.000243289 0)
(-0.000114499 0.000737662 0)
(-0.000319545 0.00121706 0)
(-0.000608733 0.00166603 0)
(-0.000967694 0.00207476 0)
(-0.00138727 0.00243709 0)
(-0.00185855 0.0027501 0)
(-0.00237303 0.0030136 0)
(-0.00292295 0.00322942 0)
(-0.00350129 0.00340085 0)
(-0.00410174 0.00353205 0)
(-0.00471868 0.00362762 0)
(-0.00534719 0.00369223 0)
(-0.00598295 0.00373035 0)
(-0.0066223 0.0037461 0)
(-0.0072621 0.00374314 0)
(-0.00789967 0.00372465 0)
(-0.00853276 0.00369329 0)
(-0.00915946 0.00365123 0)
(-0.00977813 0.00360024 0)
(-0.0103874 0.0035417 0)
(-0.010986 0.0034767 0)
(-0.011573 0.00340607 0)
(-0.0121474 0.00333044 0)
(-0.0127083 0.00325027 0)
(-0.013255 0.00316594 0)
(-0.0137867 0.0030777 0)
(-0.0143029 0.00298577 0)
(-0.0148028 0.00289032 0)
(-0.0152858 0.00279148 0)
(-0.0157515 0.00268936 0)
(-0.0161992 0.00258409 0)
(-0.0166284 0.00247574 0)
(-0.0170385 0.00236441 0)
(-0.0174292 0.00225021 0)
(-0.0177999 0.00213322 0)
(-0.0181502 0.00201353 0)
(-0.0184796 0.00189125 0)
(-0.0187878 0.00176648 0)
(-0.0190743 0.0016393 0)
(-0.0193387 0.00150984 0)
(-0.0195808 0.0013782 0)
(-0.0198 0.0012445 0)
(-0.0199962 0.00110883 0)
(-0.0201691 0.000971335 0)
(-0.0203183 0.000832124 0)
(-0.0204436 0.000691325 0)
(-0.0205447 0.000549069 0)
(-0.0206215 0.000405489 0)
(-0.0206737 0.000260724 0)
(-0.0207013 0.000114915 0)
(-0.0207039 -3.17898e-05 0)
(-0.0206816 -0.00017924 0)
(-0.0206343 -0.00032728 0)
(-0.0205618 -0.000475746 0)
(-0.0204641 -0.000624472 0)
(-0.0203412 -0.000773287 0)
(-0.0201932 -0.000922015 0)
(-0.0200201 -0.00107047 0)
(-0.019822 -0.00121848 0)
(-0.0195989 -0.00136583 0)
(-0.0193511 -0.00151234 0)
(-0.0190786 -0.00165781 0)
(-0.0187818 -0.00180202 0)
(-0.0184607 -0.00194477 0)
(-0.0181159 -0.00208584 0)
(-0.0177474 -0.00222502 0)
(-0.0173557 -0.00236207 0)
(-0.0169413 -0.00249678 0)
(-0.0165044 -0.0026289 0)
(-0.0160455 -0.00275818 0)
(-0.0155653 -0.00288436 0)
(-0.0150642 -0.00300716 0)
(-0.0145429 -0.00312627 0)
(-0.014002 -0.00324135 0)
(-0.0134422 -0.00335198 0)
(-0.0128645 -0.0034577 0)
(-0.0122696 -0.00355791 0)
(-0.0116586 -0.00365193 0)
(-0.0110326 -0.00373887 0)
(-0.0103929 -0.00381763 0)
(-0.00974103 -0.00388687 0)
(-0.00907861 -0.00394492 0)
(-0.00840766 -0.00398974 0)
(-0.00773047 -0.00401886 0)
(-0.00704974 -0.00402936 0)
(-0.0063686 -0.00401786 0)
(-0.0056907 -0.0039805 0)
(-0.00502024 -0.003913 0)
(-0.00436204 -0.0038108 0)
(-0.00372157 -0.00366922 0)
(-0.00310501 -0.00348369 0)
(-0.00251918 -0.00325015 0)
(-0.00197164 -0.00296543 0)
(-0.00147061 -0.00262781 0)
(-0.00102507 -0.00223762 0)
(-0.000644354 -0.00179788 0)
(-0.000337998 -0.00131491 0)
(-0.000120983 -0.000798922 0)
(-1.86773e-05 -0.000265315 0)
(-1.87257e-05 0.000303434 0)
(-0.000121191 0.000902103 0)
(-0.000338339 0.00147207 0)
(-0.000644274 0.00199946 0)
(-0.00102344 0.00247561 0)
(-0.00146582 0.00289533 0)
(-0.00196177 0.00325657 0)
(-0.00250223 0.00355994 0)
(-0.00307899 0.00380807 0)
(-0.0036847 0.00400498 0)
(-0.00431279 0.00415559 0)
(-0.00495748 0.00426522 0)
(-0.00561371 0.00433922 0)
(-0.00627711 0.0043827 0)
(-0.00694391 0.00440036 0)
(-0.0076109 0.00439638 0)
(-0.00827537 0.00437438 0)
(-0.00893501 0.00433739 0)
(-0.00958788 0.00428791 0)
(-0.0102323 0.00422797 0)
(-0.0108669 0.00415917 0)
(-0.0114903 0.00408276 0)
(-0.0121015 0.00399969 0)
(-0.0126996 0.00391072 0)
(-0.0132836 0.00381638 0)
(-0.0138528 0.00371712 0)
(-0.0144064 0.00361325 0)
(-0.0149436 0.00350502 0)
(-0.015464 0.00339263 0)
(-0.0159667 0.00327626 0)
(-0.0164513 0.00315604 0)
(-0.0169171 0.0030321 0)
(-0.0173636 0.00290456 0)
(-0.0177903 0.00277353 0)
(-0.0181966 0.00263914 0)
(-0.0185822 0.00250148 0)
(-0.0189464 0.00236068 0)
(-0.0192889 0.00221685 0)
(-0.0196092 0.00207011 0)
(-0.019907 0.00192058 0)
(-0.0201817 0.00176839 0)
(-0.0204332 0.00161366 0)
(-0.0206609 0.00145653 0)
(-0.0208646 0.00129713 0)
(-0.021044 0.0011356 0)
(-0.0211987 0.000972078 0)
(-0.0213286 0.000806722 0)
(-0.0214333 0.000639682 0)
(-0.0215127 0.000471114 0)
(-0.0215666 0.000301179 0)
(-0.0215947 0.000130045 0)
(-0.021597 -4.21174e-05 0)
(-0.0215733 -0.00021513 0)
(-0.0215236 -0.000388811 0)
(-0.0214477 -0.000562969 0)
(-0.0213456 -0.000737411 0)
(-0.0212174 -0.000911937 0)
(-0.021063 -0.00108634 0)
(-0.0208824 -0.00126041 0)
(-0.0206759 -0.00143393 0)