/*--------------------------------*- C++ -*----------------------------------*\
  =========                 |
  \\      /  F ield         | OpenFOAM: The Open Source CFD Toolbox
   \\    /   O peration     | Website:  https://openfoam.org
    \\  /    A nd           | Version:  7
     \\/     M anipulation  |
\*---------------------------------------------------------------------------*/
FoamFile
{
    version     2.0;
    format      ascii;
    class       volScalarField;
    location    "15.9984";
    object      p;
}
// * * * * * * * * * * * * * * * * * * * * * * * * * * * * * * * * * * * * * //

dimensions      [0 2 -2 0 0 0 0];

internalField   nonuniform List<scalar> 
18750
(
-0.0292171
-0.041576
-0.063522
-0.0955633
-0.135612
-0.182462
-0.234556
-0.290597
-0.349353
-0.409857
-0.471232
-0.532701
-0.593502
-0.652928
-0.710358
-0.0339137
-0.0459448
-0.0675873
-0.0993601
-0.139178
-0.18583
-0.237748
-0.293621
-0.352207
-0.412536
-0.473752
-0.53509
-0.595772
-0.655042
-0.712255
-0.0431032
-0.0544969
-0.0755423
-0.106785
-0.146145
-0.192399
-0.243963
-0.299499
-0.357739
-0.417714
-0.478598
-0.53966
-0.6001
-0.659081
-0.715903
-0.056384
-0.066866
-0.0870407
-0.117508
-0.156192
-0.201852
-0.25288
-0.307903
-0.36562
-0.425055
-0.485421
-0.546039
-0.606111
-0.664703
-0.721026
-0.0731887
-0.0825287
-0.101589
-0.131065
-0.168873
-0.21375
-0.264064
-0.3184
-0.375417
-0.434125
-0.49378
-0.553778
-0.613353
-0.671491
-0.727282
-0.0928242
-0.100823
-0.118577
-0.14689
-0.183651
-0.227575
-0.277003
-0.330486
-0.386638
-0.44445
-0.503213
-0.562414
-0.621368
-0.679019
-0.734309
-0.114529
-0.120972
-0.137311
-0.164352
-0.199936
-0.242763
-0.291156
-0.343636
-0.398781
-0.455554
-0.513272
-0.57152
-0.629739
-0.686888
-0.741761
-0.137444
-0.142164
-0.157076
-0.182799
-0.217119
-0.25874
-0.305978
-0.357334
-0.41136
-0.466988
-0.523551
-0.580725
-0.638106
-0.694748
-0.749312
-0.160659
-0.163598
-0.177167
-0.201583
-0.2346
-0.274949
-0.32095
-0.371095
-0.423924
-0.478348
-0.533695
-0.589714
-0.646171
-0.702286
-0.756652
-0.183274
-0.184501
-0.196926
-0.220096
-0.251815
-0.290873
-0.335595
-0.38448
-0.436071
-0.489268
-0.543389
-0.59822
-0.65368
-0.709223
-0.763474
-0.204447
-0.204184
-0.215758
-0.237776
-0.268251
-0.306043
-0.349487
-0.3971
-0.447445
-0.499426
-0.55235
-0.606004
-0.660413
-0.715298
-0.769467
-0.223426
-0.222106
-0.233138
-0.254125
-0.283457
-0.320052
-0.362256
-0.408617
-0.457735
-0.508534
-0.560314
-0.612843
-0.666175
-0.720272
-0.774313
-0.239599
-0.237915
-0.248602
-0.268723
-0.297056
-0.332558
-0.373583
-0.41874
-0.466673
-0.516333
-0.56703
-0.618509
-0.670784
-0.723944
-0.777678
-0.252622
-0.251315
-0.261741
-0.281245
-0.308748
-0.343285
-0.383205
-0.42722
-0.474024
-0.522597
-0.572261
-0.622764
-0.674063
-0.726178
-0.779217
-0.262512
-0.262
-0.272258
-0.291475
-0.318314
-0.352017
-0.390908
-0.433851
-0.479587
-0.527128
-0.575797
-0.625365
-0.675788
-0.726906
-0.778646
-0.269361
-0.269743
-0.280244
-0.299284
-0.32564
-0.358586
-0.396527
-0.438469
-0.483185
-0.529747
-0.577461
-0.626092
-0.675681
-0.726012
-0.776094
-0.273417
-0.2747
-0.285681
-0.304725
-0.330723
-0.362884
-0.399963
-0.440947
-0.484678
-0.530293
-0.577099
-0.624792
-0.673493
-0.723173
-0.771899
-0.275173
-0.27728
-0.288699
-0.307798
-0.33348
-0.364937
-0.401183
-0.441215
-0.483963
-0.528626
-0.57456
-0.621353
-0.669091
-0.718158
-0.765768
-0.275327
-0.277992
-0.289534
-0.308576
-0.333926
-0.36475
-0.400153
-0.439218
-0.480969
-0.524655
-0.569729
-0.615672
-0.662345
-0.710918
-0.757304
-0.274656
-0.27733
-0.288457
-0.307226
-0.332185
-0.362358
-0.396878
-0.434935
-0.475651
-0.518306
-0.562474
-0.607666
-0.653132
-0.701367
-0.746414
-0.273807
-0.27564
-0.285722
-0.303975
-0.328432
-0.357861
-0.391415
-0.428383
-0.467998
-0.509538
-0.552661
-0.597266
-0.641371
-0.689372
-0.733099
-0.273025
-0.272993
-0.281576
-0.299096
-0.322871
-0.351406
-0.383874
-0.419622
-0.458019
-0.498373
-0.540188
-0.584391
-0.627034
-0.674853
-0.717357
-0.272021
-0.26921
-0.276332
-0.2929
-0.315717
-0.343169
-0.374406
-0.408761
-0.445741
-0.484895
-0.525016
-0.568949
-0.610112
-0.657794
-0.699318
-0.270175
-0.264254
-0.270455
-0.285718
-0.30721
-0.333361
-0.363198
-0.395967
-0.431199
-0.469187
-0.507207
-0.550863
-0.590602
-0.638088
-0.679216
-0.267093
-0.258827
-0.264504
-0.277884
-0.297639
-0.322256
-0.350469
-0.381475
-0.414464
-0.451291
-0.486924
-0.530117
-0.568607
-0.615567
-0.656976
-0.262863
-0.254291
-0.258877
-0.26975
-0.287397
-0.310217
-0.336464
-0.365559
-0.395704
-0.431182
-0.464361
-0.506694
-0.544464
-0.590423
-0.632314
-0.258185
-0.251385
-0.25366
-0.261773
-0.277009
-0.297717
-0.321475
-0.348456
-0.375235
-0.408842
-0.439761
-0.480412
-0.518376
-0.563241
-0.605409
-0.253916
-0.249619
-0.248962
-0.254589
-0.267099
-0.285317
-0.305914
-0.330352
-0.353485
-0.384251
-0.413566
-0.451205
-0.490093
-0.534245
-0.576712
-0.25059
-0.248125
-0.245324
-0.248907
-0.258306
-0.273643
-0.290356
-0.311427
-0.330983
-0.35743
-0.386109
-0.419354
-0.459612
-0.502983
-0.547612
-0.248315
-0.246538
-0.243369
-0.245043
-0.251203
-0.263286
-0.275604
-0.291967
-0.308237
-0.328681
-0.357694
-0.38502
-0.428141
-0.467557
-0.518046
-0.246892
-0.245287
-0.24278
-0.242868
-0.246253
-0.254768
-0.26252
-0.27262
-0.285709
-0.29859
-0.328467
-0.349705
-0.396047
-0.429182
-0.484007
-0.246065
-0.24457
-0.242795
-0.242153
-0.24367
-0.248498
-0.251841
-0.254304
-0.263675
-0.268958
-0.297609
-0.316393
-0.363263
-0.394991
-0.450774
-0.245575
-0.24433
-0.243168
-0.242631
-0.24321
-0.244641
-0.243811
-0.238614
-0.242008
-0.24222
-0.264295
-0.285682
-0.327937
-0.364827
-0.423683
-0.24523
-0.244358
-0.243888
-0.243884
-0.244146
-0.242955
-0.238034
-0.226792
-0.221531
-0.21903
-0.231891
-0.257006
-0.293974
-0.336429
-0.397004
-0.244853
-0.244457
-0.244752
-0.245388
-0.245587
-0.242741
-0.234058
-0.218573
-0.204707
-0.19906
-0.205964
-0.231374
-0.266661
-0.313117
-0.367185
-0.244309
-0.244443
-0.245462
-0.246703
-0.246885
-0.243094
-0.231503
-0.212975
-0.192241
-0.182956
-0.18712
-0.21129
-0.245904
-0.29497
-0.343011
-0.243527
-0.244182
-0.245764
-0.247503
-0.247629
-0.243429
-0.229876
-0.209024
-0.183936
-0.171208
-0.174085
-0.197558
-0.231385
-0.279315
-0.32552
-0.242529
-0.243637
-0.245563
-0.247664
-0.248003
-0.243296
-0.229059
-0.206466
-0.179374
-0.164594
-0.166967
-0.189304
-0.222602
-0.266887
-0.311471
-0.241459
-0.242895
-0.244952
-0.24726
-0.247641
-0.243274
-0.229517
-0.206024
-0.178646
-0.163281
-0.165526
-0.186367
-0.218342
-0.257938
-0.299553
-0.240586
-0.242219
-0.244284
-0.246744
-0.247695
-0.244459
-0.232938
-0.209973
-0.182164
-0.167271
-0.169315
-0.187991
-0.217065
-0.251884
-0.289399
-0.240233
-0.24198
-0.244073
-0.246864
-0.248845
-0.24774
-0.239834
-0.218144
-0.190076
-0.175189
-0.176587
-0.192451
-0.217698
-0.247726
-0.280674
-0.240636
-0.24247
-0.244727
-0.248091
-0.251525
-0.253077
-0.248766
-0.227849
-0.200614
-0.185264
-0.185431
-0.198206
-0.2193
-0.244679
-0.273113
-0.241841
-0.243743
-0.24627
-0.250341
-0.255432
-0.259819
-0.255297
-0.237719
-0.211534
-0.195982
-0.194519
-0.204119
-0.22122
-0.242245
-0.266434
-0.243685
-0.245619
-0.248428
-0.253121
-0.259725
-0.266685
-0.260202
-0.244888
-0.221218
-0.205989
-0.202887
-0.20954
-0.222991
-0.240035
-0.260399
-0.245887
-0.24778
-0.250757
-0.255766
-0.263964
-0.270181
-0.264802
-0.249501
-0.228722
-0.214416
-0.210036
-0.214107
-0.22433
-0.237868
-0.254805
-0.248145
-0.249903
-0.25285
-0.257679
-0.267806
-0.270308
-0.267109
-0.252305
-0.234053
-0.220914
-0.215669
-0.217641
-0.225093
-0.235557
-0.249503
-0.250218
-0.251742
-0.254377
-0.258889
-0.269349
-0.270153
-0.266758
-0.253322
-0.237369
-0.225451
-0.219739
-0.220092
-0.225194
-0.233052
-0.244378
-0.251964
-0.253173
-0.255045
-0.26005
-0.266061
-0.269666
-0.265145
-0.252989
-0.239053
-0.228281
-0.222347
-0.221475
-0.224635
-0.230283
-0.239329
-0.253318
-0.25405
-0.255028
-0.260704
-0.260869
-0.267131
-0.262581
-0.251674
-0.239443
-0.22966
-0.223655
-0.221867
-0.223415
-0.227234
-0.234302
-0.25435
-0.254517
-0.254726
-0.259625
-0.258206
-0.263171
-0.259258
-0.249691
-0.238874
-0.2299
-0.223877
-0.221365
-0.221591
-0.2239
-0.229223
-0.255197
-0.25465
-0.255133
-0.255524
-0.258067
-0.259689
-0.255668
-0.247233
-0.237571
-0.229225
-0.223187
-0.220087
-0.219207
-0.220269
-0.224066
-0.256011
-0.254536
-0.256654
-0.249487
-0.256814
-0.256786
-0.252224
-0.244511
-0.235718
-0.227836
-0.221762
-0.218141
-0.216333
-0.216359
-0.218786
-0.256828
-0.254652
-0.25785
-0.247438
-0.254186
-0.25392
-0.249077
-0.241704
-0.233461
-0.225873
-0.219719
-0.215629
-0.213026
-0.212166
-0.213366
-0.25766
-0.256145
-0.256814
-0.251191
-0.252736
-0.251208
-0.246093
-0.238853
-0.230903
-0.223453
-0.217172
-0.212635
-0.209343
-0.207715
-0.207795
-0.258664
-0.25929
-0.253657
-0.255635
-0.252971
-0.249051
-0.243285
-0.23598
-0.228117
-0.220663
-0.214195
-0.209227
-0.205325
-0.203011
-0.202072
-0.259906
-0.263575
-0.250118
-0.256901
-0.253273
-0.247486
-0.24074
-0.233107
-0.225141
-0.217559
-0.210854
-0.205458
-0.201005
-0.198074
-0.196216
-0.261643
-0.267309
-0.250803
-0.255932
-0.252803
-0.246137
-0.238443
-0.230269
-0.222016
-0.21419
-0.207188
-0.201364
-0.196407
-0.19291
-0.190237
-0.264272
-0.269228
-0.25696
-0.255979
-0.251868
-0.244684
-0.236238
-0.227437
-0.218753
-0.210579
-0.203229
-0.196975
-0.191548
-0.187537
-0.18416
-0.26814
-0.26908
-0.265295
-0.25839
-0.251339
-0.243122
-0.233971
-0.224544
-0.215345
-0.206743
-0.198998
-0.192307
-0.186443
-0.181963
-0.17799
-0.273633
-0.267688
-0.271954
-0.262058
-0.251654
-0.241673
-0.2316
-0.221506
-0.211753
-0.202674
-0.1945
-0.187372
-0.181098
-0.176198
-0.171734
-0.281111
-0.267274
-0.276004
-0.265602
-0.252555
-0.240468
-0.229154
-0.218281
-0.207935
-0.198355
-0.189735
-0.182175
-0.175518
-0.170245
-0.165373
-0.290138
-0.271481
-0.278399
-0.26827
-0.253479
-0.2394
-0.226646
-0.214849
-0.203855
-0.193757
-0.184689
-0.176711
-0.169701
-0.164097
-0.158881
-0.300105
-0.281052
-0.280882
-0.269879
-0.253912
-0.238198
-0.224007
-0.211192
-0.199492
-0.18886
-0.179349
-0.170972
-0.163639
-0.157738
-0.152221
-0.309719
-0.293803
-0.284548
-0.270707
-0.25357
-0.236577
-0.221111
-0.20727
-0.194826
-0.183645
-0.173696
-0.164944
-0.157316
-0.151153
-0.145374
-0.317446
-0.305791
-0.289092
-0.271134
-0.252426
-0.234348
-0.217814
-0.203022
-0.189835
-0.178098
-0.167717
-0.158607
-0.15071
-0.144322
-0.138334
-0.322178
-0.31441
-0.293005
-0.271214
-0.250603
-0.231458
-0.214016
-0.19838
-0.184487
-0.172202
-0.161395
-0.151942
-0.143795
-0.137219
-0.131094
-0.323824
-0.31916
-0.29535
-0.270717
-0.24821
-0.227945
-0.209669
-0.193289
-0.178748
-0.16594
-0.154719
-0.144933
-0.136547
-0.129812
-0.123627
-0.323579
-0.320764
-0.295948
-0.269424
-0.245263
-0.223858
-0.204768
-0.187713
-0.172586
-0.159292
-0.147677
-0.13757
-0.128951
-0.122071
-0.115863
-0.322705
-0.320324
-0.294987
-0.267226
-0.24172
-0.219219
-0.199321
-0.18163
-0.165973
-0.152236
-0.140256
-0.12985
-0.121016
-0.113989
-0.107677
-0.322053
-0.318796
-0.292791
-0.264121
-0.237525
-0.214015
-0.193327
-0.175031
-0.158888
-0.144751
-0.132439
-0.121772
-0.112765
-0.105606
-0.0989216
-0.321975
-0.316732
-0.28964
-0.260151
-0.232632
-0.208215
-0.186774
-0.167901
-0.151311
-0.136817
-0.124214
-0.113333
-0.104224
-0.0970056
-0.0895155
-0.322431
-0.31439
-0.285742
-0.25537
-0.227012
-0.201777
-0.179637
-0.160224
-0.143228
-0.12842
-0.115572
-0.104535
-0.095406
-0.0882281
-0.079569
-0.323128
-0.311847
-0.281209
-0.249809
-0.220635
-0.194656
-0.171879
-0.151976
-0.134623
-0.119557
-0.10652
-0.0953913
-0.0863197
-0.0791579
-0.0694467
-0.323634
-0.309052
-0.276069
-0.243471
-0.213467
-0.186804
-0.163462
-0.143134
-0.12549
-0.110233
-0.0970739
-0.0859309
-0.0769835
-0.0695271
-0.0594834
-0.323503
-0.305785
-0.270257
-0.236322
-0.205468
-0.178177
-0.154351
-0.133682
-0.11583
-0.100459
-0.0872525
-0.076187
-0.0673475
-0.0594176
-0.0496046
-0.322386
-0.301624
-0.263628
-0.228302
-0.196595
-0.168744
-0.144531
-0.123618
-0.105657
-0.0902413
-0.0770611
-0.0661318
-0.0573393
-0.0490009
-0.0396955
-0.319944
-0.29623
-0.256004
-0.21933
-0.186812
-0.158486
-0.134004
-0.11296
-0.0949777
-0.079561
-0.0664886
-0.0557333
-0.0469411
-0.038393
-0.0296802
-0.315907
-0.28937
-0.247218
-0.209328
-0.176091
-0.147414
-0.122793
-0.101726
-0.0837433
-0.0684163
-0.0555285
-0.0449738
-0.0361857
-0.0276324
-0.0195319
-0.310065
-0.280885
-0.237126
-0.198224
-0.164429
-0.135552
-0.110899
-0.0898579
-0.0719607
-0.0568136
-0.0441795
-0.0338566
-0.0251297
-0.0167088
-0.00925194
-0.302276
-0.270684
-0.22562
-0.18597
-0.151851
-0.122899
-0.0982695
-0.0773497
-0.0596407
-0.0447624
-0.032447
-0.0223962
-0.0138063
-0.00561175
0.00115191
-0.292459
-0.258755
-0.212618
-0.172553
-0.138362
-0.109392
-0.0848982
-0.0642088
-0.0467954
-0.0322758
-0.0203443
-0.0106105
-0.0022267
0.00566496
0.0116755
-0.280584
-0.245162
-0.198073
-0.158002
-0.123853
-0.0950284
-0.0707961
-0.0504509
-0.0334406
-0.0193703
-0.00788791
0.00148444
0.0096054
0.0171255
0.0223023
-0.266662
-0.22999
-0.182012
-0.142213
-0.108328
-0.0798238
-0.0559841
-0.0360974
-0.019596
-0.00606435
0.00490566
0.0138746
0.0216791
0.0287534
0.0329921
-0.250738
-0.213224
-0.164556
-0.125148
-0.0917992
-0.0638018
-0.0404894
-0.0211749
-0.00528451
0.0076244
0.0180254
0.026549
0.0339654
0.0404825
0.043691
-0.232895
-0.194636
-0.145883
-0.106921
-0.0743004
-0.0469919
-0.0243444
-0.00571437
0.00946836
0.0216807
0.0314667
0.0394989
0.0464167
0.0521891
0.0543053
-0.213265
-0.173909
-0.126219
-0.0876885
-0.0558956
-0.0294316
-0.00758514
0.0102496
0.0246359
0.0360912
0.0452278
0.0527121
0.0589746
0.0637155
0.0645547
-0.191981
-0.151302
-0.105389
-0.0675596
-0.036669
-0.0111715
0.00974695
0.0266802
0.0401904
0.0508416
0.0592991
0.0661582
0.071569
0.0748923
0.0739263
-0.169071
-0.127256
-0.083334
-0.0465832
-0.0167038
0.00772612
0.0276044
0.0435381
0.0561031
0.0659111
0.07365
0.0797733
0.0840996
0.0855773
0.0822353
-0.144462
-0.10227
-0.0601591
-0.0247847
0.00393038
0.0271937
0.0459335
0.0607818
0.0723424
0.081267
0.0882197
0.0934547
0.0964526
0.0958622
0.0904859
-0.118279
-0.0765167
-0.0360356
-0.00221476
0.02517
0.0471623
0.0646762
0.0783661
0.0888706
0.0968625
0.102926
0.107091
0.108582
0.106282
0.100747
-0.0907554
-0.0499871
-0.0111216
0.0210377
0.0469471
0.0675633
0.0837719
0.0962415
0.105641
0.112638
0.117692
0.120629
0.120595
0.117141
0.114858
-0.0621137
-0.0227072
0.0144531
0.0448642
0.0691825
0.0883261
0.103158
0.114353
0.122599
0.128526
0.132463
0.134099
0.132721
0.128722
0.128616
-0.0325544
0.00524321
0.0405733
0.0691529
0.0917888
0.109377
0.122768
0.13264
0.139681
0.144465
0.147209
0.14757
0.145104
0.140979
0.141648
-0.00226338
0.0337461
0.0671253
0.0937935
0.114673
0.130638
0.142535
0.151039
0.156824
0.160403
0.16192
0.161071
0.157688
0.153457
0.154026
0.0285831
0.0626651
0.0939918
0.118677
0.137739
0.152027
0.162385
0.169481
0.173966
0.176298
0.176587
0.174608
0.170432
0.165976
0.165933
0.0598136
0.0918564
0.121052
0.143696
0.160891
0.173461
0.182245
0.1879
0.191049
0.192111
0.191184
0.188121
0.183172
0.178326
0.177527
0.091261
0.121175
0.14818
0.16874
0.184033
0.194855
0.202038
0.206226
0.208018
0.207803
0.205681
0.201578
0.195858
0.190478
0.18884
0.122761
0.150478
0.175254
0.193702
0.207068
0.216123
0.221689
0.224395
0.224818
0.223324
0.220022
0.214889
0.208375
0.202395
0.199909
0.154153
0.179625
0.202149
0.218471
0.2299
0.237179
0.241121
0.24234
0.241392
0.23863
0.234167
0.228022
0.220695
0.214047
0.210701
0.18528
0.208478
0.228742
0.242942
0.252434
0.25794
0.26026
0.259994
0.257683
0.253662
0.24805
0.240898
0.232759
0.225435
0.221214
0.215988
0.236903
0.254916
0.267008
0.274576
0.278321
0.279032
0.277295
0.273635
0.268374
0.261633
0.25349
0.244531
0.236501
0.231406
0.246131
0.264771
0.280555
0.290565
0.296233
0.29824
0.297363
0.294176
0.289186
0.282705
0.274854
0.265741
0.255983
0.247245
0.241258
0.275563
0.291955
0.305545
0.313515
0.317318
0.317619
0.315185
0.310575
0.304286
0.296612
0.287678
0.277614
0.267062
0.257608
0.250736
0.304148
0.318335
0.32978
0.335759
0.337742
0.33638
0.332427
0.326431
0.318872
0.310036
0.300051
0.289072
0.277752
0.267581
0.259816
0.331753
0.343794
0.353154
0.357204
0.357423
0.354449
0.349024
0.341685
0.332898
0.322936
0.311934
0.300068
0.288001
0.27712
0.26847
0.358253
0.368223
0.375569
0.377762
0.376282
0.371754
0.364911
0.356277
0.346306
0.335263
0.323288
0.310578
0.29779
0.286201
0.276675
0.383527
0.391515
0.396931
0.397348
0.394241
0.388227
0.380028
0.370156
0.359052
0.346973
0.334069
0.320554
0.307077
0.294797
0.28441
0.407462
0.413572
0.41715
0.415882
0.41123
0.403804
0.394316
0.383267
0.371087
0.358028
0.344247
0.329973
0.315835
0.302879
0.291653
0.429954
0.434301
0.436144
0.433289
0.427181
0.418425
0.407721
0.395563
0.382368
0.368385
0.353781
0.338798
0.324037
0.310427
0.298387
0.450903
0.453615
0.453834
0.449499
0.44203
0.432031
0.420193
0.406999
0.392856
0.378012
0.362643
0.347
0.331652
0.317415
0.304596
0.470219
0.471435
0.47015
0.464447
0.455721
0.444573
0.431685
0.417531
0.402511
0.386873
0.3708
0.354552
0.338657
0.323825
0.310266
0.487815
0.48769
0.485028
0.478075
0.468199
0.456001
0.442153
0.427122
0.411301
0.394937
0.378225
0.361427
0.34503
0.329638
0.315385
0.503617
0.502319
0.498409
0.490329
0.479417
0.46627
0.451558
0.435736
0.419193
0.402177
0.384893
0.367602
0.350748
0.334838
0.319943
0.51756
0.515262
0.510243
0.501161
0.489329
0.475344
0.459864
0.443343
0.42616
0.408568
0.39078
0.373055
0.355793
0.33941
0.323932
0.529603
0.52646
0.520479
0.510527
0.497899
0.483185
0.467042
0.449913
0.432177
0.414087
0.395866
0.377768
0.360148
0.343344
0.327347
0.539715
0.535856
0.529072
0.518389
0.505091
0.489766
0.473064
0.455425
0.437223
0.418715
0.400132
0.381722
0.363799
0.346629
0.330187
0.547857
0.543412
0.535987
0.524715
0.510877
0.49506
0.477909
0.459858
0.441281
0.422437
0.403564
0.384904
0.366732
0.34926
0.332451
0.553994
0.549102
0.541197
0.529481
0.515237
0.499048
0.481557
0.463197
0.444336
0.42524
0.406149
0.387301
0.368939
0.351232
0.334144
0.558101
0.552907
0.54468
0.532669
0.518153
0.501715
0.483997
0.465429
0.446379
0.427114
0.407878
0.388904
0.370414
0.352546
0.335269
0.560159
0.554812
0.546425
0.534265
0.519613
0.503051
0.485219
0.466546
0.447402
0.428052
0.408744
0.389707
0.371152
0.353202
0.335829
0.560158
0.554812
0.546425
0.534265
0.519613
0.503051
0.485219
0.466546
0.447402
0.428052
0.408744
0.389706
0.371152
0.353202
0.335829
0.5581
0.552906
0.544679
0.532668
0.518152
0.501714
0.483996
0.465428
0.446378
0.427113
0.407878
0.388903
0.370413
0.352545
0.335268
0.553992
0.5491
0.541195
0.52948
0.515236
0.499047
0.481556
0.463195
0.444335
0.425239
0.406149
0.3873
0.368938
0.351231
0.334143
0.547854
0.543409
0.535985
0.524713
0.510875
0.495058
0.477907
0.459857
0.441279
0.422436
0.403563
0.384903
0.366731
0.349259
0.33245
0.539711
0.535852
0.529069
0.518386
0.505088
0.489763
0.473062
0.455423
0.437221
0.418714
0.400131
0.381721
0.363797
0.346628
0.330185
0.529599
0.526456
0.520475
0.510524
0.497895
0.483182
0.467039
0.449911
0.432175
0.414085
0.395864
0.377766
0.360146
0.343342
0.327346
0.517554
0.515257
0.510238
0.501157
0.489326
0.47534
0.459861
0.44334
0.426157
0.408565
0.390778
0.373053
0.355791
0.339409
0.32393
0.50361
0.502313
0.498404
0.490325
0.479412
0.466266
0.451554
0.435733
0.41919
0.402174
0.384891
0.367599
0.350746
0.334836
0.319941
0.487808
0.487684
0.485022
0.47807
0.468194
0.455996
0.442149
0.427118
0.411298
0.394934
0.378222
0.361424
0.345027
0.329636
0.315383
0.470211
0.471428
0.470144
0.464441
0.455716
0.444568
0.43168
0.417527
0.402508
0.386869
0.370797
0.354548
0.338655
0.323822
0.310264
0.450895
0.453607
0.453827
0.449492
0.442024
0.432026
0.420188
0.406994
0.392852
0.378008
0.362639
0.346996
0.331649
0.317412
0.304594
0.429945
0.434292
0.436136
0.433282
0.427174
0.418419
0.407716
0.395558
0.382364
0.368381
0.353777
0.338794
0.324033
0.310424
0.298384
0.407452
0.413563
0.417142
0.415875
0.411223
0.403798
0.39431
0.383262
0.371082
0.358024
0.344243
0.329969
0.315831
0.302876
0.29165
0.383516
0.391505
0.396922
0.39734
0.394234
0.38822
0.380021
0.37015
0.359046
0.346968
0.334064
0.32055
0.307073
0.294793
0.284406
0.358241
0.368212
0.375559
0.377753
0.376273
0.371746
0.364904
0.356271
0.3463
0.335257
0.323283
0.310573
0.297785
0.286197
0.276672
0.331741
0.343783
0.353144
0.357195
0.357415
0.354441
0.349017
0.341678
0.332892
0.322931
0.311928
0.300063
0.287997
0.277115
0.268466
0.304135
0.318323
0.329769
0.335749
0.337733
0.336372
0.332419
0.326424
0.318866
0.31003
0.300045
0.289067
0.277748
0.267576
0.259811
0.275549
0.291942
0.305534
0.313504
0.317308
0.31761
0.315177
0.310568
0.304279
0.296606
0.287672
0.277608
0.267057
0.257603
0.250732
0.246116
0.264758
0.280543
0.290554
0.296223
0.298231
0.297355
0.294168
0.289179
0.282698
0.274848
0.265736
0.255978
0.24724
0.241253
0.215973
0.236889
0.254904
0.266996
0.274565
0.278311
0.279023
0.277286
0.273627
0.268367
0.261627
0.253484
0.244526
0.236496
0.231401
0.185264
0.208464
0.228729
0.24293
0.252423
0.25793
0.260251
0.259986
0.257675
0.253655
0.248043
0.240892
0.232753
0.22543
0.221209
0.154137
0.17961
0.202135
0.218459
0.229889
0.237169
0.241112
0.242331
0.241384
0.238622
0.23416
0.228015
0.220689
0.214042
0.210696
0.122744
0.150463
0.17524
0.193689
0.207056
0.216112
0.221679
0.224386
0.224809
0.223316
0.220014
0.214882
0.208368
0.202389
0.199903
0.0912436
0.121159
0.148166
0.168727
0.184021
0.194844
0.202028
0.206217
0.20801
0.207794
0.205673
0.201571
0.195851
0.190471
0.188834
0.0597957
0.09184
0.121037
0.143682
0.160879
0.17345
0.182234
0.18789
0.19104
0.192103
0.191176
0.188114
0.183165
0.17832
0.177521
0.0285646
0.0626483
0.0939764
0.118663
0.137726
0.152015
0.162374
0.169471
0.173956
0.17629
0.176579
0.1746
0.170425
0.165969
0.165927
-0.00228225
0.0337288
0.0671095
0.0937791
0.114659
0.130625
0.142524
0.151028
0.156814
0.160395
0.161911
0.161063
0.157681
0.15345
0.15402
-0.0325736
0.00522558
0.0405571
0.0691382
0.0917753
0.109364
0.122757
0.13263
0.139671
0.144456
0.1472
0.147562
0.145097
0.140972
0.141642
-0.0621333
-0.0227252
0.0144367
0.0448492
0.0691687
0.0883134
0.103146
0.114342
0.122589
0.128517
0.132454
0.134091
0.132713
0.128714
0.128609
-0.0907753
-0.0500054
-0.0111384
0.0210223
0.046933
0.0675503
0.08376
0.0962304
0.105631
0.112628
0.117683
0.120621
0.120588
0.117133
0.114851
-0.118299
-0.0765352
-0.0360526
-0.00223032
0.0251557
0.0471491
0.064664
0.0783548
0.0888601
0.0968527
0.102917
0.107083
0.108574
0.106274
0.100739
-0.144482
-0.102289
-0.0601763
-0.0248004
0.00391587
0.0271803
0.0459211
0.0607703
0.0723317
0.0812571
0.0882104
0.093446
0.0964444
0.0958544
0.0904781
-0.169091
-0.127275
-0.0833515
-0.0465992
-0.0167185
0.00771253
0.0275918
0.0435264
0.0560923
0.0659009
0.0736405
0.0797644
0.0840913
0.0855693
0.0822275
-0.192001
-0.151321
-0.105407
-0.0675757
-0.0366839
-0.0111853
0.0097342
0.0266683
0.0401793
0.0508313
0.0592895
0.0661492
0.0715604
0.0748842
0.0739185
-0.213285
-0.173928
-0.126237
-0.0877048
-0.0559106
-0.0294455
-0.00759805
0.0102376
0.0246247
0.0360807
0.045218
0.0527029
0.058966
0.0637073
0.0645469
-0.232915
-0.194655
-0.145901
-0.106937
-0.0743155
-0.0470059
-0.0243574
-0.00572652
0.00945701
0.02167
0.0314567
0.0394895
0.0464079
0.0521808
0.0542974
-0.250758
-0.213243
-0.164574
-0.125164
-0.0918145
-0.063816
-0.0405026
-0.0211872
-0.00529598
0.00761365
0.0180153
0.0265395
0.0339565
0.0404742
0.043683
-0.266683
-0.230009
-0.18203
-0.14223
-0.108344
-0.0798381
-0.0559973
-0.0361098
-0.0196076
-0.00607522
0.00489545
0.013865
0.0216701
0.0287449
0.0329841
-0.280604
-0.245182
-0.19809
-0.158019
-0.123868
-0.0950428
-0.0708095
-0.0504634
-0.0334523
-0.0193813
-0.00789823
0.00147473
0.00959626
0.0171169
0.0222942
-0.292479
-0.258774
-0.212636
-0.172569
-0.138377
-0.109406
-0.0849116
-0.0642214
-0.0468072
-0.0322868
-0.0203547
-0.0106203
-0.00223595
0.00565624
0.0116672
-0.302296
-0.270703
-0.225638
-0.185987
-0.151867
-0.122913
-0.098283
-0.0773623
-0.0596526
-0.0447735
-0.0324575
-0.0224062
-0.0138157
-0.00562059
0.00114357
-0.310085
-0.280904
-0.237144
-0.198241
-0.164445
-0.135566
-0.110913
-0.0898706
-0.0719727
-0.0568248
-0.0441901
-0.0338667
-0.0251392
-0.0167177
-0.00926037
-0.315927
-0.289389
-0.247236
-0.209344
-0.176107
-0.147428
-0.122807
-0.101738
-0.0837553
-0.0684276
-0.0555392
-0.0449839
-0.0361952
-0.0276414
-0.0195404
-0.319963
-0.296248
-0.256022
-0.219347
-0.186828
-0.158501
-0.134018
-0.112973
-0.0949898
-0.0795724
-0.0664994
-0.0557434
-0.0469507
-0.0384022
-0.0296888
-0.322405
-0.301642
-0.263645
-0.228318
-0.196611
-0.168758
-0.144544
-0.123631
-0.105669
-0.0902527
-0.0770719
-0.0661421
-0.057349
-0.0490102
-0.0397042
-0.323522
-0.305803
-0.270274
-0.236339
-0.205483
-0.178192
-0.154365
-0.133695
-0.115842
-0.10047
-0.0872634
-0.0761973
-0.0673573
-0.0594269
-0.0496134
-0.323653
-0.30907
-0.276086
-0.243487
-0.213482
-0.186818
-0.163475
-0.143147
-0.125502
-0.110244
-0.0970849
-0.0859413
-0.0769933
-0.0695364
-0.0594923
-0.323146
-0.311864
-0.281226
-0.249825
-0.22065
-0.19467
-0.171893
-0.151989
-0.134635
-0.119569
-0.106531
-0.0954018
-0.0863296
-0.0791673
-0.0694557
-0.322448
-0.314408
-0.285759
-0.255386
-0.227027
-0.201792
-0.179651
-0.160237
-0.14324
-0.128432
-0.115583
-0.104545
-0.095416
-0.0882376
-0.079578
-0.321992
-0.316749
-0.289657
-0.260167
-0.232647
-0.208229
-0.186788
-0.167914
-0.151323
-0.136828
-0.124225
-0.113344
-0.104234
-0.0970152
-0.0895246
-0.322071
-0.318813
-0.292807
-0.264137
-0.23754
-0.21403
-0.193341
-0.175044
-0.1589
-0.144763
-0.13245
-0.121782
-0.112775
-0.105616
-0.0989308
-0.322722
-0.320342
-0.295004
-0.267242
-0.241736
-0.219233
-0.199334
-0.181644
-0.165985
-0.152248
-0.140267
-0.129861
-0.121026
-0.113999
-0.107686
-0.323597
-0.320782
-0.295965
-0.26944
-0.245279
-0.223872
-0.204782
-0.187726
-0.172598
-0.159304
-0.147688
-0.137581
-0.128961
-0.122081
-0.115872
-0.323841
-0.319178
-0.295367
-0.270733
-0.248225
-0.227959
-0.209683
-0.193303
-0.17876
-0.165952
-0.154731
-0.144944
-0.136557
-0.129822
-0.123636
-0.322196
-0.314427
-0.293022
-0.27123
-0.250618
-0.231473
-0.21403
-0.198393
-0.184499
-0.172213
-0.161406
-0.151953
-0.143806
-0.137228
-0.131103
-0.317464
-0.305808
-0.289109
-0.27115
-0.252441
-0.234363
-0.217828
-0.203035
-0.189847
-0.17811
-0.167728
-0.158618
-0.150721
-0.144331
-0.138343
-0.309736
-0.29382
-0.284564
-0.270723
-0.253585
-0.236592
-0.221125
-0.207283
-0.194839
-0.183657
-0.173707
-0.164955
-0.157326
-0.151163
-0.145383
-0.300122
-0.281068
-0.280898
-0.269894
-0.253927
-0.238213
-0.224021
-0.211205
-0.199505
-0.188872
-0.17936
-0.170983
-0.163649
-0.157748
-0.15223
-0.290154
-0.271497
-0.278415
-0.268286
-0.253494
-0.239415
-0.22666
-0.214862
-0.203868
-0.193769
-0.1847
-0.176722
-0.169711
-0.164106
-0.15889
-0.281127
-0.267289
-0.27602
-0.265617
-0.25257
-0.240482
-0.229167
-0.218294
-0.207948
-0.198367
-0.189746
-0.182185
-0.175529
-0.170255
-0.165382
-0.273648
-0.267704
-0.27197
-0.262073
-0.251669
-0.241688
-0.231614
-0.22152
-0.211766
-0.202686
-0.194511
-0.187383
-0.181109
-0.176208
-0.171743
-0.268155
-0.269096
-0.265311
-0.258406
-0.251354
-0.243136
-0.233985
-0.224557
-0.215358
-0.206755
-0.199009
-0.192318
-0.186454
-0.181973
-0.177999
-0.264287
-0.269244
-0.256975
-0.255994
-0.251883
-0.244698
-0.236252
-0.227451
-0.218765
-0.210591
-0.203241
-0.196986
-0.191559
-0.187546
-0.184169
-0.261658
-0.267324
-0.250818
-0.255947
-0.252817
-0.246152
-0.238457
-0.230282
-0.222029
-0.214202
-0.207199
-0.201375
-0.196417
-0.19292
-0.190246
-0.259921
-0.263591
-0.250132
-0.256916
-0.253288
-0.247501
-0.240754
-0.23312
-0.225154
-0.217571
-0.210865
-0.205469
-0.201015
-0.198084
-0.196224
-0.258679
-0.259305
-0.253671
-0.25565
-0.252985
-0.249065
-0.243299
-0.235994
-0.228131
-0.220675
-0.214207
-0.209238
-0.205335
-0.203021
-0.202081
-0.257675
-0.25616
-0.256829
-0.251205
-0.25275
-0.251222
-0.246107
-0.238867
-0.230917
-0.223466
-0.217184
-0.212646
-0.209353
-0.207725
-0.207803
-0.256842
-0.254666
-0.257864
-0.247452
-0.2542
-0.253934
-0.249092
-0.241718
-0.233475
-0.225886
-0.21973
-0.21564
-0.213036
-0.212175
-0.213374
-0.256026
-0.254551
-0.256668
-0.2495
-0.256828
-0.2568
-0.252239
-0.244525
-0.235732
-0.227849
-0.221773
-0.218152
-0.216342
-0.216368
-0.218794
-0.255212
-0.254665
-0.255148
-0.255538
-0.258081
-0.259704
-0.255683
-0.247248
-0.237585
-0.229238
-0.223199
-0.220098
-0.219216
-0.220278
-0.224074
-0.254365
-0.254532
-0.25474
-0.25964
-0.25822
-0.263186
-0.259274
-0.249707
-0.238889
-0.229914
-0.223889
-0.221376
-0.2216
-0.223908
-0.229231
-0.253333
-0.254065
-0.255043
-0.260719
-0.260883
-0.267147
-0.262597
-0.25169
-0.239458
-0.229674
-0.223667
-0.221877
-0.223424
-0.227242
-0.234309
-0.251978
-0.253188
-0.255059
-0.260065
-0.266076
-0.269683
-0.265162
-0.253007
-0.239069
-0.228294
-0.222358
-0.221485
-0.224644
-0.23029
-0.239336
-0.250232
-0.251757
-0.254392
-0.258905
-0.269364
-0.270171
-0.266776
-0.253341
-0.237385
-0.225465
-0.219751
-0.220101
-0.225202
-0.233059
-0.244384
-0.248159
-0.249917
-0.252865
-0.257694
-0.267823
-0.270326
-0.267129
-0.252324
-0.23407
-0.220928
-0.21568
-0.21765
-0.2251
-0.235564
-0.249509
-0.245901
-0.247794
-0.250772
-0.255782
-0.263981
-0.2702
-0.264823
-0.249522
-0.228739
-0.21443
-0.210047
-0.214115
-0.224336
-0.237873
-0.25481
-0.243699
-0.245633
-0.248443
-0.253136
-0.259743
-0.266705
-0.260224
-0.244909
-0.221235
-0.206002
-0.202896
-0.209547
-0.222996
-0.24004
-0.260404
-0.241854
-0.243757
-0.246285
-0.250356
-0.255449
-0.25984
-0.255319
-0.23774
-0.21155
-0.195994
-0.194527
-0.204124
-0.221224
-0.242248
-0.266438
-0.240649
-0.242483
-0.244741
-0.248106
-0.251542
-0.253097
-0.248788
-0.227869
-0.200629
-0.185274
-0.185438
-0.19821
-0.219302
-0.244681
-0.273115
-0.240245
-0.241993
-0.244087
-0.246879
-0.248861
-0.247759
-0.239855
-0.218163
-0.19009
-0.175197
-0.176591
-0.192452
-0.217698
-0.247727
-0.280676
-0.240599
-0.242232
-0.244298
-0.246759
-0.247711
-0.244477
-0.232957
-0.20999
-0.182175
-0.167276
-0.169316
-0.18799
-0.217062
-0.251882
-0.289399
-0.241472
-0.242908
-0.244966
-0.247275
-0.247657
-0.243292
-0.229535