/*--------------------------------*- C++ -*----------------------------------*\
  =========                 |
  \\      /  F ield         | OpenFOAM: The Open Source CFD Toolbox
   \\    /   O peration     | Website:  https://openfoam.org
    \\  /    A nd           | Version:  7
     \\/     M anipulation  |
\*---------------------------------------------------------------------------*/
FoamFile
{
    version     2.0;
    format      ascii;
    class       surfaceScalarField;
    location    "15.9984";
    object      phi;
}
// * * * * * * * * * * * * * * * * * * * * * * * * * * * * * * * * * * * * * //

dimensions      [0 3 -1 0 0 0 0];

internalField   nonuniform List<scalar> 
37105
(
-1.26529e-05
1.26414e-05
1.14771e-08
-2.91886e-05
1.65198e-05
1.58953e-08
-4.62157e-05
1.70099e-05
1.72228e-08
-6.39009e-05
1.76666e-05
1.86033e-08
-8.22607e-05
1.83398e-05
1.99621e-08
-0.0001013
1.90182e-05
2.13118e-08
-0.000121011
1.96883e-05
2.26593e-08
-0.00014138
2.0345e-05
2.40014e-08
-0.000162416
2.10101e-05
2.53452e-08
-0.000184151
2.17091e-05
2.66832e-08
-0.000206654
2.24751e-05
2.80076e-08
-0.000229994
2.33105e-05
2.92709e-08
-0.000254235
2.42103e-05
3.04168e-08
-0.000279442
2.51761e-05
3.13952e-08
2.62782e-05
3.21711e-08
-0.000305753
-1.24505e-05
2.50919e-05
-2.87909e-05
3.28602e-05
-4.56234e-05
3.38424e-05
-6.30929e-05
3.5136e-05
-8.12108e-05
3.64577e-05
-9.9973e-05
3.77804e-05
-0.000119362
3.90778e-05
-0.000139356
4.03387e-05
-0.000159951
4.16053e-05
-0.000181169
4.29271e-05
-0.000203066
4.43713e-05
-0.000225704
4.59492e-05
-0.000249149
4.76551e-05
-0.000273458
4.94852e-05
5.15564e-05
-0.000298736
-1.20498e-05
3.71418e-05
-2.80044e-05
4.88148e-05
-4.44535e-05
5.02915e-05
-6.15005e-05
5.21831e-05
-7.91482e-05
5.41054e-05
-9.73752e-05
5.60075e-05
-0.000116149
5.78517e-05
-0.000135431
5.96201e-05
-0.000155199
6.13735e-05
-0.000175454
6.31827e-05
-0.000196236
6.51525e-05
-0.0002176
6.73139e-05
-0.000239615
6.96698e-05
-0.000262328
7.21984e-05
7.50202e-05
-0.000285792
-1.14599e-05
4.86016e-05
-2.68464e-05
6.42013e-05
-4.27335e-05
6.61786e-05
-5.91684e-05
6.86181e-05
-7.61419e-05
7.10788e-05
-9.36102e-05
7.34758e-05
-0.000111522
7.57633e-05
-0.000129818
7.79166e-05
-0.000148459
8.00144e-05
-0.000167424
8.21476e-05
-0.000186735
8.44634e-05
-0.000206447
8.70258e-05
-0.000226637
8.98597e-05
-0.000247352
9.29139e-05
9.62688e-05
-0.000268601
-1.06977e-05
5.92994e-05
-2.53401e-05
7.88437e-05
-4.05004e-05
8.13389e-05
-5.61564e-05
8.42741e-05
-7.22826e-05
8.72049e-05
-8.88105e-05
9.00038e-05
-0.000105668
9.26212e-05
-0.00012278
9.50285e-05
-0.000140089
9.73234e-05
-0.000157559
9.96175e-05
-0.000175201
0.000102105
-0.000193073
0.000104897
-0.000211269
0.000108057
-0.000229856
0.0001115
0.000115231
-0.000248818
-9.80151e-06
6.91009e-05
-2.35115e-05
9.25537e-05
-3.77971e-05
9.56245e-05
-5.25334e-05
9.90103e-05
-6.76726e-05
0.000102344
-8.31214e-05
0.000105453
-9.87898e-05
0.00010829
-0.000114588
0.000110826
-0.000130448
0.000113183
-0.000146325
0.000115495
-0.000162228
0.000118008
-0.000178219
0.000120889
-0.000194418
0.000124256
-0.000210919
0.000128001
0.000132015
-0.000227703
-8.7289e-06
7.78298e-05
-2.1372e-05
0.000105197
-3.46681e-05
0.000108921
-4.83724e-05
0.000112715
-6.24173e-05
0.000116389
-7.66884e-05
0.000119724
-9.10811e-05
0.000122682
-0.000105495
0.00012524
-0.000119858
0.000127547
-0.000134126
0.000129763
-0.000148306
0.000132188
-0.000162469
0.000135051
-0.000176749
0.000138536
-0.000191272
0.000142524
0.000146759
-0.000206016
-7.49234e-06
8.53221e-05
-1.89424e-05
0.000116647
-3.11589e-05
0.000121137
-4.37461e-05
0.000125302
-5.66186e-05
0.000129261
-6.96477e-05
0.000132753
-8.27181e-05
0.000135753
-9.57228e-05
0.000138245
-0.00010859
0.000140414
-0.000121278
0.000142452
-0.000133799
0.000144708
-0.000146218
0.00014747
-0.000158671
0.000150989
-0.000171298
0.000155152
0.000159529
-0.000184069
-6.11155e-06
9.14337e-05
-1.62498e-05
0.000126785
-2.73163e-05
0.000132204
-3.87237e-05
0.000136709
-5.03703e-05
0.000140908
-6.21204e-05
0.000144503
-7.38517e-05
0.000147484
-8.54524e-05
0.000149846
-9.68506e-05
0.000151812
-0.000108011
0.000153612
-0.000118943
0.000155641
-0.000129697
0.000158224
-0.00014038
0.000161672
-0.000151123
0.000165895
0.000170289
-0.000161883
-4.59899e-06
9.60327e-05
-1.33237e-05
0.00013551
-2.31887e-05
0.000142069
-3.33697e-05
0.00014689
-4.37558e-05
0.000151294
-5.42106e-05
0.000154957
-6.46055e-05
0.000157879
-7.48242e-05
0.000160064
-8.47924e-05
0.00016178
-9.44747e-05
0.000163295
-0.000103875
0.000165041
-0.000113013
0.000167362
-0.000121937
0.000170595
-0.000130735
0.000174693
0.000178929
-0.000139375
-2.95761e-06
9.89903e-05
-1.01996e-05
0.000142752
-1.88206e-05
0.00015069
-2.77412e-05
0.000155811
-3.68486e-05
0.000160402
-4.60056e-05
0.000164114
-5.50778e-05
0.000166951
-6.39434e-05
0.00016893
-7.25207e-05
0.000170357
-8.07642e-05
0.000171538
-8.86639e-05
0.000172941
-9.62066e-05
0.000174905
-0.000103354
0.000177742
-0.0001101
0.000181439
0.000185311
-0.000116481
-1.1647e-06
0.000100155
-6.92361e-06
0.000148511
-1.4253e-05
0.000158019
-2.189e-05
0.000163448
-2.97118e-05
0.000168223
-3.75794e-05
0.000171982
-4.53477e-05
0.00017472
-5.28883e-05
0.00017647
-6.01086e-05
0.000177578
-6.6941e-05
0.000178371
-7.33479e-05
0.000179348
-7.92899e-05
0.000180847
-8.46472e-05
0.0001831
-8.92482e-05
0.00018604
0.000189274
-9.32115e-05
6.54961e-07
9.95e-05
-3.55096e-06
0.000152717
-9.51269e-06
0.000163981
-1.58623e-05
0.000169797
-2.24032e-05
0.000174764
-2.89947e-05
0.000178574
-3.54775e-05
0.000181202
-4.17185e-05
0.000182711
-4.76087e-05
0.000183468
-5.30512e-05
0.000183813
-5.79616e-05
0.000184258
-6.22716e-05
0.000185157
-6.58511e-05
0.000186679
-6.83131e-05
0.000188502
0.0001905
-6.95397e-05
2.35229e-06
9.71477e-05
-1.74662e-07
0.000155243
-4.63631e-06
0.000168442
-9.71101e-06
0.000174872
-1.49727e-05
0.000180026
-2.03088e-05
0.00018391
-2.55234e-05
0.000186417
-3.0485e-05
0.000187673
-3.50645e-05
0.000188047
-3.91345e-05
0.000187883
-4.2552e-05
0.000187676
-4.51917e-05
0.000187797
-4.69607e-05
0.000188448
-4.75057e-05
0.000189047
0.000188755
-4.57599e-05
4.17274e-06
9.2975e-05
3.55311e-06
0.000155863
2.95665e-07
0.0001717
-3.48623e-06
0.000178654
-7.47952e-06
0.000184019
-1.15755e-05
0.000188006
-1.55343e-05
0.000190376
-1.92353e-05
0.000191374
-2.25174e-05
0.00019133
-2.52287e-05
0.000190594
-2.71756e-05
0.000189623
-2.81389e-05
0.00018876
-2.79851e-05
0.000188294
-2.66688e-05
0.000187731
0.000184719
-2.26333e-05
6.023e-06
8.6952e-05
7.24294e-06
0.000154643
5.48004e-06
0.000173463
2.84118e-06
0.000181293
-7.53073e-08
0.000186936
-2.85986e-06
0.00019079
-5.57924e-06
0.000193095
-8.02723e-06
0.000193822
-1.00212e-05
0.000193324
-1.13775e-05
0.000191951
-1.18768e-05
0.000190122
-1.1225e-05
0.000188108
-9.19468e-06
0.000186264
-5.63498e-06
0.000184171
0.000179717
-6.32988e-07
7.82751e-06
7.91245e-05
1.0927e-05
0.000151544
1.06037e-05
0.000173786
9.23247e-06
0.000182664
7.62085e-06
0.000188547
5.92638e-06
0.000192485
4.3668e-06
0.000194655
3.11882e-06
0.00019507
2.37831e-06
0.000194064
2.36712e-06
0.000191962
3.2985e-06
0.00018919
5.50313e-06
0.000185904
9.27572e-06
0.000182491
1.45651e-05
0.000178882
0.000172224
2.2058e-05
9.50613e-06
6.96183e-05
1.45274e-05
0.000146522
1.56866e-05
0.000172627
1.5554e-05
0.000182797
1.51101e-05
0.000188991
1.46171e-05
0.000192978
1.42546e-05
0.000195017
1.42123e-05
0.000195112
1.47091e-05
0.000193567
1.59863e-05
0.000190685
1.82726e-05
0.000186904
2.19527e-05
0.000182223
2.75105e-05
0.000176934
3.43774e-05
0.000172015
0.000162828
4.37732e-05
1.09475e-05
5.86709e-05
1.79263e-05
0.000139544
2.06596e-05
0.000169894
2.17701e-05
0.000181686
2.24706e-05
0.000188291
2.31289e-05
0.000192319
2.39327e-05
0.000194213
2.50737e-05
0.000193971
2.67837e-05
0.000191857
2.93561e-05
0.000188112
3.30109e-05
0.000183249
3.80354e-05
0.000177199
4.53463e-05
0.000169623
5.39219e-05
0.000163439
0.00015196
6.47905e-05
1.19854e-05
4.66855e-05
2.09744e-05
0.000130555
2.54264e-05
0.000165442
2.7823e-05
0.00017929
2.96497e-05
0.000186464
3.14192e-05
0.00019055
3.33574e-05
0.000192275
3.56596e-05
0.000191669
3.85523e-05
0.000188965
4.23893e-05
0.000184275
4.74467e-05
0.000178192
5.36741e-05
0.000170972
6.26344e-05
0.000160662
7.30056e-05
0.000153068
0.000139601
8.5364e-05
1.23848e-05
3.43006e-05
2.34961e-05
0.000119443
2.98639e-05
0.000159074
3.36262e-05
0.000175527
3.65754e-05
0.000183515
3.94262e-05
0.000187699
4.24628e-05
0.000189239
4.58979e-05
0.000188234
4.99376e-05
0.000184925
5.49461e-05
0.000179267
6.14664e-05
0.000171672
6.88062e-05
0.000163632
7.92265e-05
0.000150242
9.14384e-05
0.000140856
0.000125441
0.000105599
1.18991e-05
2.24015e-05
2.53193e-05
0.000106023
3.3811e-05
0.000150582
3.90606e-05
0.000170278
4.31676e-05
0.000179408
4.70816e-05
0.000183785
5.11678e-05
0.000185152
5.5696e-05
0.000183706
6.0871e-05
0.00017975
6.68903e-05
0.000173247
7.49404e-05
0.000163622
8.33895e-05
0.000155183
9.4868e-05
0.000138764
0.000108725
0.000126999
0.000108693
0.000125474
1.04671e-05
1.19345e-05
2.6299e-05
9.01912e-05
3.70551e-05
0.000139826
4.39781e-05
0.000163355
4.93307e-05
0.000174055
5.43067e-05
0.000178809
5.93936e-05
0.000180065
6.49379e-05
0.000178161
7.12789e-05
0.000173409
7.81318e-05
0.000166395
8.76516e-05
0.000154102
9.74689e-05
0.000145365
0.000109858
0.000126374
0.000124154
0.000112703
8.8962e-05
0.000143885
8.37638e-06
3.55808e-06
2.62415e-05
7.2326e-05
3.93427e-05
0.000126725
4.82052e-05
0.000154492
5.49548e-05
0.000167306
6.10103e-05
0.000172754
6.70555e-05
0.00017402
7.34776e-05
0.000171739
8.10539e-05
0.000165832
8.86335e-05
0.000158815
9.9298e-05
0.000143437
0.000110587
0.000134077
0.00012486
0.000112101
0.000138664
9.88989e-05
6.74104e-05
0.000160216
6.06185e-06
-2.50377e-06
2.48654e-05
5.35225e-05
4.0413e-05
0.000111177
5.15407e-05
0.000143365
5.9884e-05
0.000158962
6.70702e-05
0.000165567
7.40926e-05
0.000166998
8.11908e-05
0.000164641
9.00055e-05
0.000157018
9.84015e-05
0.000150419
0.000109868
0.000131971
0.000121973
0.000121972
0.000139007
9.50664e-05
0.000153189
8.47172e-05
4.51127e-05
0.000175487
3.81015e-06
-6.31392e-06
2.19499e-05
3.53827e-05
4.00326e-05
9.30946e-05
5.37279e-05
0.000129669
6.39171e-05
0.000148773
7.23096e-05
0.000157175
8.03979e-05
0.00015891
8.8052e-05
0.000156987
9.78987e-05
0.000147171
0.000107325
0.000140992
0.000119662
0.000119634
0.000131741
0.000109893
0.000150913
7.5894e-05
0.000166537
6.90938e-05
2.19888e-05
0.000189661
1.80954e-06
-8.12346e-06
1.76963e-05
1.94959e-05
3.80279e-05
7.27631e-05
5.44086e-05
0.000113289
6.6751e-05
0.000136431
7.65027e-05
0.000147423
8.57918e-05
0.00014962
9.40033e-05
0.000148776
0.000104495
0.000136679
0.000115005
0.000130483
0.000128665
0.000105974
0.000140771
9.77874e-05
0.000160726
5.59384e-05
0.000177825
5.19952e-05
-2.15737e-06
0.000201971
4.03338e-07
-8.52679e-06
1.27856e-05
7.11365e-06
3.42793e-05
5.12694e-05
5.31612e-05
9.44067e-05
6.80215e-05
0.00012157
7.93156e-05
0.000136129
8.99697e-05
0.000138966
9.90481e-05
0.000139697
0.000109711
0.000126016
0.000121006
0.000119188
0.000135731
9.12479e-05
0.00014954
8.39789e-05
0.000168527
3.69512e-05
0.000187002
3.35205e-05
-2.77632e-05
0.000212607
-3.31305e-07
-8.19549e-06
8.34299e-06
-1.56065e-06
2.86028e-05
3.10096e-05
4.95498e-05
7.34596e-05
6.72347e-05
0.000103886
8.04476e-05
0.000122916
9.24029e-05
0.000127011
0.000102847
0.000129253
0.000113609
0.000115255
0.000125825
0.000106972
0.000138974
7.80991e-05
0.000156808
6.61446e-05
0.000172987
2.07722e-05
0.00019424
1.22672e-05
-5.44027e-05
0.00022088
-4.90378e-07
-7.70511e-06
4.90069e-06
-6.95172e-06
2.16439e-05
1.42664e-05
4.34074e-05
5.16962e-05
6.37996e-05
8.34932e-05
7.93637e-05
0.000107352
9.26534e-05
0.000113721
0.000104752
0.000117154
0.00011514
0.000104867
0.000129948
9.21639e-05
0.000140023
6.80245e-05
0.000161609
4.45588e-05
0.000173985
8.3957e-06
0.000199124
-1.28721e-05
-8.26906e-05
0.000227412
-3.13467e-07
-7.39164e-06
2.95787e-06
-1.02231e-05
1.50647e-05
2.15964e-06
3.52474e-05
3.15134e-05
5.72183e-05
6.15224e-05
7.54376e-05
8.9133e-05
8.98098e-05
9.9349e-05
0.000104533
0.000102431
0.000114369
9.50312e-05
0.000131426
7.51064e-05
0.000139682
5.97692e-05
0.000164982
1.92582e-05
0.000171788
1.58969e-06
0.000205077
-4.61608e-05
-9.63009e-05
0.000218687
9.20917e-08
-7.48374e-06
2.45106e-06
-1.2582e-05
1.03498e-05
-5.73913e-06
2.66234e-05
1.52398e-05
4.76935e-05
4.04523e-05
6.8051e-05
6.87754e-05
8.35018e-05
8.38982e-05
9.98496e-05
8.60829e-05
0.000111671
8.32096e-05
0.000128451
5.8327e-05
0.000139128
4.90916e-05
0.000164172
-5.78536e-06
0.000170227
-4.46576e-06
0.000210156
-8.60895e-05
-8.58045e-05
0.000199659
5.51338e-07
-8.03507e-06
2.70083e-06
-1.47315e-05
7.82627e-06
-1.08646e-05
1.94359e-05
3.63018e-06
3.68437e-05
2.30445e-05
5.70705e-05
4.85486e-05
7.40519e-05
6.69168e-05
9.00105e-05
7.01243e-05
0.000104366
6.88543e-05
0.000120171
4.25218e-05
0.000134197
3.50659e-05
0.000151575
-2.31638e-05
0.000165449
-1.834e-05
0.000191183
-0.000111823
-7.48669e-05
0.000180245
9.39625e-07
-8.9747e-06
2.99585e-06
-1.67877e-05
6.60771e-06
-1.44764e-05
1.42339e-05
-3.99601e-06
2.66828e-05
1.05957e-05
4.37363e-05
3.14951e-05
6.08477e-05
4.98054e-05
7.61147e-05
5.48573e-05
9.04349e-05
5.45341e-05
0.000105721
2.72355e-05
0.000121926
1.88616e-05
0.000132567
-3.38057e-05
0.000149865
-3.56378e-05
0.00015436
-0.000116317
-0.00010795
0.000187443
1.0787e-06
-1.00534e-05
2.78182e-06
-1.84909e-05
5.28845e-06
-1.69831e-05
1.00088e-05
-8.71636e-06
1.78274e-05
2.7771e-06
3.0019e-05
1.93035e-05
4.46706e-05
3.51538e-05
5.84819e-05
4.1046e-05
7.19634e-05
4.10526e-05
8.49367e-05
1.42622e-05
0.000102392
1.40587e-06
0.000110224
-4.16369e-05
0.000132381
-5.77949e-05
0.000156275
-0.000140211
-0.000178423
0.000226749
8.49415e-07
-1.09028e-05
1.73464e-06
-1.93761e-05
2.93857e-06
-1.8187e-05
5.33128e-06
-1.11091e-05
9.40253e-06
-1.29415e-06
1.67015e-05
1.20045e-05
2.72216e-05
2.46336e-05
3.84544e-05
2.98133e-05
5.05631e-05
2.89439e-05
6.13643e-05
3.46102e-06
7.77377e-05
-1.49675e-05
9.2721e-05
-5.66202e-05
0.000136283
-0.000101356
0.00018879
-0.000192719
-0.000248734
0.000259101
2.24131e-07
-1.11269e-05
-1.93021e-07
-1.89589e-05
-6.78223e-07
-1.77018e-05
-6.16397e-07
-1.11709e-05
2.56488e-07
-2.16703e-06
3.48988e-06
8.77113e-06
9.20607e-06
1.89174e-05
1.714e-05
2.18793e-05
2.73145e-05
1.87694e-05
3.78793e-05
-7.10383e-06
6.25037e-05
-3.95919e-05
0.000103391
-9.75076e-05
0.000167311
-0.000165276
0.000220986
-0.000246394
-0.00030032
0.000272571
-7.183e-07
-1.04086e-05
-2.6689e-06
-1.70083e-05
-5.08822e-06
-1.52825e-05
-7.36818e-06
-8.89094e-06
-9.4116e-06
-1.23606e-07
-1.03472e-05
9.70671e-06
-9.19644e-06
1.77667e-05
-3.82182e-06
1.65047e-05
7.60119e-06
7.34641e-06
3.09207e-05
-3.04233e-05
7.80235e-05
-8.66947e-05
0.000137276
-0.00015676
0.00019697
-0.00022497
0.000238968
-0.000288392
-0.000335597
0.000274245
-1.80755e-06
-8.60109e-06
-5.39161e-06
-1.34243e-05
-9.77725e-06
-1.08969e-05
-1.44601e-05
-4.20807e-06
-1.92644e-05
4.68063e-06
-2.36025e-05
1.40449e-05
-2.53042e-05
1.94684e-05
-1.8246e-05
9.44651e-06
6.62829e-06
-1.75279e-05
5.22691e-05
-7.60642e-05
0.000111776
-0.000146202
0.000167117
-0.000212101
0.000212358
-0.000270211
0.000244062
-0.000320096
-0.000361948
0.000270413
-2.80335e-06
-5.79774e-06
-7.7771e-06
-8.45052e-06
-1.37549e-05
-4.91905e-06
-2.02533e-05
2.29029e-06
-2.67586e-05
1.1186e-05
-3.1844e-05
1.91303e-05
-3.12937e-05
1.89181e-05
-1.37044e-05
-8.14278e-06
2.88981e-05
-6.01304e-05
8.57056e-05
-0.000132872
0.000139541
-0.000200037
0.000183384
-0.000255945
0.000217465
-0.000304291
0.00024314
-0.000345772
-0.000383012
0.000264204
-3.46233e-06
-2.33541e-06
-9.25653e-06
-2.65632e-06
-1.59955e-05
1.81995e-06
-2.29537e-05
9.24845e-06
-2.91235e-05
1.73558e-05
-3.15171e-05
2.15238e-05
-2.32981e-05
1.06992e-05
9.19204e-06
-4.0633e-05
6.08449e-05
-0.000111783
0.000112576
-0.000184603
0.000156036
-0.000243496
0.000190824
-0.000290733
0.00021803
-0.000331497
0.000238936
-0.000366678
-0.000400248
0.000256172
-3.64279e-06
1.30738e-06
-9.53977e-06
3.24067e-06
-1.60244e-05
8.30454e-06
-2.2087e-05
1.53111e-05
-2.61313e-05
2.14001e-05
-2.40426e-05
1.94351e-05
-4.68323e-06
-8.66019e-06
3.78283e-05
-8.31445e-05
8.74178e-05
-0.000161373
0.000130536
-0.000227721
0.000165613
-0.000278573
0.000193637
-0.000318757
0.000215318
-0.000353177
0.000232507
-0.000383867
-0.000415577
0.000247836
-3.36115e-06
4.66853e-06
-8.72143e-06
8.60095e-06
-1.42015e-05
1.37846e-05
-1.84888e-05
1.95985e-05
-1.95681e-05
2.24793e-05
-1.24645e-05
1.23315e-05
1.75414e-05
-3.86661e-05
6.33095e-05
-0.000128913
0.000106334
-0.000204397
0.000142256
-0.000263644
0.000170565
-0.000306883
0.000192842
-0.000341034
0.000210533
-0.000370868
0.00022555
-0.000398885
-0.000428928
0.000238901
-2.74212e-06
7.41065e-06
-7.14762e-06
1.30064e-05
-1.12258e-05
1.78627e-05
-1.34756e-05
2.18483e-05
-1.19477e-05
2.09514e-05
2.83304e-06
-2.44927e-06
4.08935e-05
-7.67265e-05
8.30244e-05
-0.000171043
0.000120011
-0.000241383
0.000149395
-0.000293028
0.000171915
-0.000329403
0.000189967
-0.000359086
0.000204858
-0.000385759
0.000217794
-0.000411821
-0.000441187
0.000230053
-1.95328e-06
9.36393e-06
-5.21521e-06
1.62684e-05
-7.81119e-06
2.04587e-05
-8.09035e-06
2.21275e-05
-4.30641e-06
1.71675e-05
1.91287e-05
-2.58844e-05
6.15736e-05
-0.000119171
9.85792e-05
-0.000208049
0.000129154
-0.000271959
0.000152704
-0.000316577
0.000170845
-0.000347543
0.000185724
-0.000373965
0.000198295
-0.00039833
0.000210097
-0.000423623
-0.000452322
0.000221232
-1.14908e-06
1.0513e-05
-3.25825e-06
1.83776e-05
-4.46347e-06
2.16639e-05
-3.31651e-06
2.09805e-05
5.15964e-06
8.69134e-06
3.67398e-05
-5.74645e-05
7.70263e-05
-0.000159458
0.00010969
-0.000240713
0.000134641
-0.00029691
0.000153436
-0.000335371
0.000168093
-0.000362201
0.000180514
-0.000386386
0.00019163
-0.000409446
0.000202214
-0.000434206
-0.000462414
0.000212306
-4.48018e-07
1.0961e-05
-1.51341e-06
1.94429e-05
-1.40567e-06
2.15562e-05
1.07788e-07
1.9467e-05
1.57156e-05
-6.91648e-06
5.38161e-05
-9.55651e-05
8.94217e-05
-0.000195063
0.000117108
-0.000268399
0.000137267
-0.00031707
0.00015215
-0.000350254
0.000164145
-0.000374196
0.000174852
-0.000397093
0.000184595
-0.000419189
0.000194298
-0.000443909
-0.000471811
0.000203694
6.13254e-08
1.08997e-05
-2.75329e-08
1.95318e-05
1.00762e-06
2.05211e-05
4.42282e-06
1.60518e-05
2.74441e-05
-2.99377e-05
6.67145e-05
-0.000134836
9.84309e-05
-0.00022678
0.000121329
-0.000291297
0.000137484
-0.000333225
0.000149455
-0.000362225
0.00015951
-0.000384251
0.000168737
-0.00040632
0.000177567
-0.000428019
0.000186502
-0.000452844
-0.000480211
0.000194902
3.67189e-07
1.05325e-05
9.35845e-07
1.89631e-05
2.32533e-06
1.91316e-05
9.66766e-06
8.70951e-06
4.07273e-05
-6.09973e-05
7.6804e-05
-0.000170912
0.000104297
-0.000254272
0.00012305
-0.00031005
0.000136013
-0.000346188
0.000145765
-0.000371977
0.000154286
-0.000392772
0.000162483
-0.000414517
0.000170448
-0.000435984
0.000178554
-0.00046095
-0.00048803
0.000186373
4.34722e-07
1.00978e-05
1.39004e-06
1.80078e-05
2.50736e-06
1.80143e-05
1.59428e-05
-4.72591e-06
5.28937e-05
-9.79482e-05
8.46009e-05
-0.00020262
0.000107525
-0.000277196
0.000122748
-0.000325273
0.000133211
-0.000356651
0.00014132
-0.000380086
0.000148779
-0.000400231
0.000156034
-0.000421773
0.000163274
-0.000443224
0.000170789
-0.000468465
-0.000495042
0.000177802
3.60103e-07
9.73768e-06
1.51135e-06
1.68566e-05
2.99857e-06
1.6527e-05
2.39231e-05
-2.56505e-05
6.16191e-05
-0.000135644
8.98131e-05
-0.000230814
0.000108684
-0.000296068
0.000120952
-0.000337541
0.000129509
-0.000365208
0.000136424
-0.000387001
0.000142974
-0.00040678
0.000149506
-0.000428305
0.000156137
-0.000449855
0.000162895
-0.000475223
-0.000501446
0.000169299
2.766e-07
9.46108e-06
1.08552e-06
1.60477e-05
5.65181e-06
1.19607e-05
3.3914e-05
-5.39126e-05
6.80199e-05
-0.00016975
9.26742e-05
-0.000255468
0.00010821
-0.000311604
0.00011809
-0.00034742
0.000125167
-0.000372286
0.00013114
-0.000392973
0.00013703
-0.00041267
0.000142916
-0.000434192
0.000148914
-0.000455853
0.000155104
-0.000481414
-0.000507247
0.000160905
1.23316e-07
9.33777e-06
-1.69946e-08
1.6188e-05
9.88295e-06
2.0608e-06
4.36393e-05
-8.7669e-05
7.29645e-05
-0.000199075
9.35321e-05
-0.000276035
0.000106324
-0.000324396
0.000114412
-0.000355508
0.000120382
-0.000378257
0.000125664
-0.000398255
0.000130946
-0.000417952
0.000136252
-0.000439498
0.000141748
-0.000461349
0.000147284
-0.000486949
-0.000512427
0.000152465
-1.17653e-07
9.45542e-06
-4.55566e-07
1.65259e-05
1.48655e-05
-1.32603e-05
5.05597e-05
-0.000123363
7.62558e-05
-0.000224771
9.31104e-05
-0.00029289
0.00010351
-0.000334795
0.000110192
-0.00036219
0.000115322
-0.000383386
0.000120004
-0.000402937
0.000124779
-0.000422727
0.000129588
-0.000444307
0.000134529
-0.000466289
0.000139492
-0.000491913
-0.000517115
0.00014418
-2.27005e-07
9.68242e-06
4.65332e-07
1.58335e-05
2.19269e-05
-3.47219e-05
5.45972e-05
-0.000156033
7.77032e-05
-0.000247877
9.16433e-05
-0.00030683
0.00010001
-0.000343162
0.000105568
-0.000367748
0.000110037
-0.000387856
0.000114254
-0.000407154
0.000118561
-0.000427034
0.000122866
-0.000448612
0.000127339
-0.000470762
0.000131745
-0.000496319
-0.000521234
0.000135864
-3.4643e-07
1.00289e-05
3.0277e-06
1.24594e-05
2.95347e-05
-6.12288e-05
5.78036e-05
-0.000184302
7.75568e-05
-0.000267631
8.92101e-05
-0.000318483
9.60524e-05
-0.000350004
0.000100722
-0.000372417
0.000104653
-0.000391786
0.000108428
-0.000410929
0.000112289
-0.000430895
0.000116159
-0.000452482
0.000120133
-0.000474735
0.000123988
-0.000500174
-0.000524908
0.000127661
-4.84071e-07
1.05129e-05
6.29804e-06
5.67731e-06
3.59725e-05
-9.09033e-05
6.0042e-05
-0.000208372
7.63709e-05
-0.00028396
8.60106e-05
-0.000328123
9.17027e-05
-0.000355697
9.57005e-05
-0.000376415
9.91705e-05
-0.000395256
0.000102558
-0.000414317
0.000106011
-0.000434348
0.000109425
-0.000455896
0.000112931
-0.000478242
0.000116291
-0.000503534
-0.000528101
0.000119484
-5.53576e-07
1.10665e-05
9.74171e-06
-4.61798e-06
4.01407e-05
-0.000121302
6.1259e-05
-0.00022949
7.45259e-05
-0.000297227
8.23434e-05
-0.000335941
8.71116e-05
-0.000360465
9.05852e-05
-0.000379889
9.36655e-05
-0.000398337
9.66736e-05
-0.000417325
9.97085e-05
-0.000437383
0.000102707
-0.000458895
0.000105753
-0.000481288
0.000108604
-0.000506385
-0.00053086
0.000111364
-5.8568e-07
1.16522e-05
1.36891e-05
-1.88927e-05
4.19411e-05
-0.000149554
6.12113e-05
-0.00024876
7.21825e-05
-0.000308198
7.84248e-05
-0.000342183
8.23738e-05
-0.000364414
8.53979e-05
-0.000382913
8.81212e-05
-0.00040106
9.07713e-05
-0.000419975
9.34201e-05
-0.000440031
9.59939e-05
-0.000461468
9.85816e-05
-0.000483876
0.000100979
-0.000508782
-0.000533191
0.00010331
-6.18084e-07
1.22703e-05
1.80759e-05
-3.75867e-05
4.30389e-05
-0.000174517
5.99852e-05
-0.000265707
6.92975e-05
-0.00031751
7.43402e-05
-0.000347226
7.75969e-05
-0.00036767
8.02034e-05
-0.000385519
8.25867e-05
-0.000403443
8.48845e-05
-0.000422273
8.71348e-05
-0.000442282
8.93003e-05
-0.000463634
9.14514e-05
-0.000486027
9.33863e-05
-0.000510717
-0.000535105
9.52998e-05
1.00794e-07
1.21695e-05
2.17567e-05
-5.92425e-05
4.36642e-05
-0.000196425
5.80836e-05
-0.000280126
6.59385e-05
-0.000325365
7.01136e-05
-0.000351401
7.28084e-05
-0.000370365
7.50193e-05
-0.00038773
7.70572e-05
-0.000405481
7.90009e-05
-0.000424217
8.08739e-05
-0.000444155
8.26337e-05
-0.000465394
8.43407e-05
-0.000487734
8.58432e-05
-0.000512219
-0.000536612
8.73505e-05
9.77132e-07
1.11923e-05
2.46088e-05
-8.28742e-05
4.36945e-05
-0.000215511
5.57778e-05
-0.000292209
6.22793e-05
-0.000331867
6.57655e-05
-0.000354887
6.80271e-05
-0.000372627
6.98759e-05
-0.000389579
7.15668e-05
-0.000407172
7.31539e-05
-0.000425804
7.46381e-05
-0.000445639
7.5994e-05
-0.000466749
7.72774e-05
-0.000489018
7.8353e-05
-0.000513295
-0.000537706
7.94473e-05
2.36834e-06
8.824e-06
2.6489e-05
-0.000106995
4.3305e-05
-0.000232327
5.32476e-05
-0.000302152
5.8497e-05
-0.000337116
6.13653e-05
-0.000357755
6.32494e-05
-0.000374511
6.47632e-05
-0.000391093
6.61091e-05
-0.000408518
6.73327e-05
-0.000427027
6.84374e-05
-0.000446744
6.93966e-05
-0.000467709
7.02492e-05
-0.00048987
7.08946e-05
-0.00051394
-0.000538357
7.1545e-05
4.28908e-06
4.53492e-06
2.74366e-05
-0.000130142
4.2489e-05
-0.000247379
5.05701e-05
-0.000310233
5.46849e-05
-0.000341231
5.69658e-05
-0.000360036
5.84958e-05
-0.000376041
5.96919e-05
-0.000392289
6.06993e-05
-0.000409526
6.15617e-05
-0.00042789
6.22802e-05
-0.000447462
6.2838e-05
-0.000468267
6.32706e-05
-0.000490303
6.34838e-05
-0.000514154
-0.000538535
6.3662e-05
6.53038e-06
-1.99546e-06
2.73971e-05
-0.000151009
4.11177e-05
-0.0002611
4.77763e-05
-0.000316892
5.08974e-05
-0.000344352
5.26159e-05
-0.000361755
5.37824e-05
-0.000377207
5.4658e-05
-0.000393164
5.53305e-05
-0.000410198
5.58315e-05
-0.000428391
5.61686e-05
-0.000447799
5.63311e-05
-0.000468429
5.63398e-05
-0.000490312
5.61145e-05
-0.000513928
-0.000538239
5.58189e-05
9.02736e-06
-1.10228e-05
2.74043e-05
-0.000169386
3.92763e-05
-0.000272972
4.47973e-05
-0.000322413
4.71276e-05
-0.000346682
4.83308e-05
-0.000362958
4.91281e-05
-0.000378005
4.96779e-05
-0.000393714
5.00155e-05
-0.000410536
5.01589e-05
-0.000428534
5.01127e-05
-0.000447753
4.98727e-05
-0.000468189
4.9461e-05
-0.0004899
4.88085e-05
-0.000513276
-0.000537468
4.8037e-05
1.09866e-05
-2.20094e-05
2.72371e-05
-0.000185637
3.7193e-05
-0.000282927
4.16331e-05
-0.000326853
4.33451e-05
-0.000348394
4.41097e-05
-0.000363722
4.45423e-05
-0.000378437
4.47549e-05
-0.000393927
4.47541e-05
-0.000410535
4.454e-05
-0.00042832
4.41136e-05
-0.000447327
4.34728e-05
-0.000467548
4.26371e-05
-0.000489064
4.15598e-05
-0.000512198
-0.000536218
4.03103e-05
1.22829e-05
-3.42923e-05
2.66681e-05
-0.000200022
3.49084e-05
-0.000291168
3.83524e-05
-0.000330297
3.95447e-05
-0.000349587
3.99385e-05
-0.000364116
4.00277e-05
-0.000378526
3.99026e-05
-0.000393802
3.95596e-05
-0.000410192
3.8989e-05
-0.000427749
3.81838e-05
-0.000446521
3.71378e-05
-0.000466502
3.58714e-05
-0.000487798
3.43717e-05
-0.000510699
-0.000534509
3.26624e-05
1.2908e-05
-4.72003e-05
2.57231e-05
-0.000212837
3.24817e-05
-0.000297926
3.50338e-05
-0.000332849
3.57601e-05
-0.000350313
3.58204e-05
-0.000364176
3.55832e-05
-0.000378289
3.51209e-05
-0.000393339
3.44331e-05
-0.000409504
3.3506e-05
-0.000426822
3.23265e-05
-0.000445342
3.08837e-05
-0.000465059
2.91849e-05
-0.000486099
2.72327e-05
-0.000508746
-0.000532352
2.50757e-05
1.2984e-05
-6.01843e-05
2.44332e-05
-0.000224286
2.99334e-05
-0.000303427
3.17191e-05
-0.000334634
3.20173e-05
-0.000350611
3.17602e-05
-0.000363919
3.12092e-05
-0.000377738
3.04167e-05
-0.000392547
2.93847e-05
-0.000408472
2.81009e-05
-0.000425538
2.65509e-05
-0.000443792
2.47222e-05
-0.000463231
2.2607e-05
-0.000483984
2.01528e-05
-0.000506292
-0.00052975
1.75505e-05
1.26841e-05
-7.28684e-05
2.28885e-05
-0.00023449
2.73119e-05
-0.00030785
2.84377e-05
-0.00033576
2.83386e-05
-0.000350512
2.77702e-05
-0.000363351
2.69094e-05
-0.000376878
2.57893e-05
-0.000391427
2.44146e-05
-0.000407098
2.27749e-05
-0.000423899
2.08561e-05
-0.000441873
1.86518e-05
-0.000461027
1.61578e-05
-0.00048149
1.3189e-05
-0.000503324
-0.000526615
1.00538e-05
1.21313e-05
-8.49997e-05
2.1158e-05
-0.000243517
2.46444e-05
-0.000311336
2.52032e-05
-0.000336319
2.47364e-05
-0.000350045
2.38583e-05
-0.000362473
2.26884e-05
-0.000375708
2.12447e-05
-0.000389983
1.95303e-05
-0.000405383
1.75356e-05
-0.000421904
1.52479e-05
-0.000439585
1.26673e-05
-0.000458446
9.80169e-06
-0.000478624
6.45333e-06
-0.000499975
-0.000522681
2.51927e-06
1.14073e-05
-9.6407e-05
1.93116e-05
-0.000251421
2.19731e-05
-0.000313998
2.20345e-05
-0.000336381
2.12216e-05
-0.000349232
2.00337e-05
-0.000361285
1.85522e-05
-0.000374226
1.67842e-05
-0.000388215
1.4732e-05
-0.000403331
1.23839e-05
-0.000419556
9.72901e-06
-0.00043693
6.77462e-06
-0.000455492
3.46008e-06
-0.000475309
1.99071e-07
-0.000496714
-0.000517971
-4.51086e-06
1.05485e-05
-0.000106956
1.73974e-05
-0.00025827
1.9328e-05
-0.000315928
1.89448e-05
-0.000335997
1.78004e-05
-0.000348088
1.63006e-05
-0.000359785
1.45046e-05
-0.00037243
1.24128e-05
-0.000386123
1.00237e-05
-0.000400942
7.32297e-06
-0.000416855
4.30585e-06
-0.000433913
9.39592e-07
-0.000452125
-2.70219e-06
-0.000471668
-6.70866e-06
-0.000492708
-0.000513404
-1.12754e-05
9.5476e-06
-0.000116503
1.54647e-05
-0.000264187
1.67422e-05
-0.000317206
1.59493e-05
-0.000335204
1.4478e-05
-0.000346616
1.26634e-05
-0.00035797
1.05486e-05
-0.000370315
8.13034e-06
-0.000383705
5.39981e-06
-0.000398211
2.34601e-06
-0.000413801
-1.01728e-06
-0.00043055
-4.67868e-06
-0.000448464
-8.62402e-06
-0.000467722
-1.322e-05
-0.000488112
-0.000508628
-1.7996e-05
8.62092e-06
-0.000125124
1.35614e-05
-0.000269128
1.42281e-05
-0.000317873
1.3049e-05
-0.000334025
1.12549e-05
-0.000344822
9.12311e-06
-0.000355839
6.68344e-06
-0.000367876
3.9336e-06
-0.000380955
8.41989e-07
-0.00039512
-2.51438e-06
-0.000410445
-6.19884e-06
-0.000426866
-1.01945e-05
-0.000444468
-1.45377e-05
-0.000463379
-1.95331e-05
-0.000483116
-0.00050353
-2.46306e-05
7.7247e-06
-0.000132849
1.17185e-05
-0.000273122
1.17988e-05
-0.000317953
1.02432e-05
-0.00033247
8.13108e-06
-0.00034271
5.67815e-06
-0.000353386
2.90299e-06
-0.000365101
-2.13325e-07
-0.000377839
-3.55366e-06
-0.000391779
-7.25404e-06
-0.000406745
-1.12791e-05
-0.000422841
-1.56264e-05
-0.000440121
-2.03847e-05
-0.000458621
-2.5688e-05
-0.000477813
-0.000498059
-3.11593e-05
6.84733e-06
-0.000139696
9.94673e-06
-0.000276221
9.46123e-06
-0.000317468
7.53635e-06
-0.000330545
5.10405e-06
-0.000340278
2.31616e-06
-0.000350598
-7.90411e-07
-0.000361994
-4.14399e-06
-0.000374485
-7.85471e-06
-0.000388069
-1.18937e-05
-0.000402706
-1.62564e-05
-0.000418478
-2.09672e-05
-0.00043541
-2.61439e-05
-0.000453444
-3.17203e-05
-0.000472237
-0.000492211
-3.75687e-05
5.9967e-06
-0.000145693
8.25372e-06
-0.000278478
7.21904e-06
-0.000316433
4.93279e-06
-0.000328259
2.16262e-06
-0.000337508
-9.50523e-07
-0.000347485
-4.31472e-06
-0.00035863
-8.01822e-06
-0.000370782
-1.20602e-05
-0.000384027
-1.64305e-05
-0.000398335
-2.11306e-05
-0.000413778
-2.62002e-05
-0.00043034
-3.17268e-05
-0.000447918