/*--------------------------------*- C++ -*----------------------------------*\
  =========                 |
  \\      /  F ield         | OpenFOAM: The Open Source CFD Toolbox
   \\    /   O peration     | Website:  https://openfoam.org
    \\  /    A nd           | Version:  7
     \\/     M anipulation  |
\*---------------------------------------------------------------------------*/
FoamFile
{
    version     2.0;
    format      ascii;
    class       volScalarField;
    location    "0.125";
    object      p;
}
// * * * * * * * * * * * * * * * * * * * * * * * * * * * * * * * * * * * * * //

dimensions      [0 2 -2 0 0 0 0];

internalField   nonuniform List<scalar> 
10000
(
6.94302e-11
2.72947e-06
-3.65872e-06
-2.08585e-05
-4.60314e-05
-7.52329e-05
-0.000105702
-0.000135219
-0.000162088
-0.000185069
-0.000203228
-0.0002159
-0.000222702
-0.000223448
-0.000218034
-0.000206419
-0.000188599
-0.00016457
-0.000134336
-9.79739e-05
-5.56626e-05
-7.62324e-06
4.59834e-05
0.000105098
0.000169695
0.000239698
0.00031495
0.000395274
0.00048053
0.000570626
0.000665499
0.000765087
0.00086931
0.000978066
0.00109124
0.00120873
0.00133044
0.00145628
0.00158615
0.00171992
0.00185747
0.00199866
0.00214337
0.00229143
0.00244267
0.0025969
0.00275389
0.00291343
0.00307529
0.00323923
0.00340501
0.00357234
0.00374091
0.00391039
0.00408048
0.00425085
0.00442117
0.00459112
0.00476034
0.00492848
0.00509516
0.00526001
0.00542268
0.00558279
0.00574001
0.00589397
0.0060443
0.00619065
0.00633263
0.00646988
0.00660203
0.00672872
0.00684959
0.00696428
0.00707245
0.00717376
0.00726787
0.00735448
0.00743327
0.00750399
0.00756637
0.0076202
0.00766533
0.00770161
0.007729
0.00774748
0.00775715
0.00775819
0.00775091
0.00773573
0.00771326
0.00768432
0.00764996
0.00761158
0.00757094
0.00753031
0.00749257
0.00746133
0.00744119
0.0074351
1.27951e-05
1.51105e-05
9.34567e-06
-4.68223e-06
-2.43887e-05
-4.73325e-05
-7.13601e-05
-9.47102e-05
-0.000115943
-0.000133964
-0.000147921
-0.000157148
-0.000161178
-0.000159706
-0.00015254
-0.000139589
-0.000120849
-9.63313e-05
-6.60148e-05
-2.98926e-05
1.19696e-05
5.94311e-05
0.000112337
0.000170578
0.000234096
0.000302829
0.000376683
0.000455545
0.000539301
0.000627849
0.000721091
0.000818937
0.000921306
0.00102812
0.0011393
0.00125475
0.00137436
0.00149803
0.00162563
0.00175707
0.00189223
0.00203097
0.00217315
0.00231862
0.00246718
0.00261866
0.00277285
0.00292953
0.00308848
0.00324944
0.00341216
0.00357636
0.00374175
0.00390802
0.00407486
0.00424193
0.00440892
0.0045755
0.00474133
0.00490606
0.00506933
0.00523077
0.00539004
0.00554679
0.00570065
0.00585128
0.00599833
0.00614145
0.00628027
0.00641444
0.00654361
0.00666741
0.00678551
0.00689757
0.00700327
0.00710229
0.00719432
0.00727909
0.00735632
0.00742577
0.00748723
0.00754054
0.00758555
0.00762221
0.0076505
0.00767047
0.00768227
0.00768613
0.00768239
0.00767153
0.00765418
0.00763117
0.00760352
0.00757251
0.00753974
0.00750713
0.00747694
0.00745181
0.00743503
0.00742896
4.15268e-05
3.85703e-05
3.00421e-05
1.62664e-05
-1.41724e-06
-2.12374e-05
-4.16131e-05
-6.11709e-05
-7.87125e-05
-9.33052e-05
-0.000104223
-0.000110874
-0.000112792
-0.000109627
-0.000101128
-8.71522e-05
-6.76637e-05
-4.26758e-05
-1.21887e-05
2.38102e-05
6.53134e-05
0.000112271
0.000164587
0.000222144
0.000284836
0.00035258
0.000425307
0.000502955
0.000585451
0.000672703
0.000764597
0.000861022
0.000961888
0.00106713
0.00117668
0.00129046
0.00140837
0.00153027
0.00165606
0.00178563
0.00191886
0.00205564
0.00219582
0.00233922
0.00248566
0.00263495
0.0027869
0.00294131
0.00309794
0.00325655
0.00341686
0.00357859
0.00374147
0.00390519
0.00406945
0.00423394
0.00439833
0.0045623
0.0047255
0.00488759
0.00504822
0.00520706
0.00536374
0.00551792
0.00566925
0.00581739
0.00596199
0.00610269
0.00623916
0.00637104
0.00649798
0.00661965
0.0067357
0.00684581
0.00694968
0.00704701
0.00713751
0.00722092
0.007297
0.00736554
0.00742636
0.0074793
0.00752428
0.00756126
0.00759027
0.00761138
0.00762478
0.00763072
0.00762957
0.00762182
0.00760809
0.00758916
0.00756599
0.00753975
0.0075118
0.00748375
0.00745742
0.00743484
0.00741809
0.00740878
7.94887e-05
6.90823e-05
5.61725e-05
4.07214e-05
2.30255e-05
4.27134e-06
-1.43523e-05
-3.18034e-05
-4.71214e-05
-5.94911e-05
-6.82916e-05
-7.30323e-05
-7.33043e-05
-6.87855e-05
-5.92427e-05
-4.45107e-05
-2.44829e-05
8.85981e-07
3.15841e-05
6.75723e-05
0.000108825
0.000155339
0.000207094
0.000264019
0.000326002
0.000392937
0.000464744
0.000541372
0.00062277
0.000708867
0.000799562
0.000894751
0.000994342
0.00109826
0.00120645
0.00131882
0.00143527
0.00155569
0.00167996
0.00180797
0.00193961
0.00207476
0.00221327
0.00235497
0.00249967
0.00264717
0.00279728
0.0029498
0.00310452
0.00326119
0.00341952
0.00357924
0.00374007
0.00390171
0.00406387
0.00422626
0.00438855
0.00455042
0.00471153
0.00487154
0.00503011
0.0051869
0.00534157
0.00549377
0.00564317
0.00578941
0.00593216
0.00607105
0.00620575
0.00633591
0.00646119
0.00658125
0.00669577
0.00680443
0.00690694
0.007003
0.00709236
0.00717476
0.00724999
0.00731786
0.00737819
0.00743089
0.00747588
0.00751313
0.00754269
0.00756468
0.00757927
0.00758675
0.00758747
0.00758192
0.00757068
0.00755448
0.00753417
0.00751078
0.00748548
0.00745957
0.00743454
0.00741196
0.00739276
0.00737751
0.000121285
0.00010303
8.53089e-05
6.74189e-05
4.87062e-05
2.99925e-05
1.21764e-05
-4.01528e-06
-1.78655e-05
-2.86966e-05
-3.59746e-05
-3.9272e-05
-3.82247e-05
-3.25607e-05
-2.21029e-05
-6.71189e-06
1.37467e-05
3.93739e-05
7.01937e-05
0.000106164
0.000147236
0.000193392
0.000244632
0.000300919
0.000362179
0.00042832
0.00049927
0.000574971
0.000655366
0.000740383
0.000829938
0.000923949
0.00102234
0.00112505
0.00123198
0.00134306
0.00145818
0.00157725
0.00170014
0.00182675
0.00195696
0.00209064
0.00222765
0.00236781
0.00251094
0.00265684
0.00280531
0.00295616
0.00310917
0.00326409
0.00342065
0.00357858
0.00373759
0.00389739
0.00405771
0.00421825
0.00437871
0.00453875
0.00469806
0.00485629
0.0050131
0.00516817
0.00532115
0.00547171
0.0056195
0.00576419
0.00590542
0.00604284
0.00617611
0.00630488
0.00642881
0.00654757
0.00666084
0.00676832
0.00686972
0.00696476
0.00705319
0.00713478
0.00720932
0.00727664
0.0073366
0.0073891
0.0074341
0.00747158
0.00750161
0.00752431
0.00753986
0.00754855
0.00755073
0.00754685
0.00753745
0.00752318
0.00750482
0.00748322
0.00745936
0.00743428
0.00740918
0.00738525
0.00736228
0.00733973
0.000164517
0.000138443
0.000115725
9.48989e-05
7.44685e-05
5.50039e-05
3.72041e-05
2.15748e-05
8.59972e-06
-1.22421e-06
-7.45576e-06
-9.72736e-06
-7.72848e-06
-1.22015e-06
9.95801e-06
2.59221e-05
4.67742e-05
7.25973e-05
0.000103438
0.000139301
0.00018017
0.000226017
0.000276815
0.000332521
0.000393084
0.000458448
0.000528569
0.000603397
0.000682867
0.000766897
0.000855407
0.000948332
0.00104562
0.00114721
0.00125301
0.00136292
0.00147685
0.00159469
0.00171635
0.00184171
0.00197066
0.00210306
0.00223874
0.00237755
0.00251929
0.00266378
0.00281082
0.00296022
0.00311173
0.00326513
0.00342014
0.0035765
0.00373393
0.00389216
0.0040509
0.00420988
0.00436878
0.00452728
0.00468508
0.00484183
0.00499721
0.00515088
0.00530251
0.00545176
0.00559829
0.00574175
0.00588179
0.00601807
0.00615023
0.00627792
0.00640081
0.00651857
0.00663088
0.00673745
0.00683799
0.00693224
0.00701995
0.00710091
0.00717493
0.00724184
0.00730152
0.00735389
0.00739891
0.00743658
0.00746698
0.00749023
0.00750653
0.00751613
0.00751938
0.00751668
0.00750854
0.00749553
0.00747831
0.00745762
0.00743425
0.007409
0.00738283
0.00735666
0.00732919
0.00729894
0.000207015
0.000173499
0.000145797
0.000121786
9.92234e-05
7.84627e-05
6.00532e-05
4.43639e-05
3.17063e-05
2.24186e-05
1.68442e-05
1.52677e-05
1.79141e-05
2.49798e-05
3.66362e-05
5.30093e-05
7.41706e-05
0.000100153
0.000130984
0.000166697
0.000207316
0.000252832
0.000303203
0.000358375
0.000418304
0.000482957
0.000552307
0.000626312
0.000704912
0.000788032
0.000875598
0.000967554
0.00106385
0.00116444
0.00126922
0.0013781
0.00149098
0.00160776
0.00172834
0.00185262
0.00198048
0.00211177
0.00224632
0.00238396
0.00252452
0.0026678
0.00281362
0.00296177
0.00311203
0.00326414
0.00341785
0.00357289
0.003729
0.00388592
0.00404337
0.00420107
0.00435871
0.004516
0.0046726
0.0048282
0.00498246
0.00513507
0.00528568
0.00543396
0.00557956
0.00572213
0.00586132
0.00599678
0.00612814
0.00625507
0.00637722
0.00649426
0.0066059
0.00671182
0.00681176
0.00690545
0.00699267
0.00707319
0.00714685
0.00721348
0.00727299
0.00732529
0.00737035
0.00740819
0.00743888
0.00746255
0.00747938
0.00748961
0.00749357
0.00749162
0.00748422
0.00747187
0.00745513
0.00743462
0.00741096
0.00738478
0.00735686
0.00732787
0.00729564
0.00725784
0.000247236
0.000206733
0.000174182
0.000146882
0.000121949
9.95823e-05
8.01737e-05
6.39707e-05
5.11777e-05
4.2019e-05
3.67424e-05
3.55543e-05
3.86042e-05
4.6032e-05
5.79869e-05
7.45918e-05
9.59112e-05
0.000121963
0.000152758
0.000188323
0.000228687
0.00027385
0.000323777
0.000378425
0.000437763
0.000501773
0.000570425
0.000643676
0.000721471
0.000803752
0.000890464
0.000981561
0.00107699
0.00117669
0.00128057
0.00138854
0.00150051
0.00161638
0.00173605
0.00185942
0.00198635
0.00211669
0.00225029
0.00238696
0.00252653
0.00266881
0.00281362
0.00296074
0.00310996
0.00326102
0.00341367
0.00356765
0.00372271
0.00387859
0.00403502
0.00419173
0.00434842
0.00450479
0.00466051
0.00481527
0.00496875
0.00512061
0.00527052
0.00541815
0.00556315
0.00570515
0.00584379
0.00597873
0.00610959
0.00623604
0.00635773
0.00647434
0.00658556
0.0066911
0.00679068
0.00688404
0.00697097
0.00705125
0.00712471
0.00719122
0.00725065
0.00730296
0.0073481
0.00738609
0.00741701
0.00744098
0.00745816
0.0074688
0.00747317
0.00747162
0.00746453
0.00745236
0.00743557
0.00741469
0.00739019
0.00736256
0.00733243
0.00730035
0.00726336
0.00721849
0.000283932
0.000236991
0.00019984
0.000169237
0.000141784
0.000117609
9.6953e-05
7.99387e-05
6.66994e-05
5.73647e-05
5.20771e-05
5.0981e-05
5.41969e-05
6.18235e-05
7.39519e-05
9.06601e-05
0.000112002
0.000138009
0.000168706
0.000204106
0.000244217
0.000289028
0.000338513
0.000392651
0.000451432
0.000514845
0.000582859
0.000655426
0.000732495
0.000814023
0.000899974
0.000990312
0.00108498
0.00118392
0.00128702
0.00139421
0.0015054
0.00162051
0.00173942
0.00186203
0.0019882
0.00211777
0.00225058
0.00238646
0.00252523
0.00266672
0.00281072
0.00295703
0.00310542
0.00325566
0.00340749
0.00356066
0.00371494
0.00387005
0.00402576
0.00418178
0.00433781
0.00449356
0.00464872
0.00480295
0.00495595
0.00510738
0.00525692
0.0054042
0.00554889
0.00569061
0.005829
0.0059637
0.00609435
0.0062206
0.0063421
0.00645853
0.00656959
0.00667498
0.00677444
0.0068677
0.00695455
0.00703478
0.00710822
0.00717473
0.00723422
0.0072866
0.00733187
0.00737002
0.00740113
0.00742531
0.00744272
0.00745356
0.0074581
0.00745665
0.00744954
0.00743717
0.00741994
0.00739827
0.00737255
0.00734313
0.00731058
0.00727531
0.00723377
0.00718243
0.000316056
0.000263264
0.000221839
0.000188054
0.000158032
0.000131901
0.000109822
9.17962e-05
7.78873e-05
6.81471e-05
6.26202e-05
6.13916e-05
6.45645e-05
7.22139e-05
8.43781e-05
0.000101083
0.00012236
0.00014825
0.000178784
0.000213974
0.000253805
0.000298259
0.000347321
0.000400987
0.000459257
0.000522118
0.000589541
0.000661484
0.000737907
0.000818778
0.000904071
0.000993752
0.00108777
0.00118604
0.00128849
0.00139503
0.00150559
0.00162007
0.00173838
0.00186038
0.00198594
0.0021149
0.0022471
0.00238236
0.00252053
0.00266141
0.00280481
0.00295052
0.00309832
0.00324796
0.00339921
0.00355184
0.00370559
0.00386023
0.00401549
0.00417111
0.00432679
0.00448224
0.00463712
0.00479115
0.00494398
0.00509529
0.00524474
0.00539198
0.00553665
0.00567837
0.00581679
0.00595153
0.00608222
0.00620852
0.0063301
0.00644661
0.00655776
0.00666325
0.00676282
0.0068562
0.00694318
0.00702355
0.00709715
0.00716382
0.00722347
0.00727604
0.00732148
0.00735981
0.00739109
0.00741541
0.00743293
0.00744383
0.00744836
0.00744677
0.00743938
0.00742653
0.00740855
0.00738582
0.00735862
0.00732722
0.00729213
0.00725373
0.00720793
0.00715077
0.000342839
0.00028473
0.000239366
0.000202589
0.00017005
0.000141904
0.000118301
9.91299e-05
8.43697e-05
7.4027e-05
6.80927e-05
6.65881e-05
6.95685e-05
7.70777e-05
8.91263e-05
0.000105716
0.00012686
0.000152587
0.000182919
0.000217853
0.000257372
0.000301461
0.00035012
0.000403353
0.000461158
0.000523519
0.000590405
0.000661787
0.000737642
0.000817952
0.00090269
0.000991818
0.00108528
0.00118301
0.00128492
0.00139094
0.001501
0.001615
0.00173284
0.00185438
0.00197948
0.00210799
0.00223974
0.00237457
0.00251232
0.00265278
0.00279578
0.00294111
0.00308853
0.00323782
0.00338875
0.00354108
0.00369459
0.00384903
0.00400414
0.00415966
0.00431528
0.00447072
0.00462565
0.00477976
0.00493273
0.00508421
0.00523388
0.00538136
0.00552629
0.00566829
0.005807
0.00594204
0.00607305
0.00619967
0.00632157
0.00643842
0.00654991
0.00665574
0.00675566
0.00684939
0.00693671
0.00701742
0.00709134
0.00715833
0.00721828
0.00727111
0.00731679
0.00735533
0.00738677
0.0074112
0.00742875
0.0074396
0.00744395
0.00744206
0.00743419
0.00742065
0.00740172
0.00737772
0.00734888
0.00731542
0.00727779
0.00723636
0.00718663
0.0071243
0.000363729
0.000300778
0.00025177
0.000212196
0.000177257
0.000147116
0.000121943
0.000101544
8.58057e-05
7.47091e-05
6.82307e-05
6.63364e-05
6.90117e-05
7.62567e-05
8.80681e-05
0.000104444
0.000125388
0.000150906
0.000180994
0.000215641
0.000254831
0.000298562
0.000346841
0.000399675
0.000457057
0.000518966
0.000585377
0.000656273
0.000731646
0.000811486
0.000895765
0.00098444
0.00107745
0.00117474
0.00127623
0.00138186
0.00149155
0.00160521
0.00172272
0.00184394
0.00196873
0.00209694
0.00222842
0.00236299
0.00250049
0.00264074
0.00278355
0.00292869
0.00307596
0.00322514
0.00337599
0.0035283
0.00368184
0.00383636
0.00399162
0.00414733
0.0043032
0.00445893
0.00461421
0.00476872
0.00492212
0.00507407
0.00522423
0.00537223
0.0055177
0.00566026
0.00579953
0.00593514
0.00606672
0.00619392
0.0063164
0.00643384
0.00654592
0.00665234
0.00675284
0.00684714
0.00693502
0.00701626
0.00709068
0.00715814
0.00721851
0.00727171
0.00731771
0.00735649
0.0073881
0.00741261
0.00743014
0.00744084
0.00744492
0.0074426
0.00743411
0.00741972
0.0073997
0.00737431
0.00734375
0.00730818
0.00726807
0.00722376
0.00717043
0.0071035
0.000378246
0.000310923
0.000258547
0.000216359
0.000179169
0.00014709
0.000120321
9.86415e-05
8.18668e-05
6.99325e-05
6.28007e-05
6.0403e-05
6.26691e-05
6.95581e-05
8.10533e-05
9.71471e-05
0.000117831
0.000143086
0.000172889
0.000207224
0.000246085
0.000289477
0.000337407
0.000389876
0.000446872
0.000508379
0.000574381
0.000644874
0.000719855
0.000799316
0.000883227
0.000971545
0.00106421
0.00116118
0.00126237
0.00136773
0.00147718
0.00159062
0.00170794
0.00182898
0.0019536
0.00208167
0.00221303
0.00234752
0.00248497
0.00262519
0.00276799
0.00291318
0.00306052
0.00320983
0.00336086
0.00351342
0.00366727
0.00382216
0.00397785
0.00413405
0.00429047
0.0044468
0.00460273
0.00475792
0.00491205
0.00506477
0.00521571
0.00536452
0.0055108
0.00565418
0.00579428
0.00593073
0.00606315
0.0061912
0.00631453
0.00643281
0.00654574
0.006653
0.00675431
0.00684941
0.00693805
0.00702001
0.00709511
0.00716318
0.0072241
0.00727777
0.00732415
0.00736322
0.00739501
0.00741959
0.00743706
0.00744757
0.0074513
0.00744844
0.00743923
0.0074239
0.00740269
0.00737583
0.00734351
0.00730585
0.00726333
0.00721631
0.0071597
0.00708869
0.000385961
0.000314753
0.000259296
0.000214664
0.000175362
0.000141425
0.000113058
9.00676e-05
7.22355e-05
5.94278e-05
5.15657e-05
4.85632e-05
5.03274e-05
5.67905e-05
6.79161e-05
8.36789e-05
0.000104051
0.000128996
0.000158482
0.000192496
0.000231036
0.000274112
0.000321725
0.000373864
0.000430517
0.000491677
0.000557341
0.000627513
0.000702192
0.000781365
0.000865
0.000953056
0.00104548
0.00114224
0.00124325
0.00134847
0.0014578
0.00157115
0.00168839
0.00180939
0.00193399
0.00206207
0.00219348
0.00232806
0.00246563
0.00260602
0.00274903
0.00289447
0.00304213
0.0031918
0.00334329
0.00349636
0.0036508
0.00380635
0.00396277
0.00411976
0.00427703
0.00443426
0.00459113
0.00474731
0.00490246
0.00505623
0.00520824
0.00535813
0.0055055
0.00564999
0.0057912
0.00592876
0.0060623
0.00619147
0.00631592
0.00643532
0.00654934
0.00665769
0.00676006
0.00685617
0.00694578
0.00702865
0.00710459
0.00717341
0.00723499
0.00728923
0.00733606
0.00737546
0.00740746
0.0074321
0.0074495
0.00745978
0.00746309
0.00745965
0.00744964
0.00743329
0.00741082
0.00738246
0.00734835
0.00730864
0.00726381
0.00721424
0.00715462
0.00707998
0.000386554
0.000311927
0.000253688
0.000206756
0.000165446
0.000129748
9.98314e-05
7.55268e-05
5.66178e-05
4.29099e-05
3.42673e-05
3.05912e-05
3.17879e-05
3.77743e-05
4.84878e-05
6.38767e-05
8.38923e-05
0.000108492
0.000137647
0.000171344
0.000209583
0.000252367
0.000299688
0.000351535
0.000407897
0.000468774
0.000534175
0.000604108
0.00067857
0.000757543
0.000840995
0.000928887
0.00102118
0.00111783
0.00121879
0.00132398
0.00143332
0.0015467
0.00166399
0.00178507
0.00190981
0.00203806
0.00216968
0.00230451
0.0024424
0.00258314
0.00272657
0.00287248
0.00302069
0.00317099
0.00332319
0.00347705
0.00363237
0.00378887
0.00394631
0.00410439
0.0042628
0.00442123
0.00457934
0.00473681
0.00489327
0.00504837
0.00520174
0.005353
0.00550176
0.00564764
0.00579025
0.00592921
0.00606416
0.00619474
0.00632059
0.00644137
0.00655677
0.00666644
0.0067701
0.00686745
0.00695823
0.00704218
0.00711911
0.00718882
0.00725117
0.00730605
0.0073534
0.00739318
0.0074254
0.00745013
0.00746743
0.00747744
0.00748031
0.00747622
0.00746536
0.00744794
0.00742418
0.00739428
0.0073584
0.00731669
0.00726963
0.00721767
0.00715529
0.00707739
0.000379796
0.000302151
0.000241413
0.000192328
0.000149093
0.00011173
8.03489e-05
5.47527e-05
3.474e-05
2.00977e-05
1.06457e-05
6.26389e-06
6.85641e-06
1.23278e-05
2.25898e-05
3.75659e-05
5.71939e-05
8.1431e-05
0.000110253
0.000143649
0.000181609
0.000224125
0.000271185
0.000322778
0.000378904
0.00043957
0.000504788
0.000574563
0.00064889
0.000727748
0.000811108
0.000898938
0.000991206
0.00108787
0.00118888
0.00129416
0.00140362
0.00151715
0.00163463
0.00175593
0.00188094
0.00200951
0.00214151
0.00227678
0.00241516
0.00255646
0.00270051
0.00284713
0.00299614
0.00314733
0.0033005
0.00345544
0.00361191
0.00376966
0.00392841
0.00408787
0.00424772
0.00440764
0.0045673
0.00472634
0.00488442
0.00504115
0.00519618
0.00534911
0.00549955
0.00564712
0.00579143
0.0059321
0.00606875
0.00620103
0.00632857
0.00645103
0.00656805
0.00667931
0.00678449
0.00688328
0.0069754
0.00706061
0.00713866
0.00720938
0.0072726
0.00732821
0.00737614
0.00741634
0.00744882
0.00747362
0.00749083
0.00750056
0.00750295
0.00749816
0.0074864
0.00746787
0.00744278
0.00741134
0.00737371
0.00733003
0.00728085
0.00722662
0.0071617
0.00708084
0.00036553
0.000285168
0.000222179
0.000171113
0.000126046
8.70906e-05
5.43227e-05
2.74739e-05
6.34216e-06
-9.26381e-06
-1.9539e-05
-2.46339e-05
-2.46639e-05
-1.97395e-05
-9.96638e-06
4.56662e-06
2.37924e-05
4.76683e-05
7.61703e-05
0.000109281
0.000146983
0.000189258
0.000236091
0.000287479
0.00034343
0.000403957
0.000469069
0.000538765
0.000613037
0.000691865
0.000775227
0.000863097
0.000955448
0.00105224
0.00115341
0.00125889
0.00136858
0.00148238
0.00160018
0.00172185
0.00184727
0.00197633
0.00210887
0.00224476
0.00238381
0.00252588
0.00267078
0.00281834
0.00296839
0.00312073
0.00327516
0.00343145
0.00358936
0.00374864
0.003909
0.00407013
0.00423172
0.00439344
0.00455493
0.00471585
0.00487584
0.00503451
0.0051915
0.00534641
0.00549884
0.00564842
0.00579475
0.00593744
0.00607612
0.00621041
0.00633993
0.00646433
0.00658325
0.00669633
0.00680325
0.00690369
0.00699734
0.00708394
0.00716327
0.0072351
0.00729929
0.0073557
0.00740426
0.00744492
0.00747768
0.00750257
0.00751967
0.00752909
0.00753096
0.00752545
0.00751276
0.00749308
0.00746663
0.00743364
0.00739426
0.00734867
0.00729744
0.00724106
0.00717377
0.0070902
0.00034367
0.000260783
0.000195734
0.000142874
9.60956e-05
5.55904e-05
2.1473e-05
-6.58609e-06
-2.88195e-05
-4.53949e-05
-5.64997e-05
-6.23122e-05
-6.29787e-05
-5.86266e-05
-4.93685e-05
-3.52938e-05
-1.64687e-05
7.06061e-06
3.5261e-05
6.81051e-05
0.000105568
0.000147629
0.000194278
0.000245518
0.00030136
0.000361817
0.000426895
0.000496588
0.000570885
0.000649771
0.00073323
0.000821243
0.000913782
0.00101081
0.00111225
0.00121804
0.00132808
0.00144227
0.00156051
0.00168269
0.00180869
0.00193838
0.00207164
0.00220832
0.00234826
0.0024913
0.00263728
0.00278603
0.00293738
0.00309113
0.00324708
0.00340501
0.00356465
0.00372575
0.003888
0.0040511
0.00421473
0.00437853
0.00454217
0.00470527
0.00486747
0.0050284
0.00518767
0.00534488
0.00549964
0.00565156
0.00580023
0.00594528
0.00608629
0.0062229
0.00635471
0.00648133
0.0066024
0.00671755
0.00682642
0.00692869
0.00702404
0.0071122
0.00719291
0.00726598
0.00733122
0.00738851
0.00743775
0.0074789
0.00751196
0.00753694
0.00755393
0.00756301
0.00756433
0.00755807
0.0075444
0.00752354
0.00749572
0.00746117
0.00742007
0.0073726
0.00731938
0.00726095
0.00719142
0.00710534
0.000314175
0.000228887
0.000161894
0.000107389
5.90216e-05
1.701e-05
-1.84459e-05
-4.76806e-05
-7.09721e-05
-8.84971e-05
-0.000100435
-0.000106979
-0.000108299
-0.000104533
-9.57957e-05
-8.21754e-05
-6.37384e-05
-4.05387e-05
-1.26217e-05
1.99742e-05
5.72211e-05
9.91031e-05
0.000145617
0.000196768
0.000252568
0.000313023
0.000378135
0.000447896
0.000522299
0.000601332
0.000684985
0.000773241
0.000866071
0.000963431
0.00106525
0.00117146
0.00128196
0.00139667
0.00151549
0.00163832
0.00176504
0.00189555
0.0020297
0.00216736
0.00230839
0.00245262
0.00259991
0.00275009
0.002903
0.00305844
0.0032162
0.00337603
0.00353769
0.00370088
0.00386533
0.00403069
0.00419664
0.00436284
0.00452892
0.00469451
0.00485925
0.00502276
0.00518463
0.00534449
0.00550192
0.00565652
0.00580788
0.00595561
0.0060993
0.00623854
0.00637292
0.00650205
0.00662553
0.00674297
0.00685401
0.0069583
0.00705552
0.00714537
0.00722761
0.00730201
0.00736839
0.00742663
0.00747661
0.0075183
0.00755167
0.00757674
0.00759359
0.00760232
0.00760307
0.00759601
0.00758133
0.00755927
0.00753005
0.00749393
0.00745112
0.00740181
0.00734666
0.00728625
0.0072146
0.00712615
0.000276983
0.000189409
0.000120525
6.44436e-05
1.45909e-05
-2.88554e-05
-6.56277e-05
-9.60153e-05
-0.000120326
-0.000138774
-0.000151547
-0.000158837
-0.000160821
-0.000157642
-0.000149414
-0.000136229
-0.000118163
-9.52787e-05
-6.763e-05
-3.52602e-05
1.80312e-06
4.35495e-05
8.99804e-05
0.000141102
0.000196921
0.000257437
0.000322648
0.00039255
0.000467138
0.000546407
0.000630349
0.000718946
0.000812166
0.000909959
0.00101226
0.00111899
0.00123008
0.00134543
0.00146497
0.00158859
0.0017162
0.00184768
0.00198291
0.00212175
0.00226407
0.00240972
0.00255856
0.00271044
0.00286517
0.00302256
0.00318238
0.0033444
0.00350835
0.00367393
0.00384085
0.00400877
0.00417735
0.00434623
0.00451507
0.00468348
0.00485109
0.00501751
0.00518234
0.00534518
0.00550563
0.00566327
0.00581768
0.00596844
0.00611512
0.00625731
0.00639456
0.00652647
0.00665261
0.00677258
0.006886
0.0069925
0.00709175
0.00718346
0.00726735
0.0073432
0.00741082
0.00747008
0.00752087
0.00756312
0.00759682
0.00762199
0.0076387
0.00764705
0.0076472
0.00763931
0.0076236
0.00760031
0.00756968
0.00753198
0.00748746
0.00743633
0.00737929
0.00731697
0.00724327
0.00715255
0.000231978
0.00014225
7.15256e-05
1.3873e-05
-3.74056e-05
-8.21968e-05
-0.000120234
-0.000151757
-0.000177074
-0.000196432
-0.000210036
-0.000218075
-0.00022072
-0.000218113
-0.000210375
-0.000197606
-0.000179893
-0.00015731
-0.000129913
-9.77419e-05
-6.08218e-05
-1.91613e-05
2.72407e-05
7.83874e-05
0.00013428
0.000194916
0.000260291
0.000330405
0.000405259
0.000484852
0.000569174
0.000658204
0.000751905
0.000850226
0.000953104
0.00106047
0.00117225
0.00128838
0.00140878
0.00153335
0.001662
0.00179463
0.00193111
0.00207134
0.00221517
0.00236247
0.00251311
0.00266692
0.00282373
0.00298334
0.00314551
0.00330998
0.0034765
0.00364475
0.00381442
0.00398518
0.00415668
0.00432857
0.00450048
0.00467204
0.00484285
0.00501254
0.00518069
0.00534689
0.00551072
0.00567176
0.00582956
0.00598369
0.0061337
0.00627915
0.00641957
0.00655453
0.00668359
0.00680632
0.00692234
0.00703125
0.00713272
0.00722644
0.00731213
0.00738956
0.00745853
0.00751889
0.00757054
0.0076134
0.00764746
0.00767274
0.00768931
0.00769728
0.0076968
0.00768807
0.0076713
0.00764675
0.0076147
0.00757542
0.00752919
0.00747625
0.00741735
0.00735315
0.00727746
0.0071845
0.000179013
8.72731e-05
1.47926e-05
-4.44251e-05
-9.71164e-05
-0.000143189
-0.00018243
-0.000215072
-0.000241398
-0.000261666
-0.000276093
-0.000284864
-0.000288149
-0.000286094
-0.000278826
-0.000266457
-0.000249084
-0.000226783
-0.000199612
-0.000167606
-0.000130785
-8.91607e-05
-4.27364e-05
8.48523e-06
6.45022e-05
0.000125313
0.000190916
0.000261315
0.000336514
0.000416513
0.000501299
0.000590846
0.000685115
0.000784054
0.000887608
0.000995716
0.00110832
0.00122535
0.00134674
0.00147241
0.00160227
0.00173622
0.00187416
0.00201597
0.00216153
0.00231072
0.00246339
0.00261939
0.00277854
0.00294061
0.00310538
0.00327258
0.00344193
0.00361312
0.00378583
0.00395973
0.00413446
0.00430967
0.00448498
0.00466002
0.0048344
0.00500771
0.00517954
0.00534946
0.00551705
0.00568186
0.00584342
0.00600127
0.00615494
0.00630396
0.00644785
0.00658614
0.00671838
0.00684413
0.00696296
0.0070745
0.00717839
0.0072743
0.00736196
0.0074411
0.00751154
0.00757311
0.0076257
0.00766923
0.00770369
0.0077291
0.00774553
0.00775311
0.00775201
0.00774241
0.00772457
0.00769875
0.00766526
0.00762439
0.00757645
0.00752171
0.00746095
0.00739488
0.0073172
0.00722202
0.000117986
2.43355e-05
-4.97979e-05
-0.000110533
-0.000164642
-0.000211985
-0.000252396
-0.000286138
-0.000313473
-0.000334645
-0.000349875
-0.000359355
-0.000363254
-0.000361729
-0.000354918
-0.000342938
-0.000325889
-0.000303846
-0.000276867
-0.000244984
-0.000208218
-0.000166585
-0.000120094
-6.87524e-05
-1.25628e-05
4.84765e-05
0.00011437
0.000185125
0.000260745
0.000341227
0.000426553
0.000516694
0.00061161
0.000711257
0.000815584
0.000924543
0.00103808
0.00115615
0.00127868
0.0014056
0.00153682
0.00167228
0.00181185
0.00195545
0.00210297
0.00225427
0.00240921
0.00256764
0.00272937
0.00289417
0.00306179
0.00323197
0.00340441
0.00357881
0.00375485
0.00393218
0.00411044
0.00428929
0.00446834
0.00464722
0.00482551
0.00500282
0.00517871
0.00535275
0.00552447
0.00569342
0.0058591
0.00602102
0.00617869
0.0063316
0.00647926
0.00662118
0.00675687
0.0068859
0.00700781
0.00712222
0.00722875
0.00732706
0.00741686
0.00749788
0.00756993
0.00763282
0.00768644
0.00773072
0.00776563
0.0077912
0.00780753
0.00781474
0.007813
0.00780253
0.00778361
0.0077565
0.00772155
0.00767908
0.0076294
0.00757284
0.00751021
0.00744226
0.00736256
0.0072651
4.88942e-05
-4.66575e-05
-0.000122384
-0.00018457
-0.000240089
-0.000288723
-0.000330303
-0.000365127
-0.000393454
-0.000415512
-0.000431523
-0.000441688
-0.000446184
-0.000445175
-0.000438808
-0.000427203
-0.000410456
-0.000388641
-0.000361814
-0.000330012
-0.000293262
-0.000251583
-0.000204988
-0.000153485
-9.70744e-05
-3.5751e-05
3.04951e-05
0.000101672
0.00017778
0.000258811
0.000344745
0.000435551
0.000531192
0.000631632
0.000736831
0.000846749
0.000961345
0.00108057
0.00120438
0.0013327
0.00146546
0.00160259
0.001744
0.0018896
0.00203927
0.0021929
0.00235035
0.00251144
0.00267598
0.00284374
0.00301446
0.00318786
0.00336366
0.00354154
0.00372118
0.00390224
0.00408435
0.00426717
0.00445031
0.00463337
0.00481596
0.00499765
0.00517799
0.00535652
0.00553276
0.00570623
0.00587639
0.00604274
0.00620475
0.00636189
0.00651364
0.0066595
0.00679896
0.00693155
0.00705683
0.00717436
0.00728378
0.00738472
0.00747687
0.00755996
0.00763377
0.00769812
0.00775289
0.007798
0.00783344
0.00785923
0.00787549
0.00788234
0.00787997
0.00786864
0.00784861
0.00782021
0.00778377
0.00773966
0.00768823
0.00762981
0.00756526
0.00749537
0.00741358
0.00731376
-2.82236e-05
-0.000125754
-0.000203093
-0.000266693
-0.000323601
-0.000373542
-0.0004163
-0.000452191
-0.000481486
-0.000504407
-0.00052118
-0.000532015
-0.000537099
-0.000536599
-0.000530662
-0.000519409
-0.000502935
-0.000481314
-0.000454603
-0.000422847
-0.000386079
-0.000344322
-0.000297589
-0.000245884
-0.000189205
-0.000127542
-6.0885e-05
1.07724e-05
8.74272e-05
0.000169067
0.000255668
0.000347205
0.000443647
0.000544966
0.000651133
0.000762119
0.00087789
0.000998408
0.00112363
0.0012535
0.00138796
0.00152694
0.00167037
0.00181816
0.0019702
0.00212638
0.00228654
0.00245051
0.00261808
0.00278902
0.00296307
0.00313994
0.00331935
0.00350098
0.0036845
0.00386959
0.00405587
0.00424299
0.00443057
0.0046182
0.00480546
0.00499191
0.0051771
0.00536052
0.00554167
0.00572003
0.00589506
0.0060662
0.00623292
0.00639464
0.00655084
0.00670097
0.00684453
0.00698101
0.00710995
0.00723092
0.0073435
0.00744732
0.00754206
0.00762743
0.00770319
0.00776916
0.00782521
0.00787126
0.00790731
0.00793339
0.00794961
0.00795613
0.00795316
0.00794095
0.0079198
0.00789006
0.0078521
0.00780632
0.00775306
0.00769272
0.00762617
0.00755426
0.00747028
0.00736797
-0.000113389
-0.000213001
-0.000292028
-0.000357055
-0.000415335
-0.00046658
-0.000510518
-0.000547464
-0.000577709
-0.000601481
-0.000619008
-0.000630507
-0.000636172
-0.00063617
-0.000630643
-0.000619715
-0.000603482
-0.000582023
-0.0005554
-0.000523663
-0.000486851
-0.000444986
-0.000398081
-0.000346134
-0.000289139
-0.000227086
-0.000159966
-8.77773e-05
-1.05271e-05
7.17703e-05
0.000159096
0.000251427
0.000348745
0.000451028
0.00055826
0.000670418
0.000787479
0.000909414
0.00103619
0.00116776
0.00130407
0.00144508
0.0015907
0.00174087
0.00189547
0.00205439
0.00221747
0.00238452
0.00255534
0.00272968
0.00290727
0.00308785
0.00327111
0.00345676
0.00364445
0.00383387
0.00402465
0.00421642
0.0044088
0.00460137
0.0047937
0.00498531
0.00517574
0.00536445
0.00555091
0.00573457
0.00591485
0.00609117
0.00626297
0.00642966
0.00659067
0.00674546
0.00689347
0.00703421
0.00716717
0.00729189
0.00740794
0.00751493
0.00761252
0.0077004
0.00777831
0.00784608
0.00790356
0.00795068
0.00798744