/*--------------------------------*- C++ -*----------------------------------*\
  =========                 |
  \\      /  F ield         | OpenFOAM: The Open Source CFD Toolbox
   \\    /   O peration     | Website:  https://openfoam.org
    \\  /    A nd           | Version:  7
     \\/     M anipulation  |
\*---------------------------------------------------------------------------*/
FoamFile
{
    version     2.0;
    format      ascii;
    class       surfaceScalarField;
    location    "0.125";
    object      phi;
}
// * * * * * * * * * * * * * * * * * * * * * * * * * * * * * * * * * * * * * //

dimensions      [0 3 -1 0 0 0 0];

internalField   nonuniform List<scalar> 
19800
(
6.23596e-11
-6.23562e-11
1.29734e-10
-6.73708e-11
1.49201e-10
-1.94665e-11
9.1575e-11
5.76392e-11
-4.87009e-11
1.40284e-10
-2.69813e-10
2.21114e-10
-5.65305e-10
2.95493e-10
-9.26769e-10
3.61463e-10
-1.34547e-09
4.18691e-10
-1.81283e-09
4.67352e-10
-2.32069e-09
5.0786e-10
-2.86154e-09
5.40849e-10
-3.42868e-09
5.67138e-10
-4.01622e-09
5.87528e-10
-4.61896e-09
6.02731e-10
-5.23235e-09
6.13401e-10
-5.85247e-09
6.20118e-10
-6.47588e-09
6.23405e-10
-7.09962e-09
6.23742e-10
-7.72119e-09
6.21564e-10
-8.33849e-09
6.17291e-10
-8.94978e-09
6.113e-10
-9.55363e-09
6.03847e-10
-1.01487e-08
5.95067e-10
-1.07338e-08
5.85075e-10
-1.13078e-08
5.74031e-10
-1.18699e-08
5.62103e-10
-1.24193e-08
5.49408e-10
-1.29553e-08
5.36e-10
-1.34772e-08
5.21902e-10
-1.39844e-08
5.07117e-10
-1.4476e-08
4.91641e-10
-1.49515e-08
4.75482e-10
-1.54102e-08
4.5867e-10
-1.58514e-08
4.41229e-10
-1.62745e-08
4.23154e-10
-1.6679e-08
4.04421e-10
-1.7064e-08
3.85009e-10
-1.74289e-08
3.64916e-10
-1.7773e-08
3.44154e-10
-1.80958e-08
3.22734e-10
-1.83965e-08
3.00658e-10
-1.86744e-08
2.77919e-10
-1.89289e-08
2.5451e-10
-1.91593e-08
2.3043e-10
-1.9365e-08
2.05692e-10
-1.95453e-08
1.8032e-10
-1.96997e-08
1.54331e-10
-1.98274e-08
1.27731e-10
-1.99279e-08
1.00521e-10
-2.00006e-08
7.27094e-11
-2.00449e-08
4.43283e-11
-2.00604e-08
1.54221e-11
-2.00464e-08
-1.39665e-11
-2.00026e-08
-4.3802e-11
-1.99286e-08
-7.40542e-11
-1.98239e-08
-1.04686e-10
-1.96882e-08
-1.35649e-10
-1.95213e-08
-1.66884e-10
-1.9323e-08
-1.98326e-10
-1.90931e-08
-2.29907e-10
-1.88315e-08
-2.61556e-10
-1.85383e-08
-2.93204e-10
-1.82136e-08
-3.24782e-10
-1.78573e-08
-3.56214e-10
-1.74699e-08
-3.87417e-10
-1.70516e-08
-4.18295e-10
-1.66029e-08
-4.48744e-10
-1.61242e-08
-4.78654e-10
-1.56163e-08
-5.07905e-10
-1.508e-08
-5.36369e-10
-1.45161e-08
-5.63904e-10
-1.39257e-08
-5.90352e-10
-1.33102e-08
-6.15539e-10
-1.26709e-08
-6.39267e-10
-1.20096e-08
-6.61317e-10
-1.13281e-08
-6.81447e-10
-1.06287e-08
-6.99389e-10
-9.9139e-09
-7.14844e-10
-9.18643e-09
-7.27481e-10
-8.44949e-09
-7.36932e-10
-7.70669e-09
-7.428e-10
-6.96205e-09
-7.44647e-10
-6.22005e-09
-7.41999e-10
-5.48571e-09
-7.3434e-10
-4.76459e-09
-7.21122e-10
-4.06282e-09
-7.01772e-10
-3.38714e-09
-6.7569e-10
-2.74487e-09
-6.42268e-10
-2.14397e-09
-6.009e-10
-1.59296e-09
-5.51012e-10
-1.10086e-09
-4.92103e-10
-6.7702e-10
-4.23837e-10
-3.30828e-10
-3.46194e-10
-7.10435e-11
-2.59788e-10
9.54842e-11
-1.66529e-10
1.66368e-10
-7.08836e-11
1.48529e-10
1.78357e-11
6.97447e-11
7.87741e-11
6.97347e-11
7.81948e-11
-1.40546e-10
1.09901e-10
-9.90731e-11
5.06303e-12
8.53687e-11
-2.7737e-10
3.40067e-10
-7.56847e-10
6.19761e-10
-1.43276e-09
8.97029e-10
-2.29411e-09
1.15683e-09
-3.32415e-09
1.3915e-09
-4.50347e-09
1.59801e-09
-5.81202e-09
1.77591e-09
-7.23016e-09
1.92599e-09
-8.73921e-09
2.04991e-09
-1.0322e-08
2.14989e-09
-1.19627e-08
2.22831e-09
-1.36475e-08
2.28747e-09
-1.53637e-08
2.3296e-09
-1.71004e-08
2.35683e-09
-1.88481e-08
2.3711e-09
-2.05985e-08
2.37417e-09
-2.23446e-08
2.36759e-09
-2.408e-08
2.35277e-09
-2.57997e-08
2.33093e-09
-2.74989e-08
2.30307e-09
-2.91738e-08
2.26994e-09
-3.08208e-08
2.23216e-09
-3.24371e-08
2.19029e-09
-3.40198e-08
2.14483e-09
-3.55666e-08
2.09613e-09
-3.7075e-08
2.04445e-09
-3.85431e-08
1.98995e-09
-3.99687e-08
1.93274e-09
-4.135e-08
1.87289e-09
-4.26849e-08
1.81045e-09
-4.39717e-08
1.74547e-09
-4.52085e-08
1.678e-09
-4.63934e-08
1.60803e-09
-4.75245e-08
1.53554e-09
-4.86001e-08
1.46054e-09
-4.96182e-08
1.38301e-09
-5.0577e-08
1.30296e-09
-5.14746e-08
1.2204e-09
-5.23093e-08
1.13535e-09
-5.30792e-08
1.04782e-09
-5.37825e-08
9.57819e-10
-5.44175e-08
8.65379e-10
-5.49823e-08
7.7053e-10
-5.54753e-08
6.73321e-10
-5.58948e-08
5.73803e-10
-5.62391e-08
4.7203e-10
-5.65066e-08
3.68065e-10
-5.66959e-08
2.61988e-10
-5.68055e-08
1.539e-10
-5.6834e-08
4.39213e-11
-5.67801e-08
-6.78162e-11
-5.66428e-08
-1.81177e-10
-5.64208e-08
-2.96012e-10
-5.61133e-08
-4.12155e-10
-5.57196e-08
-5.29416e-10
-5.52389e-08
-6.47588e-10
-5.46707e-08
-7.66448e-10
-5.40149e-08
-8.85761e-10
-5.32711e-08
-1.00528e-09
-5.24396e-08
-1.12473e-09
-5.15206e-08
-1.24383e-09
-5.05145e-08
-1.36228e-09
-4.94222e-08
-1.47976e-09
-4.82446e-08
-1.5959e-09
-4.6983e-08
-1.71034e-09
-4.5639e-08
-1.82264e-09
-4.42145e-08
-1.93236e-09
-4.27119e-08
-2.03901e-09
-4.11338e-08
-2.14204e-09
-3.94833e-08
-2.24085e-09
-3.7764e-08
-2.33476e-09
-3.59803e-08
-2.42306e-09
-3.41367e-08
-2.5049e-09
-3.22388e-08
-2.57937e-09
-3.02927e-08
-2.64548e-09
-2.83054e-08
-2.7021e-09
-2.62849e-08
-2.748e-09
-2.424e-08
-2.78184e-09
-2.21807e-08
-2.80213e-09
-2.0118e-08
-2.80728e-09
-1.80644e-08
-2.79558e-09
-1.60336e-08
-2.76519e-09
-1.40405e-08
-2.71418e-09
-1.21017e-08
-2.64058e-09
-1.0235e-08
-2.54237e-09
-8.4597e-09
-2.41759e-09
-6.79621e-09
-2.2644e-09
-5.26602e-09
-2.08121e-09
-3.89117e-09
-1.86696e-09
-2.69357e-09
-1.62143e-09
-1.69387e-09
-1.3459e-09
-9.09502e-10
-1.04416e-09
-3.51533e-10
-7.245e-10
-1.94833e-11
-4.02932e-10
1.07009e-10
-1.08648e-10
7.8788e-11
1.07009e-10
1.48515e-10
2.12333e-11
-1.61779e-10
-7.96673e-11
1.83997e-12
-3.96269e-10
4.01978e-10
-9.75719e-10
9.19518e-10
-1.83759e-09
1.48163e-09
-2.98206e-09
2.04149e-09
-4.39584e-09
2.5706e-09
-6.05755e-09
3.05322e-09
-7.94139e-09
3.48185e-09
-1.00197e-08
3.85418e-09
-1.22645e-08
4.17086e-09
-1.46491e-08
4.43445e-09
-1.71479e-08
4.64874e-09
-1.97377e-08
4.81804e-09
-2.2397e-08
4.94682e-09
-2.51069e-08
5.0395e-09
-2.78504e-08
5.1003e-09
-3.06125e-08
5.13321e-09
-3.33802e-08
5.14184e-09
-3.61421e-08
5.12948e-09
-3.88883e-08
5.09902e-09
-4.16104e-08
5.05298e-09
-4.43008e-08
4.99347e-09
-4.69531e-08
4.92221e-09
-4.95615e-08
4.84062e-09
-5.21212e-08
4.74992e-09
-5.46274e-08
4.65111e-09
-5.70763e-08
4.54498e-09
-5.9464e-08
4.43211e-09
-6.17869e-08
4.31291e-09
-6.40419e-08
4.18768e-09
-6.62256e-08
4.05661e-09
-6.8335e-08
3.91988e-09
-7.03671e-08
3.77759e-09
-7.2319e-08
3.62982e-09
-7.41875e-08
3.4766e-09
-7.59699e-08
3.31794e-09
-7.76632e-08
3.15384e-09
-7.92646e-08
2.98432e-09
-8.0771e-08
2.8094e-09
-8.21797e-08
2.62911e-09
-8.34878e-08
2.44347e-09
-8.46925e-08
2.25252e-09
-8.5791e-08
2.0563e-09
-8.67805e-08
1.8549e-09
-8.76584e-08
1.6484e-09
-8.8422e-08
1.43691e-09
-8.90687e-08
1.22055e-09
-8.95962e-08
9.99443e-10
-9.00019e-08
7.73758e-10
-9.02835e-08
5.43681e-10
-9.04391e-08
3.09437e-10
-9.04665e-08
7.12808e-11
-9.03638e-08
-1.70507e-10
-9.01293e-08
-4.15627e-10
-8.97616e-08
-6.63752e-10
-8.92592e-08
-9.14517e-10
-8.86211e-08
-1.16752e-09
-8.78464e-08
-1.42232e-09
-8.69344e-08
-1.67845e-09
-8.58847e-08
-1.93541e-09
-8.46973e-08
-2.19266e-09
-8.33724e-08
-2.44962e-09
-8.19106e-08
-2.7057e-09
-8.03126e-08
-2.96024e-09
-7.85798e-08
-3.21252e-09
-7.6714e-08
-3.46179e-09
-7.47171e-08
-3.70722e-09
-7.25918e-08
-3.94791e-09
-7.03413e-08
-4.18289e-09
-6.79692e-08
-4.41109e-09
-6.54799e-08
-4.63134e-09
-6.28784e-08
-4.84233e-09
-6.01705e-08
-5.04264e-09
-5.73629e-08
-5.23068e-09
-5.44631e-08
-5.40467e-09
-5.14798e-08
-5.56269e-09
-4.84227e-08
-5.70256e-09
-4.53029e-08
-5.82193e-09
-4.21327e-08
-5.91817e-09
-3.89261e-08
-5.98844e-09
-3.56986e-08
-6.02965e-09
-3.24674e-08
-6.03846e-09
-2.92517e-08
-6.01131e-09
-2.60725e-08
-5.94446e-09
-2.29526e-08
-5.83401e-09
-1.99172e-08
-5.676e-09
-1.6993e-08
-5.46654e-09
-1.42088e-08
-5.20188e-09
-1.15944e-08
-4.87875e-09
-9.18101e-09
-4.4946e-09
-6.9998e-09
-4.04816e-09
-5.08104e-09
-3.54019e-09
-3.45223e-09
-2.9747e-09
-2.13553e-09
-2.36087e-09
-1.14386e-09
-1.71618e-09
-4.75354e-10
-1.07145e-09
-1.06223e-10
-4.77789e-10
1.85332e-11
-1.77418e-11
1.67044e-10
-5.72241e-11
-1.04553e-10
-3.39956e-10
2.84569e-10
-9.213e-10
9.83324e-10
-1.83996e-09
1.83817e-09
-3.11168e-09
2.75335e-09
-4.73365e-09
3.66347e-09
-6.68981e-09
4.52676e-09
-8.95523e-09
5.31864e-09
-1.14996e-08
6.02626e-09
-1.42901e-08
6.64467e-09
-1.72931e-08
7.17385e-09
-2.04756e-08
7.61695e-09
-2.38061e-08
7.97921e-09
-2.72551e-08
8.26701e-09
-3.07955e-08
8.48722e-09
-3.44028e-08
8.64684e-09
-3.80552e-08
8.75266e-09
-4.17331e-08
8.8111e-09
-4.54193e-08
8.82806e-09
-4.90987e-08
8.80889e-09
-5.2758e-08
8.75838e-09
-5.63858e-08
8.68072e-09
-5.99718e-08
8.57949e-09
-6.35073e-08
8.4577e-09
-6.69845e-08
8.31782e-09
-7.03965e-08
8.16191e-09
-7.37371e-08
7.99166e-09
-7.70005e-08
7.80842e-09
-8.01816e-08
7.61323e-09
-8.32756e-08
7.40689e-09
-8.62779e-08
7.18997e-09
-8.91842e-08
6.96289e-09
-9.19902e-08
6.72595e-09
-9.4692e-08
6.47937e-09
-9.72855e-08
6.22329e-09
-9.97667e-08
5.95782e-09
-1.02132e-07
5.68301e-09
-1.04377e-07
5.3989e-09
-1.06498e-07
5.10555e-09
-1.08492e-07
4.803e-09
-1.10354e-07
4.4913e-09
-1.12081e-07
4.17053e-09
-1.13669e-07
3.84076e-09
-1.15115e-07
3.50211e-09
-1.16415e-07
3.1547e-09
-1.17565e-07
2.7987e-09
-1.18562e-07
2.4343e-09
-1.19404e-07
2.06173e-09
-1.20085e-07
1.68126e-09
-1.20605e-07
1.29317e-09
-1.20959e-07
8.9779e-10
-1.21145e-07
4.95516e-10
-1.21161e-07
8.67782e-11
-1.21003e-07
-3.27941e-10
-1.20671e-07
-7.48114e-10
-1.20161e-07
-1.17317e-09
-1.19473e-07
-1.60247e-09
-1.18605e-07
-2.03536e-09
-1.17557e-07
-2.47108e-09
-1.16326e-07
-2.90884e-09
-1.14914e-07
-3.3478e-09
-1.1332e-07
-3.78703e-09
-1.11544e-07
-4.22557e-09
-1.09587e-07
-4.66236e-09
-1.07451e-07
-5.09629e-09
-1.05137e-07
-5.52615e-09
-1.02648e-07
-5.95065e-09
-9.99872e-08
-6.36837e-09
-9.71574e-08
-6.77778e-09
-9.41631e-08
-7.17721e-09
-9.10093e-08
-7.56483e-09
-8.7702e-08
-7.93864e-09
-8.4248e-08
-8.29642e-09
-8.06549e-08
-8.63573e-09
-7.69317e-08
-8.95388e-09
-7.30885e-08
-9.24788e-09
-6.91367e-08
-9.51443e-09
-6.50894e-08
-9.74989e-09
-6.0961e-08
-9.95027e-09
-5.6768e-08
-1.01112e-08
-5.25286e-08
-1.02279e-08
-4.82631e-08
-1.02952e-08
-4.39939e-08
-1.03076e-08
-3.97459e-08
-1.02593e-08
-3.55462e-08
-1.01442e-08
-3.14242e-08
-9.95601e-09
-2.74117e-08
-9.68847e-09
-2.35428e-08
-9.3355e-09
-1.98532e-08
-8.89149e-09
-1.63802e-08
-8.35171e-09
-1.31619e-08
-7.71288e-09
-1.02361e-08
-6.974e-09
-7.63871e-09
-6.13758e-09
-5.40202e-09
-5.21139e-09
-3.55172e-09
-4.21116e-09
-2.10331e-09
-3.1646e-09
-1.05736e-09
-2.1174e-09
-3.94202e-10
-1.14096e-09
-6.82477e-11
-3.43698e-10
9.87943e-11
-1.42122e-10
3.75683e-11
-6.25367e-10
7.67809e-10
-1.49411e-09
1.85206e-09
-2.77191e-09
3.11597e-09
-4.46503e-09
4.44647e-09
-6.56474e-09
5.76317e-09
-9.05069e-09
7.01272e-09
-1.18943e-08
8.1622e-09
-1.50614e-08
9.19344e-09
-1.85152e-08
1.00985e-08
-2.22177e-08
1.08763e-08
-2.61313e-08
1.15306e-08
-3.022e-08
1.20679e-08
-3.44497e-08
1.24967e-08
-3.87887e-08
1.28262e-08
-4.32082e-08
1.30663e-08
-4.7682e-08
1.32265e-08
-5.2187e-08
1.33161e-08
-5.67023e-08
1.33434e-08
-6.12097e-08
1.33163e-08
-6.5693e-08
1.32417e-08
-7.0138e-08
1.31257e-08
-7.45321e-08
1.29736e-08
-7.88644e-08
1.279e-08
-8.31252e-08
1.25785e-08
-8.73057e-08
1.23424e-08
-9.13981e-08
1.20841e-08
-9.53955e-08
1.18058e-08
-9.92911e-08
1.15089e-08
-1.03079e-07
1.11948e-08
-1.06753e-07
1.08644e-08
-1.10309e-07
1.05184e-08
-1.1374e-07
1.01573e-08
-1.17043e-07
9.7816e-09
-1.20211e-07
9.39141e-09
-1.2324e-07
8.98698e-09
-1.26125e-07
8.56845e-09
-1.28862e-07
8.13593e-09
-1.31446e-07
7.68951e-09
-1.33873e-07
7.22928e-09
-1.36137e-07
6.75535e-09
-1.38234e-07
6.26787e-09
-1.4016e-07
5.76696e-09
-1.41911e-07
5.25283e-09
-1.43482e-07
4.7257e-09
-1.44869e-07
4.18582e-09
-1.46068e-07
3.6335e-09
-1.47076e-07
3.06911e-09
-1.47887e-07
2.49306e-09
-1.485e-07
1.90582e-09
-1.4891e-07
1.30791e-09
-1.49115e-07
6.99923e-10
-1.4911e-07
8.25158e-11
-1.48895e-07
-5.43586e-10
-1.48465e-07
-1.17758e-09
-1.4782e-07
-1.8186e-09
-1.46957e-07
-2.46569e-09
-1.45874e-07
-3.11784e-09
-1.44571e-07
-3.77393e-09
-1.43047e-07
-4.43279e-09
-1.41302e-07
-5.09313e-09
-1.39335e-07
-5.75359e-09
-1.37148e-07
-6.41269e-09
-1.34742e-07
-7.06888e-09
-1.32118e-07
-7.72046e-09
-1.29278e-07
-8.36562e-09
-1.26226e-07
-9.00241e-09
-1.22966e-07
-9.6287e-09
-1.19502e-07
-1.02422e-08
-1.15838e-07
-1.08404e-08
-1.11983e-07
-1.14205e-08
-1.07942e-07
-1.19796e-08
-1.03724e-07
-1.25143e-08
-9.93386e-08
-1.30209e-08
-9.4797e-08
-1.34955e-08
-9.01113e-08
-1.39336e-08
-8.52956e-08
-1.43302e-08
-8.03655e-08
-1.468e-08
-7.53388e-08
-1.4977e-08
-7.02352e-08
-1.52148e-08
-6.50767e-08
-1.53864e-08
-5.98877e-08
-1.54842e-08
-5.46949e-08
-1.55003e-08
-4.9528e-08
-1.54263e-08
-4.44189e-08
-1.52532e-08
-3.94025e-08
-1.49724e-08
-3.45159e-08
-1.4575e-08
-2.97987e-08
-1.40527e-08
-2.52923e-08
-1.33979e-08
-2.10395e-08
-1.26046e-08
-1.70834e-08
-1.16689e-08
-1.34667e-08
-1.05907e-08
-1.02298e-08
-9.3745e-09
-7.40879e-09
-8.03239e-09
-5.03313e-09
-6.58682e-09
-3.12244e-09
-5.07528e-09
-1.68323e-09
-3.55661e-09
-7.05573e-10
-2.11862e-09
-1.60663e-10
-8.88613e-10
-6.18695e-11
-2.24724e-10
2.62291e-10
-9.10264e-10
1.45334e-09
-2.07066e-09
3.01246e-09
-3.71063e-09
4.75593e-09
-5.82365e-09
6.55948e-09
-8.39259e-09
8.33212e-09
-1.13913e-08
1.00114e-08
-1.47868e-08
1.15577e-08
-1.85414e-08
1.2948e-08
-2.26145e-08
1.41716e-08
-2.69647e-08
1.52265e-08
-3.15509e-08
1.61168e-08
-3.63332e-08
1.68503e-08
-4.12742e-08
1.74376e-08
-4.63385e-08
1.78906e-08
-5.1494e-08
1.82218e-08
-5.67112e-08
1.84437e-08
-6.19635e-08
1.85684e-08
-6.72274e-08
1.86073e-08
-7.24818e-08
1.85706e-08
-7.7708e-08
1.84678e-08
-8.28895e-08
1.83072e-08
-8.80117e-08
1.80958e-08
-9.30617e-08
1.784e-08
-9.80279e-08
1.75448e-08
-1.029e-07
1.72147e-08
-1.07669e-07
1.68531e-08
-1.12326e-07
1.6463e-08
-1.16864e-07
1.60467e-08
-1.21275e-07
1.56059e-08
-1.25553e-07
1.51421e-08
-1.29691e-07
1.46562e-08
-1.33683e-07
1.41491e-08
-1.37522e-07
1.36213e-08
-1.41204e-07
1.30734e-08
-1.44723e-07
1.25055e-08
-1.48072e-07
1.1918e-08
-1.51248e-07
1.13111e-08
-1.54243e-07
1.06848e-08
-1.57053e-07
1.00395e-08
-1.59673e-07
9.37524e-09
-1.62097e-07
8.69227e-09
-1.64321e-07
7.99083e-09
-1.6634e-07
7.27122e-09
-1.68148e-07
6.53376e-09
-1.69741e-07
5.77886e-09
-1.71114e-07
5.00696e-09
-1.72264e-07
4.21859e-09
-1.73185e-07
3.41433e-09
-1.73874e-07
2.59486e-09
-1.74327e-07
1.76093e-09
-1.7454e-07
9.13373e-10
-1.74511e-07
5.31209e-11
-1.74236e-07
-8.18813e-10
-1.73712e-07
-1.70132e-09
-1.72938e-07
-2.59317e-09
-1.7191e-07
-3.49307e-09
-1.70628e-07
-4.39958e-09
-1.69091e-07
-5.31118e-09
-1.67298e-07
-6.22621e-09
-1.65248e-07
-7.14292e-09
-1.62942e-07
-8.0594e-09
-1.60381e-07
-8.97363e-09
-1.57567e-07
-9.88342e-09
-1.54501e-07
-1.07865e-08
-1.51186e-07
-1.16802e-08
-1.47627e-07
-1.25619e-08
-1.43827e-07
-1.34288e-08
-1.39791e-07
-1.42774e-08
-1.35527e-07
-1.51045e-08
-1.31042e-07
-1.59061e-08
-1.26343e-07
-1.66782e-08
-1.21441e-07
-1.74161e-08
-1.16347e-07
-1.81148e-08
-1.11074e-07
-1.87687e-08
-1.05636e-07
-1.93717e-08
-1.00049e-07
-1.99171e-08
-9.43318e-08
-2.03974e-08
-8.85041e-08
-2.08047e-08
-8.25888e-08
-2.11301e-08
-7.66111e-08
-2.13641e-08
-7.05988e-08
-2.14966e-08
-6.45823e-08
-2.15168e-08
-5.85951e-08
-2.14135e-08
-5.26731e-08
-2.11752e-08
-4.68555e-08
-2.07901e-08
-4.11837e-08
-2.02469e-08
-3.57015e-08
-1.95348e-08
-3.04548e-08
-1.86446e-08
-2.54905e-08
-1.75689e-08
-2.08558e-08
-1.63036e-08
-1.65973e-08
-1.48492e-08
-1.2759e-08
-1.32127e-08
-9.38111e-09
-1.14103e-08
-6.49736e-09
-9.47058e-09
-4.13322e-09
-7.43943e-09
-2.3037e-09
-5.38613e-09
-1.01201e-09
-3.41031e-09
-2.49642e-10
-1.65098e-09
-3.11512e-10
-3.01847e-10
5.64136e-10
-1.18174e-09
2.33322e-09
-2.6258e-09
4.45651e-09
-4.61874e-09
6.74888e-09
-7.13986e-09
9.08059e-09
-1.01621e-08
1.13543e-08
-1.36521e-08
1.35015e-08
-1.75717e-08
1.54773e-08
-2.18792e-08
1.72555e-08
-2.65306e-08
1.8823e-08
-3.14814e-08
2.01773e-08
-3.66874e-08
2.13228e-08
-4.21059e-08
2.22688e-08
-4.76964e-08
2.30281e-08
-5.34209e-08
2.36151e-08
-5.92443e-08
2.40452e-08
-6.51346e-08
2.4334e-08
-7.10628e-08
2.44966e-08
-7.70026e-08
2.45471e-08
-8.29309e-08
2.44989e-08
-8.88267e-08
2.43636e-08
-9.46716e-08
2.41521e-08
-1.00449e-07
2.38735e-08
-1.06145e-07
2.35357e-08
-1.11746e-07
2.31456e-08
-1.1724e-07
2.27088e-08
-1.22617e-07
2.223e-08
-1.27867e-07
2.1713e-08
-1.32981e-07
2.11609e-08
-1.37951e-07
2.05761e-08
-1.42769e-07
1.99605e-08
-1.47429e-07
1.93155e-08
-1.51922e-07
1.86423e-08
-1.56242e-07
1.79417e-08
-1.60383e-07
1.72144e-08
-1.64339e-07
1.64608e-08
-1.68102e-07
1.56812e-08
-1.71667e-07
1.48761e-08
-1.75028e-07
1.40458e-08
-1.78179e-07
1.31904e-08
-1.81114e-07
1.23102e-08
-1.83827e-07
1.14057e-08
-1.86313e-07
1.04771e-08
-1.88567e-07
9.52482e-09
-1.90583e-07
8.54939e-09
-1.92355e-07
7.55133e-09
-1.93879e-07
6.53128e-09
-1.95151e-07
5.48994e-09
-1.96164e-07
4.42811e-09
-1.96916e-07
3.34668e-09
-1.97402e-07
2.24668e-09
-1.97618e-07
1.1292e-09
-1.9756e-07
-4.51019e-12
-1.97226e-07
-1.15311e-09
-1.96612e-07
-2.31513e-09
-1.95716e-07
-3.48897e-09
-1.94536e-07
-4.67291e-09
-1.93071e-07
-5.86507e-09
-1.91319e-07
-7.06344e-09
-1.89279e-07
-8.26587e-09
-1.86952e-07
-9.47003e-09
-1.84338e-07
-1.06734e-08
-1.81438e-07
-1.18734e-08
-1.78254e-07
-1.30672e-08
-1.74789e-07
-1.42516e-08
-1.71046e-07
-1.54233e-08
-1.67029e-07
-1.65789e-08
-1.62743e-07
-1.77144e-08
-1.58195e-07
-1.88257e-08
-1.53392e-07
-1.99081e-08
-1.48341e-07
-2.09568e-08
-1.43053e-07
-2.19662e-08
-1.37539e-07
-2.29304e-08
-1.3181e-07
-2.38428e-08
-1.25883e-07
-2.46961e-08
-1.19772e-07
-2.54824e-08
-1.13496e-07
-2.6193e-08
-1.07075e-07
-2.68183e-08
-1.00532e-07
-2.73478e-08
-9.38922e-08
-2.77702e-08
-8.71828e-08
-2.80735e-08
-8.04346e-08
-2.82447e-08
-7.36813e-08
-2.82701e-08
-6.69593e-08
-2.81355e-08
-6.03081e-08
-2.78264e-08
-5.377e-08
-2.73282e-08
-4.73899e-08
-2.6627e-08
-4.12151e-08
-2.57096e-08
-3.52948e-08
-2.45649e-08
-2.96795e-08
-2.31843e-08
-2.44196e-08
-2.15634e-08
-1.95652e-08
-1.97036e-08
-1.5164e-08
-1.76139e-08
-1.12603e-08
-1.53141e-08
-7.89302e-09
-1.28378e-08
-5.09484e-09
-1.02376e-08
-2.89087e-09
-7.5901e-09
-1.29889e-09
-5.0023e-09
-3.31143e-10
-2.61873e-09
-6.42657e-10
-3.72254e-10
9.36389e-10
-1.43372e-09
3.39467e-09
-3.14602e-09
6.16881e-09
-5.47482e-09
9.07769e-09
-8.3849e-09
1.19907e-08
-1.18384e-08
1.48079e-08
-1.57944e-08
1.74574e-08
-2.02086e-08
1.98915e-08
-2.50347e-08
2.20816e-08
-3.02255e-08
2.40138e-08
-3.57331e-08
2.56849e-08
-4.15109e-08
2.71005e-08
-4.75135e-08
2.82714e-08
-5.3698e-08
2.92126e-08
-6.00242e-08
2.99413e-08
-6.64547e-08
3.04757e-08
-7.29554e-08
3.08347e-08
-7.94951e-08
3.10363e-08
-8.60457e-08
3.10977e-08
-9.2582e-08
3.10352e-08
-9.90814e-08
3.08631e-08
-1.05524e-07
3.05945e-08
-1.11891e-07
3.02409e-08
-1.18168e-07
2.98121e-08
-1.24339e-07
2.93166e-08
-1.30391e-07
2.87614e-08
-1.36314e-07
2.81526e-08
-1.42096e-07
2.74948e-08
-1.47727e-07
2.6792e-08
-1.53198e-07
2.60474e-08
-1.58501e-07
2.52633e-08
-1.63627e-07
2.44418e-08
-1.68569e-07
2.35842e-08
-1.73319e-07
2.26918e-08
-1.7787e-07
2.17654e-08
-1.82215e-07
2.08057e-08
-1.86347e-07
1.98132e-08
-1.90259e-07
1.87885e-08
-1.93945e-07
1.77318e-08
-1.97399e-07
1.66438e-08
-2.00613e-07
1.55247e-08
-2.03583e-07
1.43749e-08
-2.06301e-07
1.31951e-08
-2.08761e-07
1.19857e-08
-2.10959e-07
1.07473e-08
-2.12889e-07
9.48081e-09
-2.14544e-07
8.18689e-09
-2.15921e-07
6.86652e-09
-2.17014e-07
5.52073e-09
-2.17818e-07
4.15068e-09
-2.18329e-07
2.75765e-09
-2.18543e-07
1.34307e-09
-2.18456e-07
-9.14996e-11
-2.18064e-07
-1.54434e-09
-2.17366e-07
-3.0136e-09
-2.16358e-07
-4.49725e-09
-2.15037e-07
-5.99311e-09
-2.13404e-07
-7.49882e-09
-2.11455e-07
-9.01185e-09
-2.09192e-07
-1.05295e-08
-2.06613e-07
-1.20488e-08
-2.0372e-07
-1.35666e-08
-2.00513e-07
-1.50797e-08
-1.96996e-07
-1.65843e-08
-1.93171e-07
-1.80766e-08
-1.89042e-07
-1.95526e-08
-1.84613e-07
-2.10075e-08
-1.79891e-07
-2.24367e-08
-1.74882e-07
-2.38349e-08
-1.69594e-07
-2.51962e-08
-1.64036e-07
-2.65145e-08
-1.58219e-07
-2.77829e-08
-1.52156e-07
-2.89938e-08
-1.4586e-07
-3.01391e-08
-1.39346e-07
-3.12096e-08
-1.32633e-07
-3.21955e-08
-1.2574e-07
-3.30859e-08
-1.1869e-07
-3.38688e-08
-1.11506e-07
-3.45314e-08
-1.04217e-07
-3.50597e-08
-9.68515e-08
-3.54388e-08
-8.94435e-08
-3.56528e-08
-8.20286e-08
-3.5685e-08
-7.4646e-08
-3.55181e-08
-6.73378e-08
-3.51346e-08
-6.01491e-08
-3.4517e-08
-5.31275e-08
-3.36486e-08
-4.63233e-08
-3.25139e-08
-3.97884e-08
-3.10998e-08
-3.35761e-08
-2.93966e-08
-2.774e-08
-2.73995e-08
-2.23335e-08
-2.51102e-08
-1.74079e-08
-2.25395e-08
-1.30122e-08
-1.97098e-08
-9.19118e-09
-1.66588e-08
-5.98541e-09
-1.34434e-08
-3.43078e-09
-1.01447e-08
-1.55969e-09
-6.87338e-09
-4.03765e-10
-3.77466e-09
-1.04643e-09
-4.35444e-10
1.37183e-09
-1.66351e-09
4.62274e-09
-3.6248e-09
8.13008e-09
-6.26767e-09
1.17206e-08
-9.54293e-09
1.52659e-08
-1.3402e-08
1.86669e-08
-1.77956e-08
2.1851e-08
-2.26733e-08
2.47692e-08
-2.7984e-08
2.73924e-08
-3.36765e-08
2.97062e-08
-3.97001e-08
3.17085e-08
-4.60053e-08
3.34057e-08
-5.25446e-08
3.48108e-08
-5.92731e-08
3.59411e-08
-6.61485e-08
3.68166e-08
-7.31316e-08
3.74588e-08
-8.01864e-08
3.78895e-08
-8.72802e-08
3.813e-08
-9.43832e-08
3.82007e-08
-1.01469e-07
3.81206e-08
-1.08513e-07
3.7907e-08
-1.15493e-07
3.75753e-08
-1.22392e-07
3.71393e-08
-1.29191e-07
3.66109e-08
-1.35874e-07
3.60003e-08
-1.42429e-07
3.5316e-08
-1.48841e-07
3.45652e-08
-1.55101e-07
3.37539e-08
-1.61195e-07
3.28868e-08
-1.67116e-07
3.19679e-08
-1.72853e-07
3.10002e-08
-1.78397e-07
2.99862e-08
-1.83741e-07
2.89277e-08
-1.88875e-07
2.78262e-08
-1.93792e-07
2.66829e-08
-1.98485e-07
2.54987e-08
-2.02947e-07
2.42743e-08
-2.07169e-07
2.30105e-08
-2.11144e-07
2.17077e-08
-2.14867e-07
2.03666e-08
-2.1833e-07
1.89876e-08
-2.21527e-07
1.75714e-08
-2.2445e-07
1.61186e-08
-2.27095e-07
1.463e-08
-2.29454e-07
1.31064e-08
-2.31521e-07
1.15486e-08
-2.33292e-07
9.95773e-09
-2.34761e-07
8.33495e-09
-2.35921e-07
6.68154e-09
-2.3677e-07
4.99893e-09
-2.37301e-07
3.28874e-09
-2.3751e-07
1.55271e-09
-2.37395e-07
-2.07242e-10
-2.3695e-07
-1.989e-09
-2.36173e-07
-3.79028e-09
-2.35062e-07
-5.60862e-09
-2.33614e-07
-7.44133e-09
-2.31827e-07
-9.28554e-09
-2.29701e-07
-1.11381e-08
-2.27234e-07
-1.29958e-08
-2.24428e-07
-1.4855e-08
-2.21283e-07
-1.67118e-08
-2.178e-07
-1.85622e-08
-2.13983e-07
-2.04018e-08
-2.09834e-07
-2.22258e-08
-2.05357e-07
-2.40292e-08
-2.00558e-07
-2.58065e-08
-1.95443e-07
-2.75517e-08
-1.9002e-07
-2.92584e-08
-1.84296e-07
-3.09196e-08
-1.78283e-07
-3.25277e-08
-1.71992e-07
-3.40743e-08
-1.65435e-07
-3.55502e-08
-1.58629e-07
-3.69456e-08
-1.51589e-07
-3.82493e-08
-1.44335e-07
-3.94494e-08
-1.36889e-07
-4.05327e-08
-1.29272e-07
-4.14849e-08
-1.21513e-07
-4.22906e-08
-1.1364e-07
-4.29329e-08
-1.05685e-07
-4.33941e-08
-9.76823e-08
-4.36552e-08
-8.96708e-08
-4.36964e-08
-8.16916e-08
-4.34974e-08
-7.37888e-08
-4.30373e-08
-6.60099e-08
-4.22959e-08
-5.8405e-08
-4.12535e-08
-5.10266e-08
-3.98923e-08
-4.39292e-08
-3.81972e-08
-3.71686e-08
-3.61571e-08
-3.08016e-08
-3.37665e-08
-2.48846e-08
-3.10272e-08
-1.9473e-08
-2.79511e-08
-1.46205e-08
-2.45623e-08
-1.03784e-08
-2.09009e-08
-6.79538e-09
-1.70264e-08
-3.91802e-09
-1.30221e-08
-1.79248e-09
-8.99893e-09
-4.67437e-10
-5.09971e-09
-1.51386e-09
-4.91613e-10
1.86344e-09
-1.87057e-09
6.0017e-09
-4.05991e-09
1.03194e-08
-6.99271e-09
1.46533e-08
-1.06069e-08
1.88802e-08
-1.48435e-08
2.29035e-08
-1.9645e-08
2.66524e-08
-2.49545e-08
3.00788e-08
-3.07159e-08
3.31538e-08
-3.6874e-08
3.58643e-08
-4.33749e-08
3.82094e-08
-5.01667e-08
4.01974e-08
-5.71996e-08
4.18437e-08
-6.44266e-08
4.31682e-08
-7.1804e-08
4.4194e-08
-7.92908e-08
4.49456e-08
-8.68496e-08
4.54483e-08
-9.44462e-08
4.57267e-08
-1.0205e-07
4.58042e-08
-1.09632e-07
4.57028e-08
-1.17167e-07
4.54427e-08
-1.24634e-07
4.50419e-08
-1.32011e-07
4.45164e-08
-1.3928e-07
4.38802e-08
-1.46425e-07
4.31453e-08
-1.53431e-07
4.23218e-08
-1.60284e-07
4.14183e-08
-1.66972e-07
4.04418e-08
-1.73483e-07
3.9398e-08
-1.79807e-07
3.82917e-08
-1.85934e-07
3.71266e-08
-1.91853e-07
3.59056e-08
-1.97556e-07
3.46311e-08
-2.03035e-07
3.3305e-08
-2.08281e-07
3.19287e-08
-2.13286e-07
3.05034e-08
-2.18042e-07
2.90301e-08
-2.22541e-07
2.75096e-08
-2.26776e-07
2.59427e-08
-2.30739e-07
2.43301e-08
-2.34424e-07
2.26726e-08
-2.37824e-07
2.09708e-08
-2.40931e-07
1.92256e-08
-2.43739e-07
1.7438e-08
-2.46241e-07
1.56089e-08
-2.48432e-07
1.37395e-08
-2.50305e-07
1.18309e-08
-2.51855e-07
9.88479e-09
-2.53076e-07
7.90255e-09
-2.53963e-07
5.88598e-09
-2.54511e-07
3.83698e-09
-2.54716e-07
1.75768e-09
-2.54574e-07
-3.49621e-10
-2.54081e-07
-2.4824e-09
-2.53233e-07
-4.63793e-09
-2.52028e-07
-6.81324e-09
-2.50465e-07
-9.00515e-09
-2.4854e-07
-1.12102e-08
-2.46253e-07
-1.34247e-08
-2.43604e-07
-1.56447e-08
-2.40593e-07
-1.78659e-08
-2.37221e-07
-2.00838e-08
-2.3349e-07
-2.22935e-08
-2.29402e-07
-2.44896e-08
-2.24962e-07
-2.66667e-08
-2.20172e-07
-2.88185e-08
-2.1504e-07
-3.09386e-08
-2.09572e-07
-3.30199e-08
-2.03775e-07
-3.50547e-08
-1.9766e-07
-3.70347e-08
-1.91237e-07
-3.89508e-08
-1.84518e-07
-4.0793e-08
-1.77518e-07
-4.25506e-08
-1.70252e-07
-4.42116e-08
-1.62738e-07
-4.5763e-08
-1.54997e-07
-4.71907e-08
-1.47051e-07
-4.84791e-08
-1.38924e-07
-4.96114e-08
-1.30645e-07
-5.05695e-08
-1.22245e-07
-5.13336e-08
-1.13756e-07
-5.18831e-08
-1.05215e-07
-5.21959e-08
-9.66625e-08
-5.22489e-08
-8.81414e-08
-5.20185e-08
-7.96977e-08
-5.1481e-08
-7.13809e-08
-5.06127e-08
-6.3243e-08
-4.93914e-08
-5.53388e-08
-4.77965e-08
-4.7725e-08
-4.5811e-08
-4.04602e-08
-4.3422e-08
-3.36037e-08
-4.06229e-08
-2.72155e-08
-3.74154e-08
-2.13551e-08
-3.38115e-08
-1.60813e-08
-2.98362e-08
-1.14517e-08
-2.55305e-08
-7.52317e-09
-2.09549e-08
-4.35239e-09
-1.61929e-08
-1.99784e-09
-1.13535e-08
-5.22709e-10
-6.57485e-09
-2.03657e-09
-5.41345e-10
2.40477e-09
-2.05579e-09
7.51616e-09
-4.45206e-09
1.27157e-08
-7.64997e-09
1.78512e-08
-1.1576e-08
2.28062e-08
-1.61614e-08
2.74889e-08
-2.13405e-08
3.18316e-08
-2.70503e-08
3.57885e-08
-3.32294e-08
3.93329e-08
-3.98185e-08
4.24535e-08
-4.67606e-08
4.51515e-08
-5.40011e-08
4.74379e-08
-6.1488e-08
4.93306e-08
-6.91727e-08
5.08528e-08
-7.70095e-08
5.20308e-08
-8.49564e-08
5.28925e-08
-9.29745e-08
5.34665e-08
-1.01029e-07
5.37807e-08
-1.09086e-07
5.38619e-08
-1.17119e-07
5.37353e-08
-1.251e-07
5.34236e-08
-1.33005e-07
5.29477e-08
-1.40815e-07
5.23259e-08
-1.48509e-07
5.15742e-08
-1.5607e-07
5.07064e-08
-1.63483e-07
4.97345e-08
-1.70732e-07
4.86682e-08
-1.77806e-07
4.75157e-08
-1.84692e-07
4.6284e-08
-1.91379e-07
4.49783e-08
-1.97856e-07
4.36032e-08
-2.04112e-07
4.21623e-08
-2.1014e-07
4.06583e-08
-2.15928e-07
3.90935e-08
-2.21469e-07
3.74697e-08
-2.26754e-07
3.57884e-08
-2.31775e-07
3.40508e-08
-2.36523e-07
3.22579e-08
-2.40991e-07
3.04108e-08
-2.45171e-07
2.85103e-08
-2.49056e-07
2.65573e-08
-2.52638e-07
2.45528e-08
-2.5591e-07
2.24978e-08
-2.58866e-07
2.03933e-08
-2.61497e-07
1.82407e-08
-2.63799e-07
1.60413e-08
-2.65765e-07
1.37966e-08
-2.67389e-07
1.15083e-08
-2.68664e-07
9.17825e-09
-2.69587e-07
6.80849e-09
-2.70151e-07
4.40129e-09
-2.70353e-07
1.95914e-09
-2.70187e-07
-5.15233e-10
-2.69651e-07
-3.01889e-09
-2.6874e-07
-5.54862e-09
-2.67452e-07
-8.10097e-09
-2.65785e-07
-1.06722e-08
-2.63737e-07
-1.32582e-08
-2.61307e-07
-1.58548e-08
-2.58494e-07
-1.84572e-08
-2.553e-07
-2.10606e-08
-2.51724e-07
-2.36594e-08
-2.4777e-07
-2.62481e-08
-2.43439e-07
-2.88204e-08
-2.38736e-07
-3.13699e-08
-2.33665e-07
-3.38892e-08
-2.28233e-07
-3.63709e-08
-2.22446e-07
-3.88066e-08
-2.16313e-07
-4.11873e-08
-2.09845e-07
-4.35034e-08
-2.03051e-07
-4.57441e-08
-1.95946e-07
-4.7898e-08
-1.88545e-07
-4.99523e-08
-1.80863e-07
-5.18933e-08
-1.7292e-07
-5.37059e-08
-1.64737e-07
-5.53736e-08
-1.56338e-07
-5.68784e-08
-1.47748e-07
-5.8201e-08
-1.38997e-07
-5.93204e-08
-1.30117e-07
-6.0214e-08
-1.21142e-07
-6.0858e-08
-1.12111e-07
-6.12271e-08
-1.03064e-07
-6.1295e-08
-9.4048e-08
-6.1035e-08
-8.51092e-08
-6.04198e-08
-7.62991e-08
-5.94228e-08
-6.76717e-08
-5.80187e-08
-5.92838e-08
-5.61844e-08
-5.11944e-08
-5.39003e-08
-4.34646e-08
-5.11518e-08
-3.61566e-08
-4.79309e-08
-2.93338e-08
-4.42382e-08
-2.306e-08
-4.00853e-08
-1.7399e-08
-3.54971e-08
-1.24149e-08
-3.05146e-08
-8.17217e-09
-2.51977e-08
-4.73671e-09
-1.96283e-08
-2.17777e-09
-1.39124e-08
-5.70423e-10
-8.18219e-09
-2.607e-09
-5.85299e-10
2.99006e-09
-2.22081e-09
9.15167e-09
-4.80366e-09
1.52985e-08
-8.24241e-09
2.129e-08
-1.24535e-08
2.70173e-08
-1.73592e-08
3.23946e-08
-2.28864e-08
3.73588e-08
-2.89658e-08
4.18678e-08
-3.55309e-08
4.5898e-08
-4.25184e-08
4.9441e-08
-4.9868e-08
5.25011e-08
-5.75224e-08
5.50922e-08
-6.54275e-08
5.72357e-08
-7.35327e-08
5.89581e-08
-8.17912e-08
6.02892e-08
-9.01593e-08
6.12606e-08
-9.85972e-08
6.19044e-08
-1.07068e-07
6.2252e-08
-1.1554e-07
6.23335e-08
-1.23982e-07
6.21772e-08
-1.32367e-07
6.18089e-08
-1.40672e-07
6.12519e-08
-1.48873e-07
6.05271e-08
-1.56951e-07
5.96526e-08
-1.64889e-07
5.86441e-08
-1.7267e-07
5.75151e-08
-1.80278e-07
5.62768e-08
-1.87701e-07
5.49387e-08
-1.94926e-07
5.35086e-08
-2.0194e-07
5.19928e-08
-2.08733e-07
5.03965e-08
-2.15295e-07
4.87238e-08
-2.21615e-07
4.6978e-08
-2.27683e-07
4.51619e-08
-2.33491e-07
4.32776e-08
-2.39029e-07
4.13269e-08
-2.4429e-07
3.93112e-08
-2.49264e-07
3.72318e-08
-2.53943e-07
3.509e-08
-2.58319e-07
3.28868e-08
-2.62385e-07
3.06233e-08
-2.66133e-07
2.83007e-08
-2.69556e-07
2.59202e-08
-2.72645e-07
2.34831e-08
-2.75396e-07
2.09909e-08
-2.77799e-07
1.84451e-08
-2.7985e-07
1.58476e-08
-2.81542e-07
1.32003e-08
-2.82869e-07
1.05053e-08
-2.83826e-07
7.76508e-09
-2.84407e-07
4.98224e-09
-2.84607e-07
2.15964e-09
-2.84423e-07
-6.99579e-10
-2.8385e-07
-3.59202e-09
-2.82884e-07
-6.51399e-09
-2.81524e-07
-9.46149e-09
-2.79766e-07
-1.24302e-08
-2.77609e-07
-1.54155e-08
-2.75051e-07
-1.84125e-08
-2.72093e-07
-2.14156e-08
-2.68734e-07
-2.44193e-08
-2.64976e-07
-2.74174e-08
-2.60821e-07
-3.04032e-08
-2.56272e-07
-3.33696e-08
-2.51332e-07
-3.63092e-08
-2.46008e-07
-3.92136e-08
-2.40305e-07
-4.20741e-08
-2.3423e-07
-4.48811e-08