/*--------------------------------*- C++ -*----------------------------------*\
  =========                 |
  \\      /  F ield         | OpenFOAM: The Open Source CFD Toolbox
   \\    /   O peration     | Website:  https://openfoam.org
    \\  /    A nd           | Version:  7
     \\/     M anipulation  |
\*---------------------------------------------------------------------------*/
FoamFile
{
    version     2.0;
    format      ascii;
    class       volVectorField;
    location    "0.125";
    object      U;
}
// * * * * * * * * * * * * * * * * * * * * * * * * * * * * * * * * * * * * * //

dimensions      [0 1 -1 0 0 0 0];

internalField   nonuniform List<vector> 
10000
(
(4.0265e-06 -2.72483e-06 0)
(1.04767e-05 -3.59968e-06 0)
(1.55637e-05 -2.42136e-06 0)
(1.364e-05 1.89469e-07 0)
(3.93182e-06 3.02311e-06 0)
(-1.42061e-05 5.77485e-06 0)
(-4.01832e-05 8.27146e-06 0)
(-7.3196e-05 1.0447e-05 0)
(-0.000112392 1.23018e-05 0)
(-0.000156883 1.38414e-05 0)
(-0.000205814 1.50768e-05 0)
(-0.0002584 1.6045e-05 0)
(-0.000313944 1.67993e-05 0)
(-0.000371811 1.73828e-05 0)
(-0.000431441 1.78256e-05 0)
(-0.000492351 1.81413e-05 0)
(-0.000554119 1.83298e-05 0)
(-0.000616371 1.8396e-05 0)
(-0.000678787 1.83612e-05 0)
(-0.000741103 1.8257e-05 0)
(-0.000803094 1.81136e-05 0)
(-0.000864571 1.79445e-05 0)
(-0.000925371 1.7741e-05 0)
(-0.000985347 1.74868e-05 0)
(-0.00104438 1.71796e-05 0)
(-0.00110235 1.68349e-05 0)
(-0.00115918 1.64729e-05 0)
(-0.00121478 1.61044e-05 0)
(-0.00126907 1.57285e-05 0)
(-0.00132198 1.53373e-05 0)
(-0.00137345 1.49219e-05 0)
(-0.0014234 1.44774e-05 0)
(-0.00147178 1.40061e-05 0)
(-0.0015185 1.3516e-05 0)
(-0.00156351 1.30137e-05 0)
(-0.00160675 1.24987e-05 0)
(-0.00164814 1.19656e-05 0)
(-0.00168763 1.14097e-05 0)
(-0.00172514 1.08306e-05 0)
(-0.00176061 1.02312e-05 0)
(-0.00179397 9.61384e-06 0)
(-0.00182516 8.9781e-06 0)
(-0.0018541 8.32171e-06 0)
(-0.00188074 7.64281e-06 0)
(-0.001905 6.94192e-06 0)
(-0.00192682 6.22192e-06 0)
(-0.00194613 5.48563e-06 0)
(-0.00196288 4.73302e-06 0)
(-0.001977 3.96106e-06 0)
(-0.00198843 3.16644e-06 0)
(-0.0019971 2.34878e-06 0)
(-0.00200296 1.51152e-06 0)
(-0.00200596 6.5941e-07 0)
(-0.00200605 -2.05017e-07 0)
(-0.00200317 -1.08241e-06 0)
(-0.00199729 -1.97473e-06 0)
(-0.00198836 -2.88266e-06 0)
(-0.00197635 -3.80451e-06 0)
(-0.00196122 -4.73693e-06 0)
(-0.00194297 -5.67616e-06 0)
(-0.00192156 -6.61899e-06 0)
(-0.00189699 -7.56341e-06 0)
(-0.00186925 -8.50854e-06 0)
(-0.00183835 -9.45364e-06 0)
(-0.00180429 -1.03971e-05 0)
(-0.0017671 -1.13358e-05 0)
(-0.00172681 -1.22659e-05 0)
(-0.00168344 -1.31835e-05 0)
(-0.00163706 -1.40852e-05 0)
(-0.00158771 -1.49677e-05 0)
(-0.00153548 -1.58277e-05 0)
(-0.00148044 -1.66615e-05 0)
(-0.0014227 -1.74649e-05 0)
(-0.00136237 -1.82328e-05 0)
(-0.00129959 -1.89588e-05 0)
(-0.00123452 -1.96355e-05 0)
(-0.00116733 -2.02555e-05 0)
(-0.00109823 -2.08108e-05 0)
(-0.00102746 -2.12927e-05 0)
(-0.000955272 -2.16915e-05 0)
(-0.000881971 -2.19965e-05 0)
(-0.000807894 -2.21958e-05 0)
(-0.00073342 -2.22755e-05 0)
(-0.000658975 -2.22197e-05 0)
(-0.000585034 -2.20105e-05 0)
(-0.000512125 -2.16297e-05 0)
(-0.00044083 -2.10584e-05 0)
(-0.000371794 -2.02759e-05 0)
(-0.00030572 -1.92598e-05 0)
(-0.000243374 -1.79861e-05 0)
(-0.000185581 -1.64298e-05 0)
(-0.000133222 -1.45645e-05 0)
(-8.72242e-05 -1.2365e-05 0)
(-4.85353e-05 -9.81189e-06 0)
(-1.80839e-05 -6.90207e-06 0)
(3.30666e-06 -3.67722e-06 0)
(1.50739e-05 -2.81932e-07 0)
(1.72844e-05 2.90636e-06 0)
(1.18339e-05 4.95941e-06 0)
(3.79365e-06 3.79217e-06 0)
(5.41495e-06 -1.08298e-05 0)
(1.22694e-05 -1.0361e-05 0)
(9.58591e-06 -9.53294e-07 0)
(-9.06279e-06 1.33087e-05 0)
(-4.6998e-05 2.89544e-05 0)
(-0.0001049 4.43731e-05 0)
(-0.000182089 5.86838e-05 0)
(-0.000277078 7.14736e-05 0)
(-0.00038801 8.26327e-05 0)
(-0.000512887 9.21669e-05 0)
(-0.000649682 0.000100139 0)
(-0.000796465 0.000106655 0)
(-0.00095145 0.000111863 0)
(-0.00111299 0.000115917 0)
(-0.00127958 0.000118955 0)
(-0.00144992 0.000121104 0)
(-0.00162282 0.000122474 0)
(-0.00179726 0.000123165 0)
(-0.00197236 0.000123264 0)
(-0.00214733 0.000122861 0)
(-0.00232155 0.000122039 0)
(-0.00249443 0.000120874 0)
(-0.00266548 0.000119418 0)
(-0.00283428 0.000117696 0)
(-0.00300046 0.000115732 0)
(-0.00316369 0.000113554 0)
(-0.0033237 0.000111193 0)
(-0.00348024 0.000108676 0)
(-0.00363305 0.000106016 0)
(-0.00378193 0.000103221 0)
(-0.00392666 0.000100289 0)
(-0.00406706 9.72199e-05 0)
(-0.00420292 9.40133e-05 0)
(-0.00433405 9.06743e-05 0)
(-0.00446027 8.72082e-05 0)
(-0.0045814 8.36162e-05 0)
(-0.00469725 7.98955e-05 0)
(-0.00480763 7.60424e-05 0)
(-0.00491235 7.20558e-05 0)
(-0.00501124 6.79365e-05 0)
(-0.00510411 6.36866e-05 0)
(-0.00519077 5.93071e-05 0)
(-0.00527105 5.47978e-05 0)
(-0.00534475 5.01577e-05 0)
(-0.00541171 4.53867e-05 0)
(-0.00547174 4.04872e-05 0)
(-0.00552467 3.54634e-05 0)
(-0.00557033 3.03191e-05 0)
(-0.00560856 2.50558e-05 0)
(-0.00563919 1.96743e-05 0)
(-0.00566207 1.41765e-05 0)
(-0.00567704 8.5678e-06 0)
(-0.00568398 2.85641e-06 0)
(-0.00568274 -2.94913e-06 0)
(-0.00567321 -8.84156e-06 0)
(-0.00565527 -1.48144e-05 0)
(-0.00562881 -2.08604e-05 0)
(-0.00559377 -2.69704e-05 0)
(-0.00555006 -3.3133e-05 0)
(-0.00549763 -3.93357e-05 0)
(-0.00543643 -4.55653e-05 0)
(-0.00536645 -5.18078e-05 0)
(-0.00528769 -5.80495e-05 0)
(-0.00520015 -6.42763e-05 0)
(-0.00510388 -7.04732e-05 0)
(-0.00499894 -7.66235e-05 0)
(-0.00488541 -8.27083e-05 0)
(-0.00476342 -8.87072e-05 0)
(-0.00463309 -9.4598e-05 0)
(-0.00449462 -0.000100357 0)
(-0.0043482 -0.000105959 0)
(-0.00419409 -0.000111375 0)
(-0.00403258 -0.000116575 0)
(-0.00386399 -0.000121525 0)
(-0.00368873 -0.000126184 0)
(-0.00350724 -0.00013051 0)
(-0.00332002 -0.000134455 0)
(-0.00312766 -0.000137966 0)
(-0.00293081 -0.000140984 0)
(-0.00273022 -0.000143444 0)
(-0.00252672 -0.000145275 0)
(-0.00232125 -0.000146398 0)
(-0.00211486 -0.000146728 0)
(-0.00190874 -0.000146172 0)
(-0.00170416 -0.000144629 0)
(-0.00150259 -0.000141994 0)
(-0.00130558 -0.000138156 0)
(-0.00111485 -0.000132999 0)
(-0.000932272 -0.00012641 0)
(-0.000759826 -0.000118276 0)
(-0.000599619 -0.000108493 0)
(-0.000453842 -9.69765e-05 0)
(-0.000324713 -8.36818e-05 0)
(-0.000214398 -6.86337e-05 0)
(-0.000124857 -5.19911e-05 0)
(-5.76104e-05 -3.41693e-05 0)
(-1.33545e-05 -1.60678e-05 0)
(8.67559e-06 5.21682e-07 0)
(1.21349e-05 1.2119e-05 0)
(4.95611e-06 1.18247e-05 0)
(3.07726e-06 -1.61807e-05 0)
(1.66503e-06 -8.6172e-06 0)
(-1.77678e-05 1.85067e-05 0)
(-6.18706e-05 5.49647e-05 0)
(-0.000133707 9.49398e-05 0)
(-0.000234201 0.000134723 0)
(-0.00036256 0.000172158 0)
(-0.000516905 0.00020613 0)
(-0.00069483 0.00023615 0)
(-0.000893623 0.000262111 0)
(-0.00111046 0.000284095 0)
(-0.00134257 0.000302312 0)
(-0.00158734 0.000317051 0)
(-0.00184231 0.000328638 0)
(-0.00210526 0.000337403 0)
(-0.00237416 0.000343671 0)
(-0.00264722 0.000347754 0)
(-0.00292285 0.000349933 0)
(-0.00319965 0.000350457 0)
(-0.00347639 0.000349547 0)
(-0.00375202 0.000347404 0)
(-0.00402563 0.000344207 0)
(-0.00429642 0.000340113 0)
(-0.00456371 0.000335239 0)
(-0.00482688 0.000329679 0)
(-0.00508541 0.000323509 0)
(-0.00533881 0.000316794 0)
(-0.00558666 0.000309588 0)
(-0.00582858 0.000301931 0)
(-0.00606419 0.000293853 0)
(-0.00629317 0.000285374 0)
(-0.00651518 0.000276506 0)
(-0.00672992 0.000267255 0)
(-0.00693707 0.000257627 0)
(-0.00713634 0.000247627 0)
(-0.00732743 0.000237255 0)
(-0.00751005 0.000226513 0)
(-0.00768391 0.0002154 0)
(-0.00784871 0.000203916 0)
(-0.00800417 0.000192061 0)
(-0.00815 0.000179837 0)
(-0.00828591 0.000167246 0)
(-0.00841161 0.000154291 0)
(-0.00852684 0.000140975 0)
(-0.00863131 0.0001273 0)
(-0.00872475 0.000113272 0)
(-0.00880688 9.88959e-05 0)
(-0.00887746 8.41823e-05 0)
(-0.00893623 6.91406e-05 0)
(-0.00898294 5.37811e-05 0)
(-0.00901736 3.81151e-05 0)
(-0.00903928 2.21563e-05 0)
(-0.00904847 5.92157e-06 0)
(-0.00904475 -1.05697e-05 0)
(-0.00902793 -2.72962e-05 0)
(-0.00899785 -4.42349e-05 0)
(-0.00895438 -6.13608e-05 0)
(-0.00889738 -7.86464e-05 0)
(-0.00882676 -9.6062e-05 0)
(-0.00874243 -0.000113576 0)
(-0.00864435 -0.000131154 0)
(-0.0085325 -0.000148758 0)
(-0.00840688 -0.00016635 0)
(-0.00826752 -0.000183886 0)
(-0.0081145 -0.000201322 0)
(-0.00794793 -0.000218611 0)
(-0.00776795 -0.0002357 0)
(-0.00757475 -0.000252533 0)
(-0.00736857 -0.000269049 0)
(-0.0071497 -0.000285181 0)
(-0.00691847 -0.000300855 0)
(-0.00667528 -0.000315992 0)
(-0.00642061 -0.000330503 0)
(-0.00615499 -0.000344289 0)
(-0.00587904 -0.000357243 0)
(-0.00559347 -0.000369242 0)
(-0.00529909 -0.000380153 0)
(-0.00499681 -0.000389828 0)
(-0.00468768 -0.000398103 0)
(-0.00437286 -0.000404796 0)
(-0.00405366 -0.00040971 0)
(-0.00373155 -0.00041263 0)
(-0.00340817 -0.000413322 0)
(-0.00308533 -0.000411537 0)
(-0.00276504 -0.00040701 0)
(-0.00244949 -0.000399463 0)
(-0.0021411 -0.000388612 0)
(-0.00184244 -0.00037417 0)
(-0.00155629 -0.000355862 0)
(-0.00128561 -0.000333433 0)
(-0.00103346 -0.000306675 0)
(-0.000802979 -0.000275461 0)
(-0.000597271 -0.000239798 0)
(-0.000419281 -0.000199921 0)
(-0.000271566 -0.000156435 0)
(-0.000155996 -0.00011058 0)
(-7.32802e-05 -6.46506e-05 0)
(-2.23158e-05 -2.26432e-05 0)
(6.77883e-07 8.69086e-06 0)
(2.92367e-06 1.72856e-05 0)
(9.35838e-08 -1.51835e-05 0)
(-1.30935e-05 9.67021e-06 0)
(-5.49375e-05 6.24511e-05 0)
(-0.000129448 0.000129213 0)
(-0.00023885 0.000201403 0)
(-0.000383778 0.000273346 0)
(-0.000563216 0.000341512 0)
(-0.00077499 0.000403863 0)
(-0.00101626 0.000459395 0)
(-0.00128382 0.00050777 0)
(-0.00157432 0.000549037 0)
(-0.0018844 0.000583485 0)
(-0.0022108 0.000611567 0)
(-0.00255047 0.000633808 0)
(-0.00290058 0.000650761 0)
(-0.00325854 0.00066299 0)
(-0.00362203 0.000671048 0)
(-0.003989 0.000675457 0)
(-0.00435761 0.000676687 0)
(-0.00472624 0.000675151 0)
(-0.00509349 0.000671214 0)
(-0.00545811 0.0006652 0)
(-0.00581903 0.000657392 0)
(-0.00617531 0.000648027 0)
(-0.00652613 0.000637301 0)
(-0.00687075 0.000625368 0)
(-0.00720853 0.000612356 0)
(-0.00753887 0.000598362 0)
(-0.00786122 0.000583464 0)
(-0.00817509 0.000567721 0)
(-0.00848001 0.000551176 0)
(-0.00877555 0.000533863 0)
(-0.00906127 0.000515804 0)
(-0.00933676 0.000497011 0)
(-0.00960162 0.000477493 0)
(-0.00985545 0.000457254 0)
(-0.0100979 0.000436298 0)
(-0.0103285 0.000414629 0)
(-0.0105469 0.00039225 0)
(-0.0107527 0.000369162 0)
(-0.0109456 0.000345367 0)
(-0.0111251 0.000320871 0)
(-0.011291 0.000295681 0)
(-0.0114428 0.000269803 0)
(-0.0115802 0.000243249 0)
(-0.0117027 0.000216028 0)
(-0.0118102 0.000188153 0)
(-0.0119022 0.000159641 0)
(-0.0119784 0.000130511 0)
(-0.0120386 0.000100788 0)
(-0.0120823 7.04959e-05 0)
(-0.0121094 3.96647e-05 0)
(-0.0121195 8.32572e-06 0)
(-0.0121125 -2.3485e-05 0)
(-0.0120881 -5.57273e-05 0)
(-0.012046 -8.83565e-05 0)
(-0.0119862 -0.000121324 0)
(-0.0119084 -0.000154577 0)
(-0.0118126 -0.000188057 0)
(-0.0116987 -0.000221705 0)
(-0.0115665 -0.000255456 0)
(-0.0114162 -0.000289239 0)
(-0.0112476 -0.000322979 0)
(-0.011061 -0.000356595 0)
(-0.0108563 -0.00039 0)
(-0.0106338 -0.000423102 0)
(-0.0103936 -0.000455802 0)
(-0.010136 -0.00048799 0)
(-0.00986136 -0.00051955 0)
(-0.00957003 -0.000550353 0)
(-0.0092625 -0.000580259 0)
(-0.00893929 -0.000609113 0)
(-0.00860104 -0.000636745 0)
(-0.00824848 -0.000662966 0)
(-0.00788243 -0.000687568 0)
(-0.00750384 -0.000710321 0)
(-0.00711379 -0.000730969 0)
(-0.0067135 -0.000749232 0)
(-0.00630433 -0.000764798 0)
(-0.00588784 -0.000777326 0)
(-0.00546574 -0.000786446 0)
(-0.00503996 -0.000791754 0)
(-0.00461265 -0.000792817 0)
(-0.00418615 -0.000789175 0)
(-0.00376306 -0.000780345 0)
(-0.00334622 -0.000765828 0)
(-0.00293868 -0.00074512 0)
(-0.00254375 -0.000717724 0)
(-0.00216492 -0.000683176 0)
(-0.00180586 -0.000641074 0)
(-0.00147036 -0.000591119 0)
(-0.00116224 -0.000533189 0)
(-0.000885232 -0.000467432 0)
(-0.000642802 -0.000394419 0)
(-0.00043793 -0.000315382 0)
(-0.000272785 -0.000232579 0)
(-0.000148268 -0.00014986 0)
(-6.34386e-05 -7.34304e-05 0)
(-1.554e-05 -1.30114e-05 0)
(-1.92676e-07 1.52151e-05 0)
(-2.99842e-06 -5.21826e-06 0)
(-2.92002e-05 4.77544e-05 0)
(-9.57124e-05 0.000134651 0)
(-0.000202989 0.000238781 0)
(-0.000351623 0.000349539 0)
(-0.00054161 0.000459554 0)
(-0.000771521 0.000564012 0)
(-0.0010388 0.000660006 0)
(-0.00134022 0.000745965 0)
(-0.0016722 0.000821236 0)
(-0.00203095 0.000885777 0)
(-0.00241267 0.000939939 0)
(-0.00281366 0.000984319 0)
(-0.00323039 0.00101966 0)
(-0.00365958 0.00104676 0)
(-0.00409819 0.00106645 0)
(-0.00454347 0.00107954 0)
(-0.00499295 0.00108681 0)
(-0.00544444 0.00108898 0)
(-0.00589601 0.0010867 0)
(-0.00634593 0.00108055 0)
(-0.00679267 0.00107104 0)
(-0.00723492 0.0010586 0)
(-0.00767149 0.00104359 0)
(-0.00810137 0.00102634 0)
(-0.00852364 0.00100709 0)
(-0.00893747 0.000986055 0)
(-0.00934213 0.000963408 0)
(-0.00973694 0.000939272 0)
(-0.0101213 0.000913744 0)
(-0.0104945 0.000886896 0)
(-0.0108561 0.000858785 0)
(-0.0112056 0.000829453 0)
(-0.0115424 0.00079893 0)
(-0.0118661 0.000767234 0)
(-0.012176 0.000734377 0)
(-0.0124719 0.000700367 0)
(-0.0127531 0.000665212 0)
(-0.0130193 0.00062892 0)
(-0.0132699 0.000591496 0)
(-0.0135046 0.00055295 0)
(-0.0137227 0.000513288 0)
(-0.013924 0.000472521 0)
(-0.014108 0.000430665 0)
(-0.0142742 0.000387736 0)
(-0.0144222 0.000343757 0)
(-0.0145516 0.000298752 0)
(-0.014662 0.000252748 0)
(-0.014753 0.000205777 0)
(-0.0148244 0.000157876 0)
(-0.0148756 0.000109088 0)
(-0.0149064 5.94624e-05 0)
(-0.0149165 9.05278e-06 0)
(-0.0149055 -4.20822e-05 0)
(-0.0148733 -9.38781e-05 0)
(-0.0148196 -0.000146264 0)
(-0.0147442 -0.000199164 0)
(-0.014647 -0.000252492 0)
(-0.0145277 -0.000306158 0)
(-0.0143864 -0.000360064 0)
(-0.014223 -0.000414106 0)
(-0.0140373 -0.000468171 0)
(-0.0138296 -0.000522139 0)
(-0.0135999 -0.000575883 0)
(-0.0133483 -0.000629265 0)
(-0.0130751 -0.000682135 0)
(-0.0127804 -0.000734333 0)
(-0.0124647 -0.000785687 0)
(-0.0121284 -0.000836006 0)
(-0.0117718 -0.000885087 0)
(-0.0113957 -0.000932704 0)
(-0.0110007 -0.00097861 0)
(-0.0105876 -0.00102253 0)
(-0.0101571 -0.00106418 0)
(-0.00971052 -0.0011032 0)
(-0.00924882 -0.00113925 0)
(-0.00877339 -0.00117191 0)
(-0.00828568 -0.00120074 0)
(-0.00778738 -0.00122525 0)
(-0.00728035 -0.0012449 0)
(-0.00676667 -0.00125912 0)
(-0.00624866 -0.00126728 0)
(-0.00572887 -0.0012687 0)
(-0.00521013 -0.00126268 0)
(-0.0046955 -0.00124849 0)
(-0.00418833 -0.00122537 0)
(-0.00369223 -0.00119257 0)
(-0.00321104 -0.00114938 0)
(-0.00274881 -0.00109513 0)
(-0.00230978 -0.00102929 0)
(-0.00189827 -0.000951494 0)
(-0.0015186 -0.000861673 0)
(-0.00117496 -0.00076018 0)
(-0.000871238 -0.000648 0)
(-0.000610782 -0.00052705 0)
(-0.000396143 -0.000400619 0)
(-0.000228645 -0.000273993 0)
(-0.000107946 -0.000155247 0)
(-3.30323e-05 -5.63639e-05 0)
(-3.46222e-06 3.84882e-06 0)
(-5.8602e-06 1.31724e-05 0)
(-4.50469e-05 0.000106268 0)
(-0.00013664 0.000236163 0)
(-0.000277142 0.000384757 0)
(-0.000465151 0.000540026 0)
(-0.000699763 0.000693285 0)
(-0.000978887 0.000838688 0)
(-0.0012995 0.000972574 0)
(-0.00165799 0.00109285 0)
(-0.0020504 0.00119858 0)
(-0.00247259 0.00128959 0)
(-0.00292042 0.00136626 0)
(-0.00338981 0.00142933 0)
(-0.00387688 0.00147974 0)
(-0.00437798 0.00151856 0)
(-0.00488974 0.0015469 0)
(-0.00540907 0.00156587 0)
(-0.00593317 0.0015765 0)
(-0.00645954 0.00157978 0)
(-0.00698594 0.00157663 0)
(-0.00751041 0.00156786 0)
(-0.00803118 0.00155419 0)
(-0.00854671 0.00153623 0)
(-0.00905562 0.00151451 0)
(-0.0095567 0.00148947 0)
(-0.0100489 0.00146149 0)
(-0.0105312 0.00143086 0)
(-0.0110027 0.00139783 0)
(-0.0114626 0.00136259 0)
(-0.0119102 0.0013253 0)
(-0.0123448 0.00128607 0)
(-0.0127658 0.00124498 0)
(-0.0131724 0.0012021 0)
(-0.0135641 0.00115747 0)
(-0.0139403 0.00111112 0)
(-0.0143005 0.00106309 0)
(-0.014644 0.0010134 0)
(-0.0149704 0.000962043 0)
(-0.0152791 0.000909047 0)
(-0.0155695 0.000854422 0)
(-0.0158411 0.000798184 0)
(-0.0160935 0.000740348 0)
(-0.016326 0.000680932 0)
(-0.0165382 0.000619958 0)
(-0.0167297 0.000557454 0)
(-0.0168998 0.000493453 0)
(-0.0170483 0.000427994 0)
(-0.0171745 0.00036112 0)
(-0.0172782 0.00029288 0)
(-0.0173588 0.000223328 0)
(-0.017416 0.000152528 0)
(-0.0174494 8.05499e-05 0)
(-0.0174587 7.47328e-06 0)
(-0.0174435 -6.66153e-05 0)
(-0.0174036 -0.000141621 0)
(-0.0173387 -0.000217442 0)
(-0.0172487 -0.000293965 0)
(-0.0171333 -0.00037107 0)
(-0.0169923 -0.000448628 0)
(-0.0168258 -0.000526497 0)
(-0.0166337 -0.000604526 0)
(-0.0164159 -0.000682553 0)
(-0.0161725 -0.000760406 0)
(-0.0159037 -0.0008379 0)
(-0.0156096 -0.000914835 0)
(-0.0152905 -0.000990998 0)
(-0.0149467 -0.00106616 0)
(-0.0145786 -0.00114006 0)
(-0.0141867 -0.00121244 0)
(-0.0137715 -0.001283 0)
(-0.0133338 -0.00135141 0)
(-0.0128744 -0.00141731 0)
(-0.0123941 -0.00148033 0)
(-0.0118941 -0.00154002 0)
(-0.0113754 -0.0015959 0)
(-0.0108394 -0.00164747 0)
(-0.0102877 -0.00169413 0)
(-0.00972205 -0.00173526 0)
(-0.00914426 -0.00177016 0)
(-0.00855652 -0.00179807 0)
(-0.00796122 -0.00181817 0)
(-0.007361 -0.00182959 0)
(-0.00675877 -0.00183139 0)
(-0.00615772 -0.00182259 0)
(-0.00556133 -0.00180218 0)
(-0.00497335 -0.00176914 0)
(-0.00439782 -0.00172247 0)
(-0.003839 -0.0016612 0)
(-0.00330141 -0.00158449 0)
(-0.00278968 -0.00149168 0)
(-0.00230856 -0.00138236 0)
(-0.00186277 -0.00125656 0)
(-0.00145687 -0.00111484 0)
(-0.00109513 -0.000958639 0)
(-0.000781296 -0.000790523 0)
(-0.000518415 -0.000614707 0)
(-0.000308453 -0.000437671 0)
(-0.000151967 -0.000268903 0)
(-5.00545e-05 -0.000121892 0)
(-6.51665e-06 -1.67579e-05 0)
(-8.43218e-06 3.96172e-05 0)
(-5.99484e-05 0.000184774 0)
(-0.000175866 0.000366657 0)
(-0.00034874 0.000566721 0)
(-0.000575115 0.000772121 0)
(-0.000853006 0.000973332 0)
(-0.0011795 0.00116373 0)
(-0.00155099 0.00133906 0)
(-0.00196343 0.00149681 0)
(-0.00241249 0.00163579 0)
(-0.00289371 0.00175576 0)
(-0.00340263 0.00185712 0)
(-0.0039349 0.00194075 0)
(-0.00448633 0.00200778 0)
(-0.00505298 0.00205954 0)
(-0.00563121 0.00209745 0)
(-0.00621766 0.00212288 0)
(-0.00680927 0.00213721 0)
(-0.00740329 0.00214169 0)
(-0.00799724 0.0021375 0)
(-0.00858893 0.0021257 0)
(-0.0091764 0.00210724 0)
(-0.00975791 0.00208294 0)
(-0.0103319 0.00205349 0)
(-0.0108971 0.0020195 0)
(-0.0114521 0.00198146 0)
(-0.0119959 0.00193978 0)
(-0.0125274 0.00189479 0)
(-0.0130459 0.00184676 0)
(-0.0135503 0.00179589 0)
(-0.0140399 0.00174235 0)
(-0.014514 0.00168627 0)
(-0.0149718 0.00162774 0)
(-0.0154126 0.00156682 0)
(-0.0158358 0.00150357 0)
(-0.0162408 0.00143802 0)
(-0.0166269 0.00137022 0)
(-0.0169934 0.00130018 0)
(-0.0173399 0.00122793 0)
(-0.0176656 0.00115349 0)
(-0.0179701 0.00107688 0)
(-0.0182526 0.000998124 0)
(-0.0185127 0.000917256 0)
(-0.0187499 0.000834308 0)
(-0.0189635 0.000749321 0)
(-0.019153 0.00066234 0)
(-0.019318 0.000573419 0)
(-0.0194579 0.000482619 0)
(-0.0195722 0.00039001 0)
(-0.0196606 0.00029567 0)
(-0.0197226 0.000199684 0)
(-0.0197578 0.00010215 0)
(-0.0197657 3.1748e-06 0)
(-0.0197462 -9.71247e-05 0)
(-0.0196989 -0.00019862 0)
(-0.0196235 -0.00030117 0)
(-0.0195197 -0.000404624 0)
(-0.0193875 -0.00050882 0)
(-0.0192266 -0.00061358 0)
(-0.019037 -0.000718718 0)
(-0.0188187 -0.000824028 0)
(-0.0185716 -0.000929295 0)
(-0.0182959 -0.00103428 0)
(-0.0179916 -0.00113875 0)
(-0.0176591 -0.00124241 0)
(-0.0172986 -0.00134499 0)
(-0.0169105 -0.00144618 0)
(-0.0164952 -0.00154563 0)
(-0.0160534 -0.00164298 0)
(-0.0155856 -0.00173783 0)
(-0.0150926 -0.00182975 0)
(-0.0145755 -0.00191825 0)
(-0.014035 -0.00200281 0)
(-0.0134726 -0.00208286 0)
(-0.0128894 -0.00215775 0)
(-0.0122871 -0.00222678 0)
(-0.0116673 -0.0022892 0)
(-0.0110319 -0.00234414 0)
(-0.0103831 -0.00239069 0)
(-0.00972332 -0.00242786 0)
(-0.00905511 -0.00245456 0)
(-0.00838143 -0.00246964 0)
(-0.00770549 -0.00247189 0)
(-0.00703079 -0.00246004 0)
(-0.00636111 -0.00243278 0)
(-0.00570056 -0.00238881 0)
(-0.0050535 -0.00232685 0)
(-0.00442455 -0.00224573 0)
(-0.00381856 -0.0021444 0)
(-0.00324052 -0.00202209 0)
(-0.0026955 -0.00187837 0)
(-0.00218857 -0.00171332 0)
(-0.00172463 -0.00152778 0)
(-0.00130833 -0.00132354 0)
(-0.000943878 -0.00110376 0)
(-0.00063492 -0.000873405 0)
(-0.000384219 -0.000639848 0)
(-0.000193408 -0.000413523 0)
(-6.57868e-05 -0.000208742 0)
(-9.22706e-06 -4.59558e-05 0)
(-1.07116e-05 7.34812e-05 0)
(-7.3633e-05 0.000282177 0)
(-0.000212434 0.000524911 0)
(-0.000416049 0.000783288 0)
(-0.000678976 0.00104421 0)
(-0.000998111 0.00129771 0)
(-0.00136965 0.00153671 0)
(-0.00178929 0.00175652 0)
(-0.00225249 0.00195436 0)
(-0.00275452 0.00212887 0)
(-0.00329062 0.00227974 0)
(-0.00385604 0.00240746 0)
(-0.00444616 0.00251305 0)
(-0.00505657 0.00259786 0)
(-0.00568307 0.00266348 0)
(-0.00632179 0.0027116 0)
(-0.00696916 0.00274392 0)
(-0.00762192 0.00276212 0)
(-0.0082771 0.00276775 0)
(-0.00893204 0.00276229 0)
(-0.00958436 0.00274704 0)
(-0.0102319 0.00272318 0)
(-0.0108728 0.00269176 0)
(-0.0115054 0.00265365 0)
(-0.0121281 0.00260962 0)
(-0.0127396 0.0025603 0)
(-0.0133387 0.00250623 0)
(-0.0139241 0.00244782 0)
(-0.014495 0.00238544 0)
(-0.0150504 0.00231934 0)
(-0.0155893 0.00224975 0)
(-0.0161109 0.00217685 0)
(-0.0166145 0.00210074 0)
(-0.0170993 0.00202155 0)
(-0.0175645 0.00193933 0)
(-0.0180095 0.00185414 0)
(-0.0184335 0.00176604 0)
(-0.0188359 0.00167506 0)
(-0.019216 0.00158123 0)
(-0.0195731 0.0014846 0)
(-0.0199066 0.00138518 0)
(-0.020216 0.00128303 0)
(-0.0205005 0.00117818 0)
(-0.0207596 0.00107068 0)
(-0.0209927 0.00096058 0)
(-0.0211992 0.000847952 0)
(-0.0213786 0.000732862 0)
(-0.0215303 0.000615393 0)
(-0.0216539 0.000495635 0)
(-0.0217488 0.000373691 0)
(-0.0218147 0.000249676 0)
(-0.021851 0.000123715 0)
(-0.0218574 -4.05185e-06 0)
(-0.0218336 -0.000133473 0)
(-0.0217792 -0.000264383 0)
(-0.0216939 -0.000396602 0)
(-0.0215775 -0.000529934 0)
(-0.0214299 -0.00066417 0)
(-0.0212508 -0.000799082 0)
(-0.0210402 -0.000934429 0)
(-0.0207981 -0.00106995 0)
(-0.0205244 -0.00120536 0)
(-0.0202194 -0.00134037 0)
(-0.0198832 -0.00147465 0)
(-0.019516 -0.00160786 0)
(-0.0191182 -0.00173963 0)
(-0.0186902 -0.00186955 0)
(-0.0182324 -0.0019972 0)
(-0.0177457 -0.00212209 0)
(-0.0172306 -0.00224373 0)
(-0.0166881 -0.00236155 0)
(-0.0161191 -0.00247493 0)
(-0.0155247 -0.0025832 0)
(-0.0149064 -0.00268563 0)
(-0.0142655 -0.00278141 0)
(-0.0136037 -0.00286963 0)
(-0.0129229 -0.00294933 0)
(-0.0122251 -0.00301944 0)
(-0.0115128 -0.00307878 0)
(-0.0107884 -0.00312612 0)
(-0.0100549 -0.00316008 0)
(-0.00931539 -0.00317923 0)
(-0.00857331 -0.00318206 0)
(-0.00783243 -0.003167 0)
(-0.00709681 -0.00313244 0)
(-0.00637081 -0.00307679 0)
(-0.00565907 -0.0029985 0)
(-0.00496651 -0.00289616 0)
(-0.00429823 -0.00276855 0)
(-0.00365954 -0.00261477 0)
(-0.00305578 -0.00243434 0)
(-0.00249234 -0.00222745 0)
(-0.00197448 -0.00199509 0)
(-0.00150723 -0.00173939 0)
(-0.00109532 -0.00146396 0)
(-0.000743076 -0.00117432 0)
(-0.000454138 -0.000878425 0)
(-0.00023128 -0.000587239 0)
(-7.99107e-05 -0.000315351 0)
(-1.15701e-05 -8.28822e-05 0)
(-1.26994e-05 0.000114016 0)
(-8.59806e-05 0.000397024 0)
(-0.000245913 0.000709094 0)
(-0.000478194 0.00103245 0)
(-0.000775378 0.0013541 0)
(-0.00113328 0.00166401 0)
(-0.00154716 0.00195491 0)
(-0.002012 0.0022219 0)
(-0.0025227 0.00246206 0)
(-0.00307414 0.00267396 0)
(-0.0036612 0.0028573 0)
(-0.00427884 0.00301268 0)
(-0.00492223 0.00314127 0)
(-0.00558672 0.0032447 0)
(-0.00626793 0.00332481 0)
(-0.00696179 0.00338358 0)
(-0.00766454 0.00342303 0)
(-0.00837275 0.00344515 0)
(-0.00908329 0.00345181 0)
(-0.00979335 0.00344476 0)
(-0.0105004 0.0034256 0)
(-0.0112021 0.00339574 0)
(-0.0118965 0.00335644 0)
(-0.0125818 0.00330879 0)
(-0.0132563 0.00325371 0)
(-0.0139185 0.003192 0)
(-0.0145672 0.0031243 0)
(-0.0152011 0.00305115 0)
(-0.015819 0.00297299 0)
(-0.01642 0.00289015 0)
(-0.0170031 0.00280293 0)
(-0.0175674 0.00271153 0)
(-0.018112 0.00261612 0)
(-0.0186361 0.00251683 0)
(-0.0191389 0.00241377 0)
(-0.0196196 0.00230701 0)
(-0.0200775 0.00219662 0)
(-0.0205118 0.00208265 0)
(-0.0209219 0.00196515 0)
(-0.021307 0.00184418 0)
(-0.0216664 0.00171977 0)
(-0.0219996 0.00159198 0)
(-0.0223057 0.00146086 0)
(-0.0225843 0.00132648 0)
(-0.0228346 0.00118891 0)
(-0.0230561 0.00104824 0)
(-0.0232481 0.000904544 0)
(-0.0234102 0.000757939 0)
(-0.0235418 0.000608538 0)
(-0.0236424 0.000456469 0)
(-0.0237115 0.000301878 0)
(-0.0237486 0.000144922 0)
(-0.0237534 -1.42251e-05 0)
(-0.0237255 -0.000175373 0)
(-0.0236645 -0.000338314 0)
(-0.0235701 -0.000502826 0)
(-0.0234422 -0.000668666 0)
(-0.0232805 -0.000835573 0)
(-0.0230848 -0.00100327 0)
(-0.0228552 -0.00117144 0)
(-0.0225916 -0.00133978 0)
(-0.022294 -0.00150794 0)
(-0.0219625 -0.00167553 0)
(-0.0215975 -0.00184217 0)
(-0.021199 -0.00200743 0)
(-0.0207676 -0.00217084 0)
(-0.0203037 -0.00233191 0)
(-0.0198078 -0.00249011 0)
(-0.0192807 -0.00264483 0)
(-0.0187231 -0.00279547 0)
(-0.018136 -0.00294131 0)
(-0.0175205 -0.0030816 0)
(-0.0168778 -0.00321551 0)
(-0.0162092 -0.00334213 0)
(-0.0155165 -0.00346047 0)
(-0.0148013 -0.00356942 0)
(-0.0140657 -0.00366779 0)
(-0.013312 -0.00375427 0)
(-0.0125425 -0.00382744 0)
(-0.0117601 -0.00388577 0)
(-0.0109679 -0.00392763 0)
(-0.0101691 -0.00395128 0)
(-0.00936739 -0.00395489 0)
(-0.00856679 -0.00393658 0)
(-0.00777155 -0.00389444 0)
(-0.00698626 -0.00382658 0)
(-0.00621579 -0.00373118 0)
(-0.00546528 -0.00360659 0)
(-0.00474011 -0.0034514 0)
(-0.00404581 -0.00326457 0)
(-0.00338802 -0.00304558 0)
(-0.00277241 -0.00279464 0)
(-0.00220461 -0.00251289 0)
(-0.00169008 -0.00220269 0)
(-0.00123411 -0.00186795 0)
(-0.000841717 -0.00151453 0)
(-0.000517467 -0.00115073 0)
(-0.000265244 -0.00078768 0)
(-9.2371e-05 -0.000439847 0)
(-1.35674e-05 -0.000126624 0)
(-1.44295e-05 0.000160507 0)
(-9.70028e-05 0.000527736 0)
(-0.000276181 0.000917133 0)
(-0.00053483 0.00131185 0)
(-0.000863749 0.00169925 0)
(-0.00125769 0.00206951 0)
(-0.00171103 0.00241541 0)
(-0.00221799 0.00273205 0)
(-0.00277293 0.0030165 0)
(-0.00337027 0.00326737 0)
(-0.00400455 0.00348446 0)
(-0.00467046 0.00366851 0)
(-0.0053629 0.00382092 0)
(-0.00607703 0.00394355 0)
(-0.00680831 0.00403856 0)
(-0.00755249 0.00410822 0)
(-0.00830567 0.0041549 0)
(-0.00906426 0.00418088 0)
(-0.00982499 0.00418836 0)
(-0.0105849 0.00417938 0)
(-0.0113414 0.00415582 0)
(-0.0120921 0.00411935 0)
(-0.0128347 0.00407145 0)
(-0.0135675 0.00401342 0)
(-0.0142886 0.00394636 0)
(-0.0149965 0.00387121 0)
(-0.0156898 0.00378875 0)
(-0.0163671 0.00369964 0)
(-0.0170273 0.00360439 0)
(-0.0176693 0.00350345 0)
(-0.0182921 0.00339713 0)
(-0.0188946 0.00328572 0)
(-0.019476 0.00316943 0)
(-0.0200353 0.00304842 0)
(-0.0205717 0.00292282 0)
(-0.0210845 0.00279274 0)
(-0.0215727 0.00265827 0)
(-0.0220356 0.00251946 0)
(-0.0224725 0.00237641 0)
(-0.0228826 0.00222915 0)
(-0.0232652 0.00207777 0)
(-0.0236196 0.00192233 0)
(-0.0239451 0.00176289 0)
(-0.024241 0.00159955 0)
(-0.0245067 0.00143238 0)
(-0.0247415 0.00126151 0)
(-0.0249449 0.00108703 0)
(-0.0251161 0.000909076 0)
(-0.0252548 0.000727795 0)
(-0.0253603 0.000543342 0)
(-0.0254322 0.000355893 0)
(-0.02547 0.000165642 0)
(-0.0254732 -2.7202e-05 0)
(-0.0254415 -0.000222407 0)
(-0.0253745 -0.000419722 0)
(-0.025272 -0.000618877 0)
(-0.0251336 -0.000819579 0)
(-0.0249592 -0.00102151 0)
(-0.0247487 -0.00122434 0)
(-0.0245019 -0.0014277 0)
(-0.0242189 -0.00163119 0)
(-0.0238997 -0.0018344 0)
(-0.0235445 -0.00203688 0)
(-0.0231535 -0.00223816 0)
(-0.0227269 -0.0024377 0)
(-0.0222653 -0.00263497 0)
(-0.0217691 -0.00282935 0)
(-0.0212389 -0.0030202 0)
(-0.0206754 -0.00320681 0)
(-0.0200796 -0.00338842 0)
(-0.0194524 -0.00356419 0)
(-0.018795 -0.00373322 0)
(-0.0181086 -0.0038945 0)
(-0.0173949 -0.00404694 0)
(-0.0166554 -0.00418935 0)
(-0.0158922 -0.00432042 0)
(-0.0151072 -0.00443871 0)
(-0.0143029 -0.00454268 0)
(-0.0134819 -0.00463064 0)
(-0.0126471 -0.00470077 0)
(-0.0118018 -0.00475115 0)
(-0.0109493 -0.00477973 0)
(-0.0100937 -0.00478437 0)
(-0.00923887 -0.00476286 0)
(-0.00838944 -0.004713 0)
(-0.00755015 -0.00463257 0)
(-0.00672608 -0.0045195 0)
(-0.00592258 -0.00437186 0)
(-0.00514524 -0.00418805 0)
(-0.00439984 -0.00396687 0)
(-0.00369228 -0.00370775 0)
(-0.00302855 -0.00341085 0)
(-0.00241464 -0.0030774 0)
(-0.00185646 -0.00270987 0)
(-0.00135986 -0.00231236 0)
(-0.000930606 -0.00189089 0)
(-0.000574121 -0.00145385 0)
(-0.000295334 -0.00101229 0)
(-0.000103246 -0.00058029 0)
(-1.52571e-05 -0.000176302 0)
(-1.59525e-05 0.000212293 0)
(-0.000106792 0.00067276 0)
(-0.000303329 0.00114691 0)
(-0.000585995 0.00161899 0)
(-0.00094404 0.00207693 0)
(-0.00137121 0.00251132 0)
(-0.00186105 0.00291519 0)
(-0.00240706 0.0032838 0)
(-0.003003 0.00361434 0)
(-0.00364287 0.00390557 0)
(-0.00432084 0.00415749 0)
(-0.0050313 0.00437103 0)
(-0.00576893 0.00454786 0)
(-0.00652869 0.00469012 0)
(-0.00730586 0.00480027 0)
(-0.00809605 0.00488093 0)
(-0.00889523 0.0049348 0)
(-0.00969968 0.00496448 0)
(-0.010506 0.0049725 0)
(-0.0113112 0.0049612 0)
(-0.0121125 0.00493274 0)
(-0.0129074 0.00488905 0)
(-0.0136937 0.00483186 0)
(-0.0144693 0.00476265 0)
(-0.0152325 0.00468272 0)
(-0.0159815 0.00459318 0)
(-0.016715 0.00449492 0)
(-0.0174315 0.00438873 0)
(-0.0181298 0.00427522 0)
(-0.0188087 0.00415491 0)
(-0.0194671 0.00402819 0)
(-0.020104 0.00389541 0)
(-0.0207185 0.00375681 0)
(-0.0213095 0.00361259 0)
(-0.0218762 0.00346293 0)
(-0.0224177 0.00330796 0)
(-0.0229332 0.00314777 0)
(-0.0234218 0.00298248 0)
(-0.0238828 0.00281216 0)
(-0.0243154 0.00263689 0)
(-0.0247188 0.00245676 0)
(-0.0250924 0.00227185 0)
(-0.0254352 0.00208226 0)
(-0.0257468 0.00188808 0)
(-0.0260263 0.00168942 0)
(-0.0262731 0.00148641 0)
(-0.0264867 0.00127919 0)
(-0.0266663 0.00106791 0)
(-0.0268114 0.000852739 0)
(-0.0269214 0.000633876 0)
(-0.0269959 0.000411525 0)
(-0.0270343 0.000185915 0)
(-0.0270362 -4.27019e-05 0)
(-0.0270012 -0.000274054 0)
(-0.0269289 -0.000507844 0)
(-0.026819 -0.000743752 0)
(-0.0266713 -0.000981431 0)
(-0.0264856 -0.00122051 0)
(-0.0262617 -0.00146058 0)
(-0.0259996 -0.00170123 0)
(-0.0256992 -0.00194198 0)
(-0.0253607 -0.00218234 0)
(-0.0249841 -0.00242178 0)