/*--------------------------------*- C++ -*----------------------------------*\
  =========                 |
  \\      /  F ield         | OpenFOAM: The Open Source CFD Toolbox
   \\    /   O peration     | Website:  https://openfoam.org
    \\  /    A nd           | Version:  7
     \\/     M anipulation  |
\*---------------------------------------------------------------------------*/
FoamFile
{
    version     2.0;
    format      ascii;
    class       surfaceScalarField;
    location    "9.999";
    object      phi;
}
// * * * * * * * * * * * * * * * * * * * * * * * * * * * * * * * * * * * * * //

dimensions      [0 3 -1 0 0 0 0];

internalField   nonuniform List<scalar> 
37105
(
-1.51792e-05
1.51812e-05
-1.985e-09
-3.45172e-05
1.93405e-05
-2.51883e-09
-5.44191e-05
1.99045e-05
-2.5758e-09
-7.51524e-05
2.07359e-05
-2.63164e-09
-9.66736e-05
2.15238e-05
-2.64348e-09
-0.000118929
2.22578e-05
-2.60513e-09
-0.000141816
2.28898e-05
-2.51329e-09
-0.000165218
2.34045e-05
-2.37118e-09
-0.000189033
2.38172e-05
-2.18724e-09
-0.000213191
2.41596e-05
-1.97307e-09
-0.000237663
2.44738e-05
-1.74056e-09
-0.000262424
2.4763e-05
-1.4961e-09
-0.000287438
2.50148e-05
-1.24237e-09
-0.000312669
2.52319e-05
-9.85212e-10
2.54985e-05
-7.38869e-10
-0.000338167
-1.49131e-05
3.00943e-05
-3.39903e-05
3.84176e-05
-5.3622e-05
3.95362e-05
-7.40485e-05
4.11624e-05
-9.52196e-05
4.26949e-05
-0.000117069
4.41074e-05
-0.000139486
4.53065e-05
-0.000162342
4.62607e-05
-0.000185524
4.69993e-05
-0.000208948
4.75832e-05
-0.000232573
4.80993e-05
-0.000256378
4.85679e-05
-0.000280343
4.89797e-05
-0.000304446
4.93348e-05
4.97717e-05
-0.000328719
-1.43886e-05
4.44829e-05
-3.29534e-05
5.69825e-05
-5.20571e-05
5.86399e-05
-7.18902e-05
6.09955e-05
-9.23917e-05
6.31965e-05
-0.000113476
6.51913e-05
-0.000135015
6.6846e-05
-0.000156867
6.8113e-05
-0.000178902
6.90336e-05
-0.000201012
6.96935e-05
-0.000223143
7.02308e-05
-0.00024528
7.07049e-05
-0.000267436
7.11355e-05
-0.000289609
7.1508e-05
7.19452e-05
-0.000311783
-1.36218e-05
5.81047e-05
-3.14381e-05
7.47987e-05
-4.97764e-05
7.69782e-05
-6.87631e-05
7.99822e-05
-8.83246e-05
8.27581e-05
-0.000108351
8.52176e-05
-0.000128699
8.71943e-05
-0.000149212
8.86259e-05
-0.000169742
8.95635e-05
-0.000190163
9.01145e-05
-0.000210407
9.04752e-05
-0.000230473
9.07707e-05
-0.00025042
9.1082e-05
-0.000270285
9.13729e-05
9.16951e-05
-0.000290035
-1.26428e-05
7.07476e-05
-2.94843e-05
9.16402e-05
-4.68458e-05
9.43397e-05
-6.47734e-05
9.79098e-05
-8.31788e-05
0.000101163
-0.000101927
0.000103966
-0.000120863
0.00010613
-0.000139816
0.00010758
-0.00015863
0.000108377
-0.000177165
0.000108649
-0.00019535
0.000108661
-0.000213209
0.000108629
-0.000230864
0.000108737
-0.000248437
0.000108946
0.000109208
-0.00026595
-1.14989e-05
8.22464e-05
-2.71338e-05
0.000107275
-4.33379e-05
0.000110544
-6.00367e-05
0.000114609
-7.71223e-05
0.000118249
-9.44384e-05
0.000121282
-0.000111819
0.000123511
-0.000129091
0.000124851
-0.000146091
0.000125378
-0.000162684
0.000125242
-0.00017881
0.000124787
-0.000194531
0.00012435
-0.000210056
0.000124262
-0.000225638
0.000124527
0.000124975
-0.000241404
-1.01336e-05
9.238e-05
-2.44098e-05
0.000121551
-3.93259e-05
0.00012546
-5.46689e-05
0.000129952
-7.03177e-05
0.000133898
-8.61009e-05
0.000137065
-0.000101848
0.000139258
-0.000117386
0.000140388
-0.000132561
0.000140553
-0.000147253
0.000139934
-0.000161429
0.000138963
-0.000175199
0.00013812
-0.000188855
0.000137918
-0.000202785
0.000138457
0.00013941
-0.000217219
-8.57904e-06
0.000100959
-2.135e-05
0.000134322
-3.48825e-05
0.000138992
-4.87805e-05
0.00014385
-6.29144e-05
0.000148032
-7.71073e-05
0.000151258
-9.11905e-05
0.000153341
-0.000104995
0.000154193
-0.000118385
0.000153943
-0.000131265
0.000152814
-0.000143636
0.000151333
-0.000155642
0.000150127
-0.000167625
0.000149901
-0.000180053
0.000150884
0.000152558
-0.000193201
-6.86181e-06
0.000107821
-1.79988e-05
0.000145459
-3.00812e-05
0.000151075
-4.24737e-05
0.000156242
-5.50456e-05
0.000160604
-6.76236e-05
0.000163836
-8.00426e-05
0.00016576
-9.21425e-05
0.000166293
-0.000103806
0.000165607
-0.000114965
0.000163973
-0.000125647
0.000162016
-0.000136011
0.000160491
-0.000146383
0.000160272
-0.000157212
0.000161713
0.000164104
-0.000168757
-4.99696e-06
0.000112818
-1.44028e-05
0.000154865
-2.49924e-05
0.000161664
-3.58405e-05
0.00016709
-4.6827e-05
0.00017159
-5.77887e-05
0.000174798
-6.85634e-05
0.000176535
-7.90001e-05
0.000176729
-8.89978e-05
0.000175604
-9.85103e-05
0.000173486
-0.000107579
0.000171084
-0.000116341
0.000169253
-0.000125033
0.000168965
-0.000133979
0.000170659
0.00017355
-0.000143426
-2.98527e-06
0.000115803
-1.06208e-05
0.000162501
-1.96825e-05
0.000170726
-2.89602e-05
0.000176368
-3.83601e-05
0.00018099
-4.77212e-05
0.000184159
-5.68806e-05
0.000185694
-6.56969e-05
0.000185546
-7.40792e-05
0.000183987
-8.19883e-05
0.000181395
-8.9457e-05
0.000178553
-9.65774e-05
0.000176373
-0.000103462
0.000175849
-0.000110224
0.000177422
0.000180394
-0.000117069
-7.67899e-07
0.000116571
-6.71759e-06
0.00016845
-1.42007e-05
0.000178209
-2.19027e-05
0.00018407
-2.97344e-05
0.000188822
-3.752e-05
0.000191945
-4.50974e-05
0.000193272
-5.2333e-05
0.000192781
-5.91382e-05
0.000190792
-6.54656e-05
0.000187722
-7.13178e-05
0.000184405
-7.67298e-05
0.000181785
-8.1693e-05
0.000180813
-8.6016e-05
0.000181745
0.000184126
-8.97477e-05
1.27978e-06
0.000115291
-2.77449e-06
0.000172505
-8.58716e-06
0.000184022
-1.47323e-05
0.000190215
-2.10315e-05
0.000195121
-2.72734e-05
0.000198187
-3.33035e-05
0.000199302
-3.89933e-05
0.000198471
-4.42473e-05
0.000196046
-4.89992e-05
0.000192474
-5.32001e-05
0.000188606
-5.68018e-05
0.000185387
-5.9739e-05
0.00018375
-6.15837e-05
0.000183589
0.000184171
-6.16286e-05
3.31831e-06
0.000111973
1.27789e-06
0.000174545
-2.89324e-06
0.000188193
-7.52145e-06
0.000194843
-1.23274e-05
0.000199927
-1.70587e-05
0.000202918
-2.15795e-05
0.000203823
-2.57541e-05
0.000202646
-2.94752e-05
0.000199767
-3.26514e-05
0.00019565
-3.51765e-05
0.000191131
-3.6889e-05
0.000187099
-3.76801e-05
0.000184541
-3.73044e-05
0.000183214
0.000180881
-3.40142e-05
5.46515e-06
0.000106508
5.57681e-06
0.000174433
2.90642e-06
0.000190863
-4.03031e-07
0.000198153
-3.70604e-06
0.00020323
-6.96168e-06
0.000206174
-1.0013e-05
0.000206874
-1.26985e-05
0.000205331
-1.49022e-05
0.000201971
-1.64954e-05
0.000197244
-1.73308e-05
0.000191967
-1.71227e-05
0.000186891
-1.56233e-05
0.000183042
-1.26711e-05
0.000180262
0.000175644
-7.43469e-06
7.624e-06
9.88838e-05
9.82174e-06
0.000172236
8.77084e-06
0.000191914
6.93242e-06
0.000199991
4.91947e-06
0.000205243
2.99252e-06
0.000208101
1.29527e-06
0.000208571
1.34461e-09
0.000206625
-6.70528e-07
0.000202643
-6.22414e-07
0.000197195
3.04582e-07
0.00019104
2.38394e-06
0.000184812
6.06809e-06
0.000179357
1.15452e-05
0.000174784
0.000167814
1.93751e-05
9.71427e-06
8.91695e-05
1.40179e-05
0.000167932
1.45569e-05
0.000191375
1.40721e-05
0.000200476
1.3421e-05
0.000205894
1.2847e-05
0.000208675
1.25279e-05
0.00020889
1.26411e-05
0.000206512
1.33589e-05
0.000201925
1.48931e-05
0.000195661
1.74202e-05
0.000188513
2.1406e-05
0.000180826
2.74236e-05
0.00017334
3.49747e-05
0.000167233
0.000157325
4.54637e-05
1.16469e-05
7.75226e-05
1.8075e-05
0.000161504
2.0222e-05
0.000189228
2.10551e-05
0.000199643
2.16697e-05
0.000205279
2.23596e-05
0.000207985
2.33164e-05
0.000207934
2.47316e-05
0.000205097
2.68235e-05
0.000199833
2.98873e-05
0.000192598
3.40778e-05
0.000184322
3.97423e-05
0.000175161
4.81036e-05
0.000164978
5.80602e-05
0.000157277
0.000144637
7.07486e-05
1.3289e-05
6.42337e-05
2.18548e-05
0.000152938
2.5695e-05
0.000185388
2.78432e-05
0.000197495
2.96452e-05
0.000203477
3.15105e-05
0.000206119
3.36644e-05
0.00020578
3.63183e-05
0.000202443
3.96926e-05
0.000196459
4.42023e-05
0.000188088
5.01232e-05
0.000178401
5.72743e-05
0.00016801
6.78718e-05
0.000154381
8.02216e-05
0.000144927
0.000129665
9.51931e-05
1.44309e-05
4.98027e-05
2.51771e-05
0.000142192
3.08777e-05
0.000179687
3.43739e-05
0.000193998
3.73039e-05
0.000200547
4.02595e-05
0.000203164
4.35176e-05
0.000202522
4.73302e-05
0.00019863
5.1891e-05
0.000191898
5.76359e-05
0.000182343
6.53662e-05
0.000170671
7.3753e-05
0.000159623
8.6343e-05
0.000141791
0.000101423
0.000129847
0.000111912
0.000119177
1.47402e-05
3.50626e-05
2.78249e-05
0.000129107
3.564e-05
0.000171872
4.05622e-05
0.000189076
4.45905e-05
0.000196519
4.85625e-05
0.000199192
5.28206e-05
0.000198263
5.76924e-05
0.000193759
6.33868e-05
0.000186203
7.00521e-05
0.000175678
7.96433e-05
0.00016108
8.92578e-05
0.000150009
0.000102821
0.000128228
0.000119902
0.000112765
8.95677e-05
0.000142246
1.38401e-05
2.12224e-05
2.95921e-05
0.000113355
3.97965e-05
0.000161668
4.62839e-05
0.000182589
5.14409e-05
0.000191362
5.63825e-05
0.00019425
6.15256e-05
0.00019312
6.72902e-05
0.000187994
7.41665e-05
0.000179327
8.13827e-05
0.000168462
9.25531e-05
0.000149909
0.000103971
0.000138591
0.000118657
0.000113543
0.000135017
9.64046e-05
6.30598e-05
0.000161525
1.1702e-05
9.52039e-06
3.03511e-05
9.47063e-05
4.30974e-05
0.000148922
5.13858e-05
0.0001743
5.77782e-05
0.00018497
6.36713e-05
0.000188357
6.96269e-05
0.000187165
7.60088e-05
0.000181612
8.41237e-05
0.000171212
9.17782e-05
0.000160807
0.000103672
0.000138016
0.000116679
0.000125583
0.000134512
9.57091e-05
0.000149599
8.13178e-05
3.5309e-05
0.00017735
8.88749e-06
6.32893e-07
2.98744e-05
7.37194e-05
4.52359e-05
0.00013356
5.56856e-05
0.000163851
6.35103e-05
0.000177145
7.03567e-05
0.000181511
7.7126e-05
0.000180395
8.38407e-05
0.000174898
9.30682e-05
0.000161985
0.000101496
0.000152379
0.000113578
0.000125934
0.000126561
0.0001126
0.000147819
7.44517e-05
0.000163989
6.51472e-05
8.03949e-06
0.000191259
6.01021e-06
-5.37732e-06
2.77497e-05
5.19799e-05
4.59311e-05
0.000115379
5.89763e-05
0.000150805
6.84963e-05
0.000167625
7.63153e-05
0.000173692
8.39852e-05
0.000172725
9.08746e-05
0.000168008
0.00010071
0.000152149
0.000110299
0.00014279
0.00012307
0.000113163
0.000135206
0.000100465
0.000157503
5.21542e-05
0.000176263
4.6387e-05
-1.85308e-05
0.000202834
3.2918e-06
-8.66912e-06
2.36308e-05
3.16409e-05
4.49282e-05
9.40813e-05
6.09556e-05
0.000134778
7.2521e-05
0.000156059
8.13585e-05
0.000164854
9.00308e-05
0.000164053
9.72551e-05
0.000160784
0.00010699
0.000142414
0.000117601
0.000132179
0.000131503
9.92606e-05
0.000144211
8.77568e-05
0.00016461
3.17555e-05
0.000185769
2.52279e-05
-4.49804e-05
0.000212219
1.02395e-06
-9.69307e-06
1.80368e-05
1.46281e-05
4.20846e-05
7.00334e-05
6.11567e-05
0.000115706
7.5235e-05
0.000141981
8.53202e-05
0.000154769
9.50005e-05
0.000154373
0.000102988
0.000152797
0.000112045
0.000133356
0.00012325
0.000120974
0.000136639
8.58712e-05
0.000153209
7.1187e-05
0.000168905
1.60601e-05
0.000193349
7.83662e-07
-7.10132e-05
0.000219382
-2.56838e-07
-9.43623e-06
1.22341e-05
2.13721e-06
3.70805e-05
4.5187e-05
5.90439e-05
9.37425e-05
7.61475e-05
0.000124877
8.79317e-05
0.000142985
9.84722e-05
0.000143832
0.000107863
0.000143406
0.00011596
0.00012526
0.000128249
0.000108686
0.000138899
7.52207e-05
0.00015925
5.08361e-05
0.000171136
4.17399e-06
0.000200237
-2.83173e-05
-9.48185e-05
0.000224042
-4.86415e-07
-8.94982e-06
7.66261e-06
-6.01182e-06
2.97684e-05
2.30812e-05
5.41282e-05
6.93827e-05
7.4587e-05
0.000104419
8.87885e-05
0.000128784
9.98889e-05
0.000132732
0.000111066
0.000132228
0.000119167
0.000117158
0.00013144
9.64135e-05
0.000140858
6.58019e-05
0.000163676
2.80187e-05
0.000173027
-5.17699e-06
0.000207834
-6.31246e-05
-0.000112239
0.000225255
1.72357e-09
-8.95154e-06
4.91554e-06
-1.09256e-05
2.18585e-05
6.13833e-06
4.64714e-05
4.47697e-05
6.97089e-05
8.11812e-05
8.71718e-05
0.000111321
9.89073e-05
0.000120996
0.000111211
0.000119925
0.000121278
0.000107091
0.000133227
8.44646e-05
0.000142418
5.66115e-05
0.00016551
4.9265e-06
0.000174405
-1.40726e-05
0.000210934
-9.9653e-05
-0.000111937
0.000210631
6.65914e-07
-9.61745e-06
4.33846e-06
-1.45982e-05
1.56461e-05
-5.16931e-06
3.71569e-05
2.3259e-05
6.11425e-05
5.71955e-05
8.19022e-05
9.0561e-05
9.5834e-05
0.000107064
0.000107573
0.000108186
0.000119225
9.54391e-05
0.000132044
7.16448e-05
0.000141768
4.68879e-05
0.00015927
-1.25752e-05
0.000170987
-2.57893e-05
0.000190938
-0.000119604
-0.000112447
0.000191448
1.41673e-06
-1.10342e-05
4.96496e-06
-1.81464e-05
1.22341e-05
-1.24385e-05
2.83939e-05
7.0992e-06
5.00395e-05
3.55499e-05
7.20316e-05
6.8569e-05
8.89129e-05
9.01831e-05
0.000101116
9.59824e-05
0.000111866
8.46891e-05
0.000125282
5.82291e-05
0.000137221
3.49492e-05
0.000145216
-2.05706e-05
0.000157902
-3.84751e-05
0.000162129
-0.000123831
-0.000159665
0.000209346
2.01405e-06
-1.30482e-05
5.60523e-06
-2.17376e-05
1.086e-05
-1.76932e-05
2.17154e-05
-3.75622e-06
3.85469e-05
1.87184e-05
5.87019e-05
4.84139e-05
7.65785e-05
7.23066e-05
9.07353e-05
8.18255e-05
0.000100226
7.51981e-05
0.000112264
4.61912e-05
0.000125069
2.21442e-05
0.000126344
-2.18451e-05
0.000143267
-5.53984e-05
0.0001747
-0.000155264
-0.000233616
0.000248651
2.25989e-06
-1.53081e-05
5.52963e-06
-2.50073e-05
9.6221e-06
-2.17857e-05
1.65181e-05
-1.06522e-05
2.8039e-05
7.19753e-06
4.39108e-05
3.25421e-05
6.03692e-05
5.58482e-05
7.48359e-05
6.73589e-05
8.49763e-05
6.50577e-05
9.46964e-05
3.64711e-05
0.000103326
1.35149e-05
0.000107951
-2.64699e-05
0.000149159
-9.66065e-05
0.000206133
-0.000212238
-0.000292898
0.000265415
2.01858e-06
-1.73267e-05
4.37658e-06
-2.73653e-05
7.12593e-06
-2.45351e-05
1.1242e-05
-1.47683e-05
1.82526e-05
1.86951e-07
2.91503e-05
2.16444e-05
4.21291e-05
4.28694e-05
5.48416e-05
5.46464e-05
6.59331e-05
5.39662e-05
7.02977e-05
3.21065e-05
7.8887e-05
4.92559e-06
0.000111497
-5.90801e-05
0.000176744
-0.000161853
0.000229301
-0.000264796
-0.000341956
0.000278359
1.25633e-06
-1.8583e-05
2.12345e-06
-2.82325e-05
3.06783e-06
-2.54794e-05
4.81365e-06
-1.65141e-05
8.25464e-06
-3.25404e-06
1.47234e-05
1.51756e-05
2.34237e-05
3.4169e-05
3.34604e-05
4.46097e-05
4.0936e-05
4.64906e-05
4.60796e-05
2.69629e-05
7.78142e-05
-2.6809e-05
0.000138972
-0.000120238
0.000202282
-0.000225162
0.000248095
-0.000310609
-0.000376894
0.000283032
6.54832e-08
-1.86485e-05
-9.62583e-07
-2.72044e-05
-2.1691e-06
-2.42729e-05
-2.84697e-06
-1.58362e-05
-2.49953e-06
-3.60148e-06
2.83573e-07
1.23925e-05
4.49846e-06
2.99541e-05
9.92878e-06
3.91794e-05
1.71825e-05
3.92368e-05
4.37075e-05
4.37925e-07
0.000103986
-8.70878e-05
0.000169225
-0.000185476
0.000221278
-0.000277216
0.00025595
-0.000345281
-0.000399074
0.00027813
-1.34841e-06
-1.73001e-05
-4.34232e-06
-2.42105e-05
-7.78728e-06
-2.0828e-05
-1.09411e-05
-1.26824e-05
-1.34488e-05
-1.09382e-06
-1.46324e-05
1.35762e-05
-1.4155e-05
2.94767e-05
-9.36465e-06
3.4389e-05
1.39159e-05
1.59563e-05
6.92181e-05
-5.48642e-05
0.000135881
-0.00015375
0.000191704
-0.000241299
0.000230603
-0.000316116
0.000255304
-0.000369981
-0.000418899
0.000275129
-2.70077e-06
-1.45993e-05
-7.46658e-06
-1.94447e-05
-1.28593e-05
-1.54353e-05
-1.8172e-05
-7.36971e-06
-2.2667e-05
3.4012e-06
-2.54516e-05
1.63607e-05
-2.44847e-05
2.85099e-05
-9.59993e-06
1.95042e-05
3.68701e-05
-3.05138e-05
0.000102862
-0.000120856
0.00016078
-0.000211669
0.000203885
-0.000284404
0.000232372
-0.000344602
0.00025314
-0.00039075
-0.000431802
0.000266043
-3.70961e-06
-1.08897e-05
-9.67758e-06
-1.34767e-05
-1.62089e-05
-8.90388e-06
-2.24079e-05
-1.17072e-06
-2.70137e-05
8.00693e-06
-2.77778e-05
1.71249e-05
-2.12565e-05
2.19885e-05
1.07474e-05
-1.24997e-05
7.03684e-05
-9.01347e-05
0.000130009
-0.000180497
0.000175569
-0.000257228
0.000208205
-0.00031704
0.000231094
-0.000367491
0.000245728
-0.000405384
-0.000443759
0.000257685
-4.20857e-06
-6.68116e-06
-1.06401e-05
-7.04514e-06
-1.73394e-05
-2.2046e-06
-2.30074e-05
4.49726e-06
-2.59735e-05
1.09731e-05
-2.29273e-05
1.40787e-05
-5.78814e-06
4.84932e-06
4.01895e-05
-5.84773e-05
9.86704e-05
-0.000148616
0.000147204
-0.000229031
0.000182762
-0.000292787
0.000208534
-0.000342812
0.000225316
-0.000384273
0.000238521
-0.000418589
-0.000454766
0.000249527
-4.20061e-06
-2.48055e-06
-1.04321e-05
-8.13656e-07
-1.6533e-05
3.89633e-06
-2.09606e-05
8.92487e-06
-2.15651e-05
1.15775e-05
-1.48677e-05
7.38133e-06
1.48595e-05
-2.4878e-05
6.85184e-05
-0.000112136
0.000118135
-0.000198233
0.000157081
-0.000267976
0.000185143
-0.000320849
0.000204673
-0.000362342
0.000219206
-0.000398805
0.000230576
-0.000429959
-0.000463287
0.000239097
-3.8172e-06
1.33665e-06
-9.41768e-06
4.78682e-06
-1.45919e-05
9.07053e-06
-1.77685e-05
1.21015e-05
-1.64342e-05
1.02432e-05
-2.7201e-06
-6.3328e-06
3.85433e-05
-6.61413e-05
8.92696e-05
-0.000162862
0.000130861
-0.000239824
0.000161771
-0.000298886
0.000183546
-0.000342624
0.000199962
-0.000378757
0.000211838
-0.000410682
0.000221361
-0.000439482
-0.000472872
0.000230945
-3.23534e-06
4.57199e-06
-8.00059e-06
9.55208e-06
-1.22372e-05
1.33072e-05
-1.44427e-05
1.4307e-05
-1.16323e-05
7.4329e-06
1.25598e-05
-3.05249e-05
6.15044e-05
-0.000115086
0.000104532
-0.000205891
0.000138199
-0.00027349
0.000162658
-0.000323345
0.000180467
-0.000360433
0.00019364
-0.00039193
0.000203814
-0.000420856
0.000213524
-0.000449191
-0.000480583
0.000221236
-2.58627e-06
7.15826e-06
-6.47546e-06
1.34413e-05
-9.85828e-06
1.669e-05
-1.12506e-05
1.56993e-05
-3.3149e-06
-5.02806e-07
3.11144e-05
-6.49542e-05
7.85602e-05
-0.000162532
0.000114911
-0.000242241
0.000141861
-0.00030044
0.000161452
-0.000342936
0.000175606
-0.000374588
0.000186894
-0.000403218
0.000196366
-0.000430328
0.000204435
-0.000457261
-0.000488285
0.000212138
-1.96626e-06
9.12452e-06
-5.00324e-06
1.64782e-05
-7.45162e-06
1.91384e-05
-8.03658e-06
1.62842e-05
8.97434e-06
-1.75137e-05
5.10685e-05
-0.000107048
9.06624e-05
-0.000202126
0.000121108
-0.000272687
0.000142903
-0.000322235
0.000158384
-0.000358417
0.000170245
-0.000386449
0.000180074
-0.000413048
0.000188087
-0.000438341
0.000196215
-0.000465389
-0.000495626
0.000203556
-1.4256e-06
1.05501e-05
-3.63876e-06
1.86914e-05
-5.06443e-06
2.0564e-05
-2.92838e-06
1.41482e-05
2.32242e-05
-4.36663e-05
6.56624e-05
-0.000149487
9.94911e-05
-0.000235954
0.00012436
-0.000297556
0.000141831
-0.000339706
0.000154452
-0.000371038
0.000164351
-0.000396348
0.00017276
-0.000421457
0.000180537
-0.000446118
0.000187859
-0.00047271
-0.00050189
0.000194123
-9.86865e-07
1.1537e-05
-2.31821e-06
2.00228e-05
-3.20631e-06
2.14521e-05
5.6132e-06
5.32866e-06
3.95786e-05
-7.76317e-05
7.61385e-05
-0.000186046
0.000104993
-0.000264809
0.000125257
-0.00031782
0.000139386
-0.000353835
0.000149672
-0.000381324
0.000158132
-0.000404807
0.000165839
-0.000429164
0.000172651
-0.000452931
0.000179392
-0.000479451
-0.000508338
0.00018584
-6.73711e-07
1.22107e-05
-1.17349e-06
2.05225e-05
-1.72669e-06
2.20053e-05
1.43986e-05
-1.07966e-05
5.28535e-05
-0.000116087
8.44456e-05
-0.000217638
0.000108087
-0.00028845
0.000124452
-0.000334185
0.00013585
-0.000365233
0.000144473
-0.000389947
0.000151922
-0.000412257
0.000158602
-0.000435844
0.000165004
-0.000459332
0.000171439
-0.000485887
-0.0005137
0.000176802
-3.005e-07
1.25112e-05
-1.65115e-07
2.03872e-05
1.34826e-06
2.0492e-05
2.48918e-05
-3.43402e-05
6.16609e-05
-0.000152856
8.98013e-05
-0.000245779
0.000109178
-0.000307827
0.000122287
-0.000347294
0.000131628
-0.000374574
0.000138968
-0.000397287
0.000145464
-0.000418753
0.000151631
-0.00044201
0.000157481
-0.000465182
0.000163115
-0.000491521
-0.000518944
0.000168358
1.00243e-07
1.2411e-05
1.98494e-07
2.02889e-05
6.22995e-06
1.44605e-05
3.65408e-05
-6.4651e-05
6.88329e-05
-0.000185148
9.28976e-05
-0.000269844
0.000108717
-0.000323646
0.000119232
-0.000357809
0.000126917
-0.000382258
0.000133234
-0.000403604
0.00013912
-0.000424638
0.000144599
-0.00044749
0.000149897
-0.000470481
0.000155254
-0.000496877
-0.000523515
0.000159825
2.08599e-07
1.22024e-05
-8.72305e-08
2.05847e-05
1.13468e-05
3.02644e-06
4.6204e-05
-9.95082e-05
7.40676e-05
-0.000213011
9.39425e-05
-0.000289718
0.000106853
-0.000336556
0.000115415
-0.000366371
0.00012187
-0.000388714
0.000127431
-0.000409165
0.000132647
-0.000429853
0.000137633
-0.000452477
0.000142548
-0.000475395
0.000147225
-0.000501555
-0.000527668
0.000151378
2.08189e-07
1.19942e-05
1.45229e-08
2.07784e-05
1.70077e-05
-1.39667e-05
5.22163e-05
-0.000134717
7.74364e-05
-0.000238232
9.3797e-05
-0.000306079
0.000104164
-0.000346924
0.000111153
-0.00037336
0.000116638
-0.000394199
0.000121514
-0.000414041
0.000126244
-0.000434584
0.000130741
-0.000456973
0.000135116
-0.00047977
0.000139402
-0.000505841
-0.000531461
0.000143195
2.71296e-07
1.17229e-05
1.3718e-06
1.96779e-05
2.4412e-05
-3.7007e-05
5.63343e-05
-0.000166639
7.88922e-05
-0.000260789
9.24697e-05
-0.000319657
0.000100764
-0.000355218
0.000106509
-0.000379105
0.000111229
-0.000398919
0.000115591
-0.000418403
0.000119814
-0.000438807
0.000123837
-0.000460997
0.00012784
-0.000483773
0.000131595
-0.000509596
-0.000534808
0.000134941
7.70293e-08
1.16458e-05
4.00933e-06
1.57456e-05
3.19203e-05
-6.49179e-05
5.96038e-05
-0.000194323
7.87904e-05
-0.000279976
9.0135e-05
-0.000331001
9.691e-05
-0.000361993
0.000101688
-0.000383883
0.000105781
-0.000403012
0.000109633
-0.000422254
0.000113415
-0.000442589
0.000117027
-0.000464608
0.000120548
-0.000487294
0.000123859
-0.000512906
-0.000537849
0.0001269
-1.65288e-07
1.18111e-05
7.14662e-06
8.43369e-06
3.80086e-05
-9.57799e-05
6.18017e-05
-0.000218116
7.7668e-05
-0.000295842
8.70144e-05
-0.000340348
9.26261e-05
-0.000367605
9.66838e-05
-0.00038794
0.000100253
-0.000406581
0.000103684
-0.000425686
0.000107039
-0.000445944
0.000110213
-0.000467782
0.000113339
-0.000490421
0.000116196
-0.000515764
-0.000540442
0.000118789
-3.59518e-07
1.21706e-05
1.0492e-05
-2.41778e-06
4.18492e-05
-0.000127137
6.29695e-05
-0.000239236
7.58735e-05
-0.000308746
8.34294e-05
-0.000347903
8.81053e-05
-0.000372281
9.16022e-05
-0.000391437
9.47376e-05
-0.000409717
9.7749e-05
-0.000428697
0.00010069
-0.000448884
0.000103474
-0.000470567
0.000106164
-0.00049311
0.000108585
-0.000518185
-0.000542689
0.000110832
-6.55851e-07
1.28265e-05
1.46484e-05
-1.7722e-05
4.33664e-05
-0.000155855
6.27735e-05
-0.000258643
7.35475e-05
-0.000319521
7.95791e-05
-0.000353935
8.34283e-05
-0.00037613
8.64449e-05
-0.000394454
8.91885e-05
-0.00041246
9.18277e-05
-0.000431336
9.43784e-05
-0.000451435
9.67564e-05
-0.000472944
9.9047e-05
-0.000495401
0.000101053
-0.000520191
-0.000544509
0.000102873
-8.80735e-07
1.37072e-05
1.88825e-05
-3.74853e-05
4.4399e-05
-0.000181372
6.14373e-05
-0.000275681
7.06524e-05
-0.000328736
7.55469e-05
-0.000358829
7.87116e-05
-0.000379295
8.12907e-05
-0.000397033
8.36727e-05
-0.000414842
8.59408e-05
-0.000433604
8.81023e-05
-0.000453597
9.00996e-05
-0.000474942
9.19781e-05
-0.000497279
9.35786e-05
-0.000521791
-0.000545994
9.50633e-05
-1.64238e-07
1.38715e-05
2.26123e-05
-6.02619e-05
4.49384e-05
-0.000203698
5.94744e-05
-0.000290217
6.72754e-05
-0.000336537
7.13528e-05
-0.000362907
7.3972e-05
-0.000381914
7.61463e-05
-0.000399207
7.81653e-05
-0.000416861
8.00766e-05
-0.000435516
8.1867e-05
-0.000455387
8.34782e-05
-0.000476553
8.49657e-05
-0.000498767
8.61768e-05
-0.000523002
-0.000547102
8.72852e-05
7.796e-07
1.30919e-05
2.55164e-05
-8.49987e-05
4.49428e-05
-0.000223124
5.71272e-05
-0.000302402
6.36037e-05
-0.000343013
6.70259e-05
-0.000366329
6.92293e-05
-0.000384117
7.10424e-05
-0.00040102
7.27108e-05
-0.00041853
7.42615e-05
-0.000437066
7.56765e-05
-0.000456802
7.69128e-05
-0.000477789
7.80025e-05
-0.000499856
7.88344e-05
-0.000523834
-0.000547901
7.96333e-05
2.23414e-06
1.08577e-05
2.7402e-05
-0.000110167
4.45469e-05
-0.000240269
5.45763e-05
-0.000312431
5.98162e-05
-0.000348253
6.26406e-05
-0.000369154
6.44823e-05
-0.000385959
6.59666e-05
-0.000402505
6.72892e-05
-0.000419852
6.84833e-05
-0.000438261
6.95314e-05
-0.00045785
7.03913e-05
-0.000478649
7.11008e-05
-0.000500566
7.15616e-05
-0.000524295
-0.000548317
7.1978e-05
4.27797e-06
6.57975e-06
2.83195e-05
-0.000134208
4.37474e-05
-0.000255697
5.18987e-05
-0.000320582
5.60037e-05
-0.000352358
5.82531e-05
-0.000371403
5.97538e-05
-0.00038746
6.09287e-05
-0.00040368
6.19211e-05
-0.000420845
6.27615e-05
-0.000439101
6.34401e-05
-0.000458529
6.39288e-05
-0.000479138
6.42496e-05
-0.000500887
6.43259e-05
-0.000524371
-0.000548345
6.43533e-05
6.68499e-06
-1.05233e-07
2.82234e-05
-0.000155746
4.23436e-05
-0.000269817
4.91069e-05
-0.000327346
5.22215e-05
-0.000355473
5.3916e-05
-0.000373097
5.50629e-05
-0.000388607
5.59278e-05
-0.000404544
5.65932e-05
-0.00042151
5.70854e-05
-0.000439593
5.74001e-05
-0.000458843
5.75159e-05
-0.000479254
5.74593e-05
-0.00050083
5.71526e-05
-0.000524065
-0.00054793
5.67375e-05
9.36278e-06
-9.46801e-06
2.82897e-05
-0.000174673
4.04799e-05
-0.000282007
4.61174e-05
-0.000332983
4.84546e-05
-0.00035781
4.96418e-05
-0.000374284
5.04281e-05
-0.000389393
5.09766e-05
-0.000405093
5.13201e-05
-0.000421854
5.14686e-05
-0.000439742
5.14195e-05
-0.000458794
5.11637e-05
-0.000478998
5.07184e-05
-0.000500385
5.00212e-05
-0.000523367
-0.000547109
4.92e-05
1.14391e-05
-2.09072e-05
2.81663e-05
-0.000191401
3.83833e-05
-0.000292224
4.2929e-05
-0.000337529
4.46644e-05
-0.000359545
4.54273e-05
-0.000375047
4.586e-05
-0.000389826
4.60828e-05
-0.000405316
4.60993e-05
-0.00042187
4.59056e-05
-0.000439548
4.54968e-05
-0.000458386
4.48662e-05
-0.000478367
4.40367e-05
-0.000499555
4.29591e-05
-0.00052229
-0.000545857
4.17079e-05
1.28088e-05
-3.3716e-05
2.76201e-05
-0.000206212
3.60863e-05
-0.000300691
3.96239e-05
-0.000341067
4.08496e-05
-0.000360771
4.12563e-05
-0.000375454
4.13588e-05
-0.000389928
4.1255e-05
-0.000405212
4.09429e-05
-0.000421558
4.04083e-05
-0.000439013
3.96417e-05
-0.000457619
3.8638e-05
-0.000477364
3.74115e-05
-0.000498329
3.5938e-05
-0.000520816
-0.000544203
3.42832e-05
1.34649e-05
-4.71809e-05
2.66852e-05
-0.000219432
3.36436e-05
-0.000307649
3.62805e-05
-0.000343703
3.70475e-05
-0.000361538
3.71344e-05
-0.000375541
3.69243e-05
-0.000389718
3.64967e-05
-0.000404784
3.58524e-05
-0.000420914
3.4976e-05
-0.000438137
3.38558e-05
-0.000456499
3.2481e-05
-0.000475989
3.08598e-05
-0.000496708
2.89785e-05
-0.000518935
-0.000542136
2.69116e-05
1.35445e-05
-6.07254e-05
2.53877e-05
-0.000231275
3.10742e-05
-0.000313335
3.2941e-05
-0.00034557
3.3285e-05
-0.000361882
3.30659e-05
-0.000375322
3.25553e-05
-0.000389208
3.18097e-05
-0.000404039
3.08348e-05
-0.000419939
2.96176e-05
-0.00043692
2.81458e-05
-0.000455027
2.64087e-05
-0.000474252
2.4397e-05
-0.000494696
2.20696e-05
-0.000516608
-0.000539661
1.95947e-05
1.32376e-05
-7.3963e-05
2.38258e-05
-0.000241864
2.84264e-05
-0.000317936
2.96321e-05
-0.000346776
2.95851e-05
-0.000361835
2.90654e-05
-0.000374802
2.82573e-05
-0.000388399
2.7197e-05
-0.000402978
2.58922e-05
-0.000418634
2.43335e-05
-0.000435361
2.25108e-05
-0.000453204
2.04166e-05
-0.000472157
1.80404e-05
-0.00049232
1.52601e-05
-0.000513827
-0.000536719
1.23181e-05
1.26712e-05
-8.66342e-05
2.2069e-05
-0.000251261
2.57276e-05
-0.000321595
2.63683e-05
-0.000347417
2.59598e-05
-0.000361426
2.51397e-05
-0.000373982
2.40334e-05
-0.000387293
2.26607e-05
-0.000401606
2.10288e-05
-0.000417002
1.91299e-05
-0.000433462
1.69546e-05
-0.000451029
1.45035e-05
-0.000469706
1.17787e-05
-0.000489595
8.60662e-06
-0.000510655
-0.000533136
5.02374e-06
1.19313e-05
-9.85655e-05
2.01922e-05
-0.000259522
2.30208e-05
-0.000324423
2.31672e-05
-0.000347563
2.24202e-05
-0.000360679
2.12993e-05
-0.000372861
1.98913e-05
-0.000385885
1.82056e-05
-0.00039992
1.62467e-05
-0.000415043
1.40074e-05
-0.000431223
1.14804e-05
-0.000448502
8.66375e-06
-0.00046689
5.55984e-06
-0.000486491
2.25806e-06
-0.000507353
-0.000528745
-2.13322e-06
1.10588e-05
-0.000109624
1.82433e-05
-0.000266707
2.0337e-05
-0.000326517
2.00435e-05
-0.00034727
1.89725e-05
-0.000359608
1.75474e-05
-0.000371436
1.58336e-05
-0.000384171
1.38334e-05
-0.00039792
1.1547e-05
-0.000412757
8.96849e-06
-0.000428644
6.09415e-06
-0.000445627
2.89845e-06
-0.000463694
-6.75629e-07
-0.000482917
-4.27303e-06
-0.000503756
-0.000524288
-8.73003e-06
1.00249e-05
-0.000119649
1.62719e-05
-0.000272954
1.77111e-05
-0.000327956
1.70127e-05
-0.000346571
1.56218e-05
-0.000358217
1.38895e-05
-0.000369704
1.18657e-05
-0.000382147
9.54627e-06
-0.0003956
6.92764e-06
-0.000410138
4.00949e-06
-0.000425726
7.80144e-07
-0.000442398
-2.7391e-06
-0.000460175
-6.46527e-06
-0.000479191
-1.07813e-05
-0.00049944
-0.000519718
-1.53508e-05
9.06384e-06
-0.000128713
1.43275e-05
-0.000278217
1.51564e-05
-0.000328785
1.40766e-05
-0.000345491
1.23683e-05
-0.000356509
1.03261e-05
-0.000367662
7.98628e-06
-0.000379808
5.33948e-06
-0.000392953
2.37995e-06
-0.000407179
-8.66843e-07
-0.00042248
-4.39473e-06
-0.00043887
-8.2156e-06
-0.000456354
-1.23156e-05
-0.000475091
-1.70749e-05
-0.000494681
-0.000514866
-2.19269e-05
8.14411e-06
-0.000136857
1.24444e-05
-0.000282518
1.26849e-05
-0.000329025
1.12329e-05
-0.000344039
9.21178e-06
-0.000354488
6.85794e-06
-0.000365308
4.19135e-06
-0.000377141
1.19602e-06
-0.000389958
-2.05343e-06
-0.000403929
-5.60314e-06
-0.00041893
-9.47096e-06
-0.000435002
-1.36265e-05
-0.000452198
-1.81374e-05
-0.00047058
-2.32141e-05
-0.000489604
-0.000509665
-2.84148e-05
7.24564e-06
-0.000144103
1.0634e-05
-0.000285906
1.03053e-05
-0.000328697
8.48636e-06
-0.000342221
6.15141e-06
-0.000352153
3.47603e-06
-0.000362632
4.4759e-07
-0.000374113
-2.79615e-06
-0.000386714
-6.36369e-06
-0.000400362
-1.02559e-05
-0.000415038
-1.44535e-05
-0.000430805
-1.89625e-05
-0.000447689
-2.38966e-05
-0.000465646
-2.92391e-05
-0.000484262
-0.000504089
-3.48152e-05
6.37469e-06
-0.000150477
8.90422e-06
-0.000288436
8.02149e-06
-0.000327814
5.84029e-06
-0.000340039
3.1819e-06
-0.000349495
1.28755e-07
-0.000359579
-3.10495e-06
-0.000370879
-6.68781e-06
-0.000383132
-1.05917e-05
-0.000396458
-1.48136e-05
-0.000410816
-1.93436e-05
-0.000426275
-2.42112e-05
-0.000442822
-2.95114e-05
-0.000460346
-3.51573e-05
-0.000478616
-0.000498144
-4.11029e-05
5.53632e-06
-0.000156014
7.25615e-06
-0.000290155
5.84361e-06
-0.000326401
3.29566e-06
-0.000337491
2.59761e-07
-0.000346459
-2.98386e-06
-0.000356336
-6.58141e-06
-0.000367281
-1.0495e-05
-0.000379218
-1.4727e-05
-0.000392226
-1.9275e-05
-0.000406268
-2.41397e-05
-0.00042141
-2.93563e-05
-0.000437605
-3.49847e-05