/*--------------------------------*- C++ -*----------------------------------*\
  =========                 |
  \\      /  F ield         | OpenFOAM: The Open Source CFD Toolbox
   \\    /   O peration     | Website:  https://openfoam.org
    \\  /    A nd           | Version:  7
     \\/     M anipulation  |
\*---------------------------------------------------------------------------*/
FoamFile
{
    version     2.0;
    format      ascii;
    class       volScalarField;
    location    "0.25";
    object      p;
}
// * * * * * * * * * * * * * * * * * * * * * * * * * * * * * * * * * * * * * //

dimensions      [0 2 -2 0 0 0 0];

internalField   nonuniform List<scalar> 
10000
(
-7.13733e-09
-2.49829e-05
-7.1978e-05
-0.000127048
-0.000182501
-0.000237944
-0.000292137
-0.000343913
-0.000392251
-0.000436182
-0.0004749
-0.000507837
-0.000534632
-0.000555025
-0.000568808
-0.000575849
-0.000576088
-0.000569472
-0.000555961
-0.000535584
-0.000508441
-0.000474641
-0.00043426
-0.000387346
-0.000333963
-0.000274211
-0.000208199
-0.000136015
-5.7721e-05
2.66158e-05
0.0001169
0.000213025
0.000314899
0.000422456
0.000535616
0.000654265
0.00077825
0.00090742
0.00104164
0.00118076
0.00132464
0.00147309
0.00162588
0.00178279
0.00194354
0.00210789
0.00227557
0.0024463
0.00261978
0.00279566
0.00297355
0.00315305
0.00333377
0.00351527
0.00369714
0.00387892
0.00406012
0.00424019
0.00441858
0.00459473
0.00476808
0.00493807
0.00510416
0.00526579
0.00542237
0.00557335
0.00571816
0.00585626
0.00598714
0.00611034
0.00622545
0.00633209
0.00642994
0.00651869
0.00659811
0.00666798
0.00672817
0.00677859
0.00681925
0.00685022
0.00687164
0.00688373
0.00688679
0.00688121
0.00686746
0.00684608
0.0068177
0.00678305
0.00674296
0.00669839
0.0066504
0.00660024
0.00654931
0.00649925
0.00645191
0.0064094
0.00637409
0.00634859
0.00633572
0.00633561
-1.8113e-05
-4.14122e-05
-7.93372e-05
-0.000123832
-0.00017047
-0.000217549
-0.000263823
-0.000308192
-0.000349647
-0.000387338
-0.000420536
-0.000448659
-0.000471265
-0.000488022
-0.000498698
-0.000503147
-0.000501274
-0.000492986
-0.000478211
-0.000456948
-0.000429256
-0.000395187
-0.000354769
-0.00030805
-0.000255111
-0.000196039
-0.000130904
-5.97557e-05
1.73535e-05
0.000100349
0.000189126
0.000283578
0.000383628
0.000489219
0.000600275
0.000716673
0.000838252
0.000964855
0.00109635
0.0012326
0.00137344
0.0015187
0.00166814
0.00182153
0.00197859
0.00213909
0.00230276
0.00246934
0.00263851
0.00280994
0.00298324
0.00315801
0.00333387
0.00351042
0.00368725
0.00386391
0.00403993
0.00421478
0.00438791
0.0045588
0.00472691
0.00489172
0.00505271
0.00520935
0.00536109
0.00550739
0.00564771
0.00578155
0.00590844
0.00602795
0.0061397
0.00624335
0.0063386
0.00642519
0.00650288
0.00657152
0.00663097
0.00668118
0.00672216
0.006754
0.00677687
0.006791
0.0067967
0.00679436
0.00678444
0.00676749
0.00674412
0.00671504
0.00668107
0.0066431
0.00660217
0.00655941
0.00651612
0.00647374
0.00643387
0.00639824
0.00636866
0.00634698
0.00633556
0.00633548
-3.29727e-05
-5.21224e-05
-8.1998e-05
-0.000118884
-0.000158902
-0.000199957
-0.000240612
-0.000279638
-0.000316046
-0.000349055
-0.000378012
-0.000402374
-0.000421673
-0.000435529
-0.000443696
-0.000446028
-0.000442386
-0.000432642
-0.000416738
-0.000394673
-0.000366463
-0.000332103
-0.000291589
-0.000244966
-0.000192332
-0.000133769
-6.93126e-05
1.02088e-06
7.71824e-05
0.000159084
0.00024662
0.000339696
0.00043825
0.00054223
0.000651554
0.000766085
0.000885662
0.00101014
0.00113938
0.00127327
0.00141164
0.00155429
0.001701
0.00185151
0.00200558
0.00216298
0.00232345
0.00248672
0.00265247
0.00282037
0.00299004
0.00316109
0.00333315
0.00350583
0.00367874
0.00385144
0.00402344
0.00419424
0.00436331
0.00453013
0.0046942
0.00485502
0.00501209
0.00516489
0.00531291
0.00545561
0.00559249
0.00572307
0.00584689
0.00596357
0.00607275
0.00617412
0.00626738
0.0063523
0.00642867
0.00649633
0.00655519
0.00660518
0.00664635
0.0066788
0.00670271
0.00671831
0.00672593
0.00672594
0.00671882
0.00670509
0.00668536
0.00666032
0.00663073
0.00659747
0.0065615
0.00652387
0.00648575
0.00644841
0.00641325
0.00638172
0.00635527
0.00633539
0.00632406
0.00632266
-3.4183e-05
-5.26415e-05
-7.91318e-05
-0.000111466
-0.000147067
-0.000183949
-0.000220567
-0.000255713
-0.000288416
-0.000317889
-0.000343543
-0.000364887
-0.000381462
-0.000392913
-0.000399004
-0.000399551
-0.000394375
-0.000383343
-0.000366413
-0.000343588
-0.000314857
-0.000280175
-0.00023952
-0.000192945
-0.000140543
-8.23725e-05
-1.84409e-05
5.12365e-05
0.000126599
0.000207558
0.000294019
0.000385909
0.000483181
0.000585779
0.000693604
0.000806508
0.000924335
0.00104696
0.00117427
0.00130613
0.00144238
0.0015828
0.00172716
0.00187523
0.00202678
0.00218158
0.00233939
0.00249992
0.00266286
0.00282786
0.00299455
0.00316258
0.00333157
0.00350116
0.00367093
0.00384045
0.00400924
0.00417681
0.00434263
0.00450623
0.0046671
0.00482476
0.00497873
0.00512851
0.00527358
0.00541345
0.00554762
0.00567562
0.00579704
0.00591149
0.00601864
0.0061182
0.00620989
0.00629349
0.00636878
0.00643564
0.00649397
0.00654374
0.00658499
0.00661783
0.00664245
0.00665909
0.00666808
0.00666981
0.00666471
0.00665333
0.00663623
0.0066141
0.00658764
0.00655769
0.00652515
0.00649099
0.00645625
0.00642207
0.00638963
0.00636019
0.00633497
0.00631523
0.00630235
0.00629743
-2.1443e-05
-4.38883e-05
-7.05805e-05
-0.000101015
-0.000134123
-0.000168149
-0.000201734
-0.000233832
-0.000263545
-0.000290137
-0.00031304
-0.000331778
-0.000345945
-0.000355248
-0.000359459
-0.000358354
-0.000351741
-0.000339516
-0.000321641
-0.000298086
-0.000268804
-0.000233751
-0.000192929
-0.00014639
-9.41939e-05
-3.6358e-05
2.712e-05
9.6208e-05
0.000170831
0.000250903
0.000336356
0.000427139
0.000523211
0.000624509
0.000730914
0.000842276
0.000958452
0.00107934
0.00120483
0.0013348
0.00146906
0.0016074
0.00174959
0.00189541
0.00204465
0.0021971
0.0023525
0.00251056
0.00267097
0.00283338
0.00299744
0.0031628
0.0033291
0.00349597
0.003663
0.00382975
0.00399575
0.00416051
0.00432353
0.00448434
0.00464244
0.00479739
0.00494869
0.00509586
0.0052384
0.00537583
0.00550766
0.00563345
0.0057528
0.00586534
0.00597076
0.00606875
0.00615908
0.0062415
0.00631585
0.00638197
0.0064398
0.00648931
0.00653055
0.00656364
0.00658877
0.0066062
0.00661624
0.00661929
0.00661577
0.00660621
0.00659117
0.00657129
0.00654725
0.00651982
0.00648983
0.00645817
0.0064258
0.00639369
0.00636287
0.00633436
0.00630923
0.00628848
0.00627284
0.00626267
-4.53606e-07
-2.86874e-05
-5.76754e-05
-8.81655e-05
-0.000120326
-0.000152787
-0.000184386
-0.000214251
-0.000241652
-0.000265959
-0.000286613
-0.000303172
-0.000315314
-0.000322774
-0.000325302
-0.000322679
-0.000314755
-0.000301451
-0.000282714
-0.000258472
-0.000228649
-0.000193223
-0.000152226
-0.000105704
-5.36735e-05
3.87891e-06
6.69547e-05
0.000135502
0.000209435
0.000288685
0.000373208
0.000462974
0.000557936
0.000658012
0.000763076
0.000872989
0.000987631
0.00110691
0.00123073
0.00135895
0.00149137
0.00162779
0.00176799
0.00191178
0.00205895
0.00220929
0.00236255
0.00251842
0.0026766
0.00283674
0.00299852
0.00316158
0.00332557
0.00349012
0.00365481
0.00381921
0.00398284
0.00414523
0.00430588
0.00446434
0.00462013
0.00477279
0.00492186
0.00506685
0.00520728
0.00534267
0.00547255
0.00559649
0.00571411
0.00582506
0.00592901
0.00602569
0.00611485
0.00619628
0.00626978
0.00633525
0.00639259
0.00644181
0.00648295
0.00651616
0.00654161
0.00655957
0.00657035
0.00657435
0.00657199
0.00656376
0.00655022
0.00653196
0.00650965
0.006484
0.00645577
0.00642577
0.00639485
0.00636387
0.0063337
0.00630519
0.00627921
0.00625661
0.00623732
0.00622096
2.51981e-05
-9.6736e-06
-4.21912e-05
-7.39846e-05
-0.000106364
-0.000138323
-0.000168882
-0.000197335
-0.000223104
-0.000245665
-0.000264538
-0.000279357
-0.00028985
-0.000295756
-0.000296828
-0.00029288
-0.000283808
-0.000269545
-0.000250015
-0.000225121
-0.000194795
-0.000159036
-0.000117884
-7.1359e-05
-1.9448e-05
3.7872e-05
0.000100586
0.000168628
0.000241917
0.000320411
0.000404094
0.000492938
0.000586877
0.000685814
0.000789628
0.000898201
0.00101144
0.00112925
0.00125155
0.00137817
0.00150893
0.00164362
0.00178204
0.00192402
0.00206937
0.00221788
0.00236927
0.00252325
0.00267951
0.00283773
0.00299757
0.00315872
0.00332079
0.00348342
0.00364619
0.00380866
0.00397036
0.00413082
0.00428956
0.00444612
0.00460005
0.00475089
0.00489817
0.00504142
0.00518016
0.00531392
0.00544224
0.00556471
0.00568095
0.00579061
0.00589339
0.00598901
0.00607721
0.00615779
0.00623058
0.00629546
0.00635234
0.00640124
0.00644221
0.00647539
0.00650098
0.00651923
0.00653046
0.00653504
0.00653342
0.00652606
0.00651348
0.00649627
0.00647505
0.00645048
0.00642327
0.00639416
0.00636388
0.00633321
0.00630286
0.00627355
0.00624601
0.00622092
0.00619747
0.00617454
5.28512e-05
1.1005e-05
-2.56912e-05
-5.96292e-05
-9.3084e-05
-0.000125327
-0.000155588
-0.000183326
-0.000208067
-0.000229383
-0.000246924
-0.000260407
-0.000269571
-0.000274173
-0.000274009
-0.00026895
-0.000258913
-0.000243814
-0.000223555
-0.000198051
-0.000167273
-0.000131238
-8.99567e-05
-4.34145e-05
8.41356e-06
6.55343e-05
0.000127911
0.000195474
0.000268168
0.000345978
0.000428903
0.000516902
0.000609893
0.000707771
0.000810432
0.000917782
0.00102974
0.00114624
0.00126716
0.00139234
0.00152159
0.00165473
0.00179159
0.00193199
0.00207578
0.0022227
0.0023725
0.00252488
0.00267954
0.00283616
0.00299443
0.00315402
0.00331456
0.00347566
0.00363691
0.00379786
0.00395804
0.004117
0.00427426
0.00442937
0.00458188
0.00473132
0.00487725
0.00501919
0.00515665
0.00528918
0.00541633
0.00553769
0.00565288
0.00576157
0.00586344
0.00595822
0.00604567
0.00612557
0.00619775
0.0062621
0.00631856
0.00636711
0.00640784
0.00644088
0.00646643
0.00648474
0.00649615
0.006501
0.00649973
0.00649281
0.00648072
0.00646403
0.00644332
0.00641923
0.00639241
0.00636351
0.0063332
0.00630216
0.00627099
0.00624027
0.00621064
0.00618265
0.00615478
0.0061253
8.03396e-05
3.16072e-05
-9.55495e-06
-4.61943e-05
-8.13362e-05
-0.000114467
-0.00014501
-0.000172567
-0.000196765
-0.000217304
-0.000233941
-0.000246434
-0.000254546
-0.000258081
-0.000256908
-0.000250944
-0.000240101
-0.000224274
-0.000203365
-0.000177329
-0.000146172
-0.000109906
-6.85061e-05
-2.19353e-05
2.98233e-05
8.67514e-05
0.0001488
0.000215914
0.000288067
0.000365266
0.000447503
0.000534721
0.000626827
0.000723726
0.000825336
0.000931585
0.0010424
0.00115771
0.00127739
0.00140128
0.0015292
0.00166099
0.00179649
0.00193556
0.002078
0.0022236
0.00237208
0.00252315
0.0026765
0.00283186
0.00298889
0.00314728
0.00330665
0.0034666
0.00362671
0.00378653
0.0039456
0.00410347
0.00425968
0.00441376
0.00456528
0.00471377
0.00485876
0.00499979
0.00513639
0.00526808
0.00539442
0.00551502
0.00562949
0.00573749
0.00583871
0.00593289
0.00601977
0.00609914
0.00617083
0.00623473
0.00629077
0.00633897
0.0063794
0.00641219
0.00643754
0.00645572
0.00646705
0.00647188
0.00647062
0.00646374
0.00645171
0.00643508
0.00641439
0.00639024
0.00636324
0.006334
0.0063031
0.00627114
0.00623863
0.00620606
0.00617397
0.00614284
0.00611052
0.00607472
0.000105985
5.06153e-05
4.93368e-06
-3.46876e-05
-7.19504e-05
-0.000106444
-0.000137698
-0.000165479
-0.000189555
-0.000209726
-0.000225806
-0.000237594
-0.000244908
-0.000247629
-0.000245681
-0.000238991
-0.000227466
-0.000211005
-0.000189549
-0.000163086
-0.000131629
-9.51652e-05
-5.36511e-05
-7.05046e-06
4.46312e-05
0.000101357
0.000163083
0.00022978
0.000301449
0.000378099
0.000459706
0.000546198
0.000637484
0.000733487
0.00083415
0.000939418
0.00104922
0.00116347
0.00128205
0.0014048
0.00153156
0.00166219
0.00179656
0.00193451
0.00207587
0.00222039
0.00236781
0.00251785
0.00267021
0.00282461
0.00298075
0.00313828
0.00329683
0.00345599
0.00361533
0.00377441
0.00393278
0.00408997
0.00424553
0.00439901
0.00454995
0.0046979
0.00484238
0.00498292
0.00511903
0.00525026
0.00537617
0.00549634
0.0056104
0.005718
0.00581884
0.00591263
0.00599913
0.00607812
0.00614943
0.00621294
0.00626861
0.00631644
0.00635651
0.00638895
0.00641397
0.00643183
0.00644285
0.00644739
0.00644584
0.00643864
0.00642629
0.00640929
0.00638819
0.00636352
0.00633587
0.00630579
0.00627384
0.00624052
0.00620628
0.00617153
0.00613676
0.00610237
0.00606569
0.00602397
0.000128496
6.6765e-05
1.66169e-05
-2.61101e-05
-6.57432e-05
-0.000101904
-0.000134195
-0.000162548
-0.000186859
-0.000206981
-0.000222769
-0.000234094
-0.000240863
-0.000243017
-0.000240499
-0.000233234
-0.000221136
-0.000204149
-0.000182263
-0.000155478
-0.000123786
-8.7153e-05
-4.55374e-05
1.07533e-06
5.26566e-05
0.000109167
0.000170582
0.000236902
0.000308136
0.000384285
0.000465307
0.000551123
0.000641656
0.000736852
0.000836675
0.000941077
0.00104999
0.00116331
0.00128092
0.00140269
0.00152847
0.00165815
0.0017916
0.00192867
0.00206917
0.00221286
0.00235949
0.00250877
0.00266044
0.00281421
0.00296977
0.00312678
0.00328485
0.00344358
0.00360252
0.00376124
0.00391928
0.00407619
0.00423152
0.00438481
0.0045356
0.00468342
0.0048278
0.00496824
0.00510426
0.00523541
0.00536123
0.00548131
0.00559528
0.00570277
0.00580347
0.0058971
0.00598339
0.00606214
0.00613318
0.00619639
0.00625172
0.00629917
0.00633883
0.00637084
0.00639541
0.00641278
0.00642329
0.00642727
0.00642515
0.00641733
0.00640431
0.00638658
0.00636465
0.00633906
0.00631035
0.00627904
0.00624564
0.0062106
0.00617434
0.00613718
0.00609959
0.00606193
0.00602108
0.00597388
0.000146828
7.90193e-05
2.4493e-05
-2.13736e-05
-6.34679e-05
-0.00010148
-0.000135073
-0.000164284
-0.00018909
-0.000209395
-0.000225116
-0.000236216
-0.000242676
-0.000244468
-0.000241539
-0.000233824
-0.000221279
-0.000203898
-0.000181698
-0.000154673
-0.000122793
-8.60211e-05
-4.4335e-05
2.25267e-06
5.37024e-05
0.000109988
0.000171114
0.000237093
0.000307931
0.000383613
0.000464084
0.000549275
0.000639127
0.000733608
0.000832696
0.000936345
0.00104448
0.001157
0.00127379
0.00139474
0.00151973
0.00164865
0.00178139
0.0019178
0.00205768
0.00220079
0.00234689
0.0024957
0.00264697
0.00280041
0.00295572
0.00311254
0.00327047
0.00342911
0.00358801
0.00374674
0.00390485
0.00406188
0.00421739
0.00437089
0.00452194
0.00467004
0.00481471
0.00495545
0.00509178
0.00522321
0.0053493
0.00546962
0.00558379
0.00569145
0.00579227
0.00588594
0.00597222
0.00605089
0.00612177
0.00618475
0.00623977
0.00628686
0.00632607
0.00635757
0.00638156
0.0063983
0.0064081
0.00641131
0.00640835
0.00639963
0.00638562
0.00636682
0.00634372
0.00631686
0.00628673
0.00625384
0.00621867
0.00618164
0.00614313
0.0061034
0.00606293
0.00602205
0.00597727
0.00592506
0.000160075
8.65117e-05
2.77406e-05
-2.12356e-05
-6.58258e-05
-0.000105819
-0.000140908
-0.000171167
-0.000196639
-0.000217309
-0.000233179
-0.000244279
-0.000250631
-0.000252215
-0.000248997
-0.000240958
-0.000228106
-0.000210466
-0.000188053
-0.00016085
-0.000128823
-9.19526e-05
-5.02443e-05
-3.72855e-06
4.75616e-05
0.000103624
0.000164482
0.000230149
0.000300618
0.000375855
0.00045581
0.000540428
0.000629673
0.000723533
0.000821989
0.000924991
0.00103246
0.0011443
0.00126041
0.00138071
0.0015051
0.00163347
0.00176572
0.00190168
0.00204117
0.00218395
0.00232978
0.0024784
0.00262956
0.00278299
0.00293835
0.0030953
0.00325343
0.00341233
0.00357155
0.00373066
0.00388921
0.00404676
0.00420284
0.00435698
0.00450869
0.00465748
0.00480284
0.00494428
0.00508128
0.00521336
0.00534007
0.00546097
0.00557565
0.00568375
0.00578492
0.00587887
0.00596532
0.00604405
0.00611489
0.00617772
0.00623249
0.00627921
0.00631795
0.00634887
0.00637218
0.00638814
0.00639705
0.00639929
0.00639525
0.00638536
0.00637008
0.00634991
0.00632533
0.00629687
0.00626502
0.00623026
0.00619305
0.00615381
0.00611287
0.00607048
0.00602711
0.00598311
0.00593465
0.00587792
0.000167464
8.85021e-05
2.56712e-05
-2.63703e-05
-7.34906e-05
-0.000115539
-0.000152219
-0.000183637
-0.000209908
-0.000231113
-0.000247326
-0.00025861
-0.000264996
-0.000266493
-0.000263109
-0.000254883
-0.000241863
-0.000224076
-0.000201528
-0.000174198
-0.000142073
-0.000105162
-6.34906e-05
-1.70915e-05
3.40224e-05
8.98694e-05
0.000150477
0.000215849
0.000285959
0.000360772
0.000440246
0.000524349
0.000613065
0.000706392
0.000804312
0.000906769
0.00101368
0.00112497
0.00124056
0.00136038
0.00148434
0.00161237
0.00174433
0.00188007
0.0020194
0.0021621
0.00230792
0.00245663
0.00260798
0.00276168
0.00291741
0.00307481
0.00323346
0.00339296
0.00355285
0.00371272
0.00387211
0.00403056
0.00418762
0.00434279
0.00449557
0.00464545
0.00479191
0.00493442
0.00507248
0.00520558
0.00533326
0.00545505
0.00557055
0.00567937
0.00578116
0.0058756
0.00596241
0.00604137
0.00611229
0.00617506
0.00622961
0.00627598
0.00631423
0.00634451
0.00636704
0.00638208
0.00638995
0.00639101
0.00638567
0.00637437
0.00635756
0.00633573
0.0063094
0.00627906
0.0062452
0.00620832
0.00616886
0.00612722
0.00608371
0.0060386
0.00599236
0.00594534
0.00589346
0.00583266
0.000168338
8.43315e-05
1.76362e-05
-3.74199e-05
-8.70684e-05
-0.000131172
-0.000169471
-0.000202128
-0.000229327
-0.000251222
-0.000267927
-0.000279515
-0.00028604
-0.000287562
-0.000284148
-0.000275876
-0.000262802
-0.000244953
-0.00022233
-0.00019493
-0.000162771
-0.000125887
-8.43118e-05
-3.80623e-05
1.28691e-05
6.85082e-05
0.000128873
0.000193951
0.000263709
0.000338115
0.000417149
0.000500797
0.000589061
0.000681941
0.000779413
0.00088142
0.000987888
0.00109876
0.00121397
0.00133348
0.00145722
0.00158509
0.00171698
0.00185271
0.00199212
0.00213497
0.00228105
0.00243012
0.00258194
0.00273622
0.00289262
0.00305078
0.00321029
0.00337073
0.00353166
0.00369265
0.00385325
0.00401302
0.00417145
0.00432806
0.00448232
0.00463369
0.00478163
0.00492562
0.00506511
0.0051996
0.00532859
0.00545161
0.00556823
0.00567806
0.00578071
0.00587587
0.00596323
0.00604258
0.00611371
0.00617651
0.00623091
0.00627694
0.00631467
0.00634426
0.00636592
0.00637992
0.00638659
0.0063863
0.00637945
0.0063665
0.00634791
0.00632418
0.00629582
0.00626335
0.00622725
0.00618802
0.0061461
0.0061019
0.00605574
0.00600787
0.00595879
0.00590888
0.00585383
0.00578939
0.000162128
7.33896e-05
3.0243e-06
-5.49468e-05
-0.000107062
-0.000153187
-0.000193118
-0.000227092
-0.000255336
-0.000278031
-0.000295315
-0.000307287
-0.000314051
-0.000315722
-0.000312413
-0.00030421
-0.00029117
-0.000273322
-0.000250683
-0.000223282
-0.000191165
-0.000154379
-0.000112946
-6.68661e-05
-1.61203e-05
3.93096e-05
9.94253e-05
0.000164203
0.000233611
0.000307633
0.00038627
0.000469527
0.000557412
0.000649921
0.000747026
0.000848675
0.00095481
0.00106539
0.00118039
0.00129977
0.00142346
0.00155138
0.00168338
0.00181932
0.00195902
0.00210228
0.00224888
0.00239859
0.00255116
0.00270631
0.00286369
0.00302293
0.00318362
0.00334534
0.00350767
0.00367016
0.00383238
0.00399384
0.00415406
0.00431251
0.00446865
0.00462191
0.00477174
0.00491758
0.00505889
0.00519513
0.00532579
0.00545037
0.00556843
0.00567955
0.00578333
0.00587944
0.00596756
0.00604746
0.00611893
0.00618186
0.00623617
0.00628188
0.00631908
0.00634793
0.00636864
0.00638149
0.0063868
0.00638498
0.00637642
0.0063616
0.006341
0.00631513
0.00628451
0.00624966
0.00621109
0.00616931
0.00612476
0.00607787
0.00602896
0.00597831
0.00592643
0.00587375
0.00581577
0.00574808
0.000148343
5.5147e-05
-1.86807e-05
-7.94157e-05
-0.000133913
-0.000182038
-0.00022363
-0.00025898
-0.000288338
-0.000311889
-0.000329802
-0.000342237
-0.000349351
-0.000351296
-0.0003482
-0.00034015
-0.000327207
-0.000309419
-0.000286835
-0.000259515
-0.000227519
-0.000190887
-0.000149628
-0.000103729
-5.31788e-05
2.0271e-06
6.18762e-05
0.000126342
0.000195406
0.000269072
0.00034736
0.000430285
0.000517854
0.00061006
0.000706874
0.000808257
0.000914174
0.00102461
0.00113955
0.00125896
0.00138279
0.00151093
0.00164325
0.00177961
0.00191983
0.00206374
0.00221111
0.00236173
0.00251534
0.00267164
0.0028303
0.00299094
0.00315314
0.0033165
0.00348058
0.00364496
0.00380917
0.00397274
0.00413515
0.00429585
0.00445426
0.00460982
0.00476194
0.00491003
0.00505354
0.0051919
0.00532459
0.00545108
0.0055709
0.0056836
0.00578878
0.00588608
0.00597517
0.0060558
0.00612776
0.00619092
0.00624521
0.00629064
0.0063273
0.00635536
0.00637503
0.00638661
0.00639044
0.00638691
0.00637645
0.00635956
0.00633672
0.00630847
0.00627535
0.0062379
0.00619665
0.00615212
0.00610478
0.00605507
0.00600334
0.00594988
0.00589525
0.00583991
0.00577921
0.00570861
0.000126599
2.91942e-05
-4.79e-05
-0.000111254
-0.000168064
-0.000218186
-0.000261455
-0.000298197
-0.000328682
-0.000353116
-0.000371717
-0.000384705
-0.000392276
-0.000394594
-0.000391785
-0.000383946
-0.000371158
-0.0003535
-0.000331055
-0.000303899
-0.00027209
-0.000235653
-0.000194589
-0.000148888
-9.85544e-05
-4.35991e-05
1.59594e-05
8.01042e-05
0.000148835
0.000222177
0.000300161
0.000382806
0.000470113
0.000562074
0.00065867
0.000759881
0.000865697
0.000976122
0.00109115
0.00121077
0.00133489
0.00146343
0.00159626
0.00173324
0.00187421
0.002019
0.00216741
0.0023192
0.00247412
0.00263187
0.00279211
0.00295445
0.0031185
0.00328385
0.00345006
0.00361671
0.00378332
0.00394939
0.00411439
0.00427775
0.00443885
0.00459711
0.00475192
0.00490266
0.00504876
0.00518963
0.00532471
0.00545345
0.00557536
0.00568997
0.00579683
0.00589558
0.00598586
0.00606741
0.00614
0.0062035
0.00625784
0.00630303
0.00633916
0.00636639
0.00638496
0.00639516
0.00639736
0.00639196
0.00637942
0.00636023
0.00633494
0.00630409
0.00626825
0.00622798
0.00618384
0.00613637
0.00608608
0.00603343
0.0059788
0.0059225
0.00586515
0.00580724
0.00574401
0.0056708
9.65858e-05
-4.812e-06
-8.50233e-05
-0.000150896
-0.000209957
-0.000262051
-0.00030698
-0.000345088
-0.00037669
-0.000402044
-0.000421411
-0.000435043
-0.000443151
-0.0004459
-0.000443427
-0.000435852
-0.000423287
-0.000405843
-0.000383623
-0.000356702
-0.000325125
-0.000288912
-0.000248065
-0.000202591
-0.00015251
-9.78398e-05
-3.85951e-05
2.52246e-05
9.36401e-05
0.000166689
0.000244408
0.000326811
0.000413899
0.000505669
0.000602119
0.000703253
0.000809086
0.000919633
0.0010349
0.00115486
0.00127944
0.00140855
0.00154207
0.00167988
0.00182182
0.00196773
0.00211741
0.00227063
0.00242713
0.00258661
0.00274873
0.0029131
0.00307934
0.00324702
0.00341574
0.00358504
0.00375445
0.00392344
0.00409144
0.00425785
0.00442206
0.00458343
0.00474134
0.00489515
0.00504424
0.00518801
0.00532586
0.00545723
0.00558158
0.0056984
0.00580725
0.0059077
0.00599941
0.00608208
0.00615547
0.00621944
0.00627392
0.00631892
0.00635452
0.00638089
0.00639829
0.00640701
0.00640744
0.00640001
0.0063852
0.00636353
0.00633557
0.00630189
0.0062631
0.00621978
0.00617254
0.00612195
0.00606855
0.00601283
0.00595522
0.00589605
0.00583599
0.00577558
0.00570998
0.0056344
5.79863e-05
-4.72215e-05
-0.000130439
-0.000198754
-0.000259987
-0.000313983
-0.000360523
-0.000399974
-0.000432707
-0.000459033
-0.000479237
-0.000493575
-0.000502263
-0.00050548
-0.000503387
-0.000496138
-0.000483878
-0.000466735
-0.000444812
-0.000418176
-0.000386864
-0.000350901
-0.000310306
-0.000265102
-0.000215317
-0.000160968
-0.000102055
-3.85585e-05
2.95591e-05
0.000102341
0.000179819
0.000262008
0.000348912
0.000440542
0.000536919
0.000638072
0.000744032
0.000854826
0.000970459
0.0010909
0.00121609
0.00134593
0.00148032
0.00161914
0.00176226
0.00190951
0.00206071
0.00221561
0.00237396
0.00253545
0.00269974
0.00286646
0.00303522
0.00320561
0.00337721
0.00354956
0.00372216
0.00389446
0.00406588
0.00423577
0.0044035
0.00456841
0.00472984
0.00488713
0.00503963
0.00518671
0.00532774
0.00546211
0.00558925
0.00570864
0.00581978
0.00592224
0.00601562
0.00609962
0.006174
0.00623858
0.00629329
0.00633815
0.00637324
0.00639874
0.0064149
0.00642205
0.00642059
0.00641097
0.0063937
0.00636935
0.00633849
0.00630176
0.00625979
0.00621321
0.00616266
0.00610875
0.00605206
0.00599315
0.00593245
0.00587036
0.00580758
0.00574472
0.00567684
0.0055991
1.04574e-05
-9.83823e-05
-0.000184494
-0.000255165
-0.000318474
-0.000374284
-0.000422391
-0.000463192
-0.000497095
-0.000524439
-0.000545516
-0.000560585
-0.000569876
-0.000573597
-0.000571943
-0.000565099
-0.000553226
-0.000536455
-0.000514879
-0.000488561
-0.000457546
-0.000421873
-0.000381577
-0.000336695
-0.000287253
-0.000233257
-0.000174688
-0.000111509
-4.36778e-05
2.88484e-05
0.000106099
0.00018809
0.000274841
0.000366381
0.000462758
0.000564018
0.000670208
0.000781358
0.000897473
0.00101852
0.00114445
0.00127516
0.00141058
0.00155061
0.00169511
0.00184392
0.00199686
0.00215369
0.00231414
0.00247791
0.00264467
0.00281406
0.00298568
0.00315915
0.00333401
0.0035098
0.00368599
0.00386202
0.00403726
0.00421106
0.00438274
0.00455162
0.004717
0.00487821
0.00503456
0.00518538
0.00533
0.00546778
0.00559811
0.00572042
0.00583419
0.00593895
0.00603428
0.00611985
0.00619539
0.00626074
0.00631581
0.0063606
0.00639521
0.00641982
0.00643469
0.00644018
0.00643669
0.00642473
0.00640482
0.00637758
0.00634362
0.0063036
0.00625821
0.00620813
0.00615405
0.00609662
0.00603647
0.0059742
0.0059103
0.00584521
0.00577968
0.00571438
0.00564432
0.00556456
-4.6313e-05
-0.000158597
-0.000247463
-0.000320392
-0.000385696
-0.000443263
-0.000492923
-0.000535097
-0.000570199
-0.000598576
-0.000620531
-0.000636339
-0.000646261
-0.000650538
-0.000649396
-0.000643034
-0.000631614
-0.000615262
-0.000594067
-0.000568102
-0.000537426
-0.000502095
-0.000462159
-0.000417654
-0.000368598
-0.000314978
-0.000256761
-0.000193902
-0.000126357
-5.40894e-05
2.29327e-05
0.000104737
0.000191362
0.000282862
0.000379304
0.000480753
0.000587261
0.000698859
0.000815552
0.000937315
0.0010641
0.00119583
0.00133244
0.00147384
0.0016199
0.00177048
0.00192537
0.00208435
0.00224715
0.00241348
0.00258301
0.00275538
0.00293022
0.00310711
0.00328561
0.00346523
0.00364542
0.00382559
0.00400508
0.00418322
0.00435929
0.00453259
0.00470239
0.00486797
0.00502862
0.00518362
0.00533227
0.00547389
0.00560781
0.00573344
0.00585019
0.00595758
0.00605515
0.00614254
0.00621947
0.00628576
0.00634132
0.00638613
0.00642029
0.00644401
0.00645755
0.00646128
0.00645566
0.00644119
0.00641847
0.00638812
0.00635082
0.00630728
0.00625824
0.00620442
0.00614657
0.0060854
0.00602159
0.00595579
0.00588855
0.00582035
0.00575201
0.00568425
0.00561204
0.00553037
-0.000112568
-0.000228119
-0.000319595
-0.000394691
-0.000461948
-0.000521259
-0.000572471
-0.000616017
-0.000652315
-0.000681714
-0.000704543
-0.000721111
-0.00073171
-0.00073661
-0.00073605
-0.000730229
-0.000719306
-0.000703404
-0.000682624
-0.000657055
-0.000626775
-0.000591853
-0.00055234
-0.000508264
-0.000459627
-0.000406403
-0.00034855
-0.000286024
-0.000218784
-0.000146791
-7.00056e-05
1.16182e-05
9.81432e-05
0.000189647
0.000286213
0.000387915
0.00049481
0.000606929
0.00072428
0.000846846
0.000974591
0.00110746
0.00124541
0.00138833
0.00153613
0.00168866
0.00184571
0.00200706
0.00217245
0.00234159
0.00251417
0.00268985
0.00286824
0.00304892
0.00323144
0.00341528
0.00359988
0.0037846
0.00396877
0.00415169
0.00433261
0.00451078
0.00468547
0.00485591
0.00502134
0.00518101
0.00533415
0.00548006
0.00561801
0.00574736
0.00586749
0.00597785
0.00607798
0.00616747
0.00624604
0.00631347
0.00636965
0.00641458
0.00644837
0.00647119
0.00648337
0.00648527
0.00647739
0.00646027
0.00643453
0.00640086
0.00635999
0.00631269
0.00625973
0.00620191
0.00614004
0.0060749
0.00600721
0.00593769
0.00586693
0.0057955
0.00572425
0.00565397
0.0055796
0.00549607
-0.000188502
-0.000307183
-0.000401162
-0.000478362
-0.00054755
-0.000608599
-0.000661343
-0.000706233
-0.000743699
-0.000774111
-0.00079783
-0.0008152
-0.000826537
-0.000832122
-0.000832193
-0.000826949
-0.000816549
-0.00080113
-0.000780811
-0.000755698
-0.000725884
-0.000691439
-0.000652407
-0.000608804
-0.000560616
-0.000507811
-0.000450348
-0.000388185
-0.000321281
-0.00024959
-0.000173057
-9.16096e-05
-5.16326e-06
8.63788e-05
0.000183111
0.000285112
0.000392441
0.000505132
0.000623202
0.000746647
0.000875446
0.00100957
0.00114896
0.00129356
0.00144325
0.00159788
0.00175727
0.00192119
0.0020894
0.00226162
0.00243754
0.00261683
0.0027991
0.00298393
0.00317084
0.00335929
0.00354869
0.00373839
0.00392769
0.00411583
0.00430207
0.00448561
0.00466568
0.00484148
0.0050122
0.00517703
0.00533517
0.00548585
0.0056283
0.00576181
0.00588572
0.00599945
0.00610249
0.0061944
0.00627486
0.00634365
0.00640064
0.00644582
0.00647929
0.00650126
0.00651203
0.00651203
0.00650177
0.00648184
0.0064529
0.00641569
0.006371
0.00631966
0.00626252
0.00620044
0.00613428
0.00606489
0.00599308
0.0059196
0.00584514
0.0057703
0.00569601
0.00562312
0.00554653
0.00546112
-0.000274311
-0.000396036
-0.000492459
-0.00057172
-0.000642802
-0.000705553
-0.000759792
-0.00080599
-0.000844608
-0.000876046
-0.000900696
-0.000918921
-0.000931047
-0.000937356
-0.000938086
-0.000933441
-0.000923596
-0.000908708
-0.000888913
-0.000864329
-0.000835052
-0.000801148
-0.000762647
-0.000719553
-0.000671848
-0.000619499
-0.000562468
-0.000500716
-0.000434193
-0.000362839
-0.000286574
-0.000205305
-0.000118925
-2.73262e-05
6.9593e-05
0.000171915
0.000279701
0.000392996
0.000511827
0.000636207
0.000766135
0.000901593
0.00104254
0.00118892
0.00134062
0.00149751
0.0016594
0.00182609
0.00199733
0.00217287
0.0023524
0.00253561
0.00272209
0.00291141
0.00310307
0.00329652
0.00349113
0.00368623
0.00388109
0.00407493
0.00426697
0.00445639
0.00464236
0.00482405
0.00500059
0.00517112
0.00533479
0.00549075
0.0056382
0.00577636
0.00590451
0.00602203
0.00612835
0.00622302
0.00630568
0.00637608
0.00643407
0.00647965
0.0065129
0.00653404
0.00654341
0.00654144
0.00652869
0.00650578
0.00647344
0.00643247
0.00638371
0.00632806
0.00626644
0.0061998
0.00612905
0.00605513
0.00597891
0.00590122
0.00582281
0.00574435
0.00566684
0.00559119
0.00551228
0.00542495
-0.000370222
-0.000494933
-0.000593762
-0.000675034
-0.00074795
-0.000812351
-0.000868049
-0.000915542
-0.000955326
-0.000987828
-0.00101345
-0.00103257
-0.00104552
-0.00105257
-0.00105398
-0.00104996
-0.00104072
-0.00102642
-0.00100723
-0.000983248
-0.000954575
-0.000921265
-0.000883339
-0.000840797
-0.00079362
-0.000741781
-0.000685245
-0.000623963
-0.000557873
-0.000486893
-0.00041092
-0.000329839
-0.00024353
-0.000151876
-5.47737e-05
4.78649e-05
0.00015611
0.000270017
0.000389631
0.000514985