/*--------------------------------*- C++ -*----------------------------------*\
  =========                 |
  \\      /  F ield         | OpenFOAM: The Open Source CFD Toolbox
   \\    /   O peration     | Website:  https://openfoam.org
    \\  /    A nd           | Version:  7
     \\/     M anipulation  |
\*---------------------------------------------------------------------------*/
FoamFile
{
    version     2.0;
    format      ascii;
    class       surfaceScalarField;
    location    "0.25";
    object      phi;
}
// * * * * * * * * * * * * * * * * * * * * * * * * * * * * * * * * * * * * * //

dimensions      [0 3 -1 0 0 0 0];

internalField   nonuniform List<scalar> 
19800
(
6.15173e-11
-6.14801e-11
1.6171e-10
-1.00204e-10
2.0762e-10
-4.59072e-11
1.83056e-10
2.45783e-11
7.71015e-11
1.05959e-10
-1.10325e-10
1.87418e-10
-3.74985e-10
2.64667e-10
-7.10948e-10
3.35957e-10
-1.11131e-09
4.00371e-10
-1.56899e-09
4.5767e-10
-2.07701e-09
5.08028e-10
-2.62871e-09
5.51705e-10
-3.21793e-09
5.89211e-10
-3.83899e-09
6.21064e-10
-4.48665e-09
6.47654e-10
-5.15608e-09
6.69424e-10
-5.84297e-09
6.86894e-10
-6.54346e-09
7.0049e-10
-7.25401e-09
7.1055e-10
-7.97142e-09
7.17413e-10
-8.69287e-09
7.21445e-10
-9.41587e-09
7.2299e-10
-1.01382e-08
7.22281e-10
-1.08576e-08
7.1949e-10
-1.15725e-08
7.14796e-10
-1.22808e-08
7.08377e-10
-1.29812e-08
7.00391e-10
-1.36722e-08
6.90954e-10
-1.43523e-08
6.80127e-10
-1.50202e-08
6.67932e-10
-1.56746e-08
6.54407e-10
-1.63142e-08
6.39617e-10
-1.69378e-08
6.23597e-10
-1.75442e-08
6.06317e-10
-1.81319e-08
5.87726e-10
-1.86997e-08
5.67802e-10
-1.92462e-08
5.46548e-10
-1.97702e-08
5.23954e-10
-2.02702e-08
4.99976e-10
-2.07447e-08
4.74568e-10
-2.11924e-08
4.47695e-10
-2.16118e-08
4.19327e-10
-2.20012e-08
3.8944e-10
-2.23592e-08
3.58019e-10
-2.26843e-08
3.25063e-10
-2.29749e-08
2.90578e-10
-2.32294e-08
2.54565e-10
-2.34465e-08
2.17035e-10
-2.36245e-08
1.78012e-10
-2.3762e-08
1.37539e-10
-2.38577e-08
9.56849e-11
-2.39102e-08
5.25347e-11
-2.39184e-08
8.186e-12
-2.38812e-08
-3.72575e-11
-2.37975e-08
-8.3682e-11
-2.36665e-08
-1.30952e-10
-2.34876e-08
-1.78904e-10
-2.32603e-08
-2.27349e-10
-2.29842e-08
-2.76082e-10
-2.26593e-08
-3.24882e-10
-2.22858e-08
-3.73518e-10
-2.1864e-08
-4.21745e-10
-2.13947e-08
-4.69307e-10
-2.08788e-08
-5.15931e-10
-2.03175e-08
-5.61328e-10
-1.97123e-08
-6.0519e-10
-1.90651e-08
-6.47203e-10
-1.8378e-08
-6.87047e-10
-1.76536e-08
-7.24406e-10
-1.68946e-08
-7.58969e-10
-1.61042e-08
-7.90429e-10
-1.52857e-08
-8.18486e-10
-1.44429e-08
-8.42849e-10
-1.35796e-08
-8.63235e-10
-1.27003e-08
-8.79371e-10
-1.18093e-08
-8.90994e-10
-1.09114e-08
-8.97864e-10
-1.00116e-08
-8.99767e-10
-9.11512e-09
-8.96515e-10
-8.22718e-09
-8.87938e-10
-7.35328e-09
-8.73892e-10
-6.49902e-09
-8.54261e-10
-5.67006e-09
-8.28961e-10
-4.87213e-09
-7.97938e-10
-4.11097e-09
-7.61162e-10
-3.39234e-09
-7.18629e-10
-2.72197e-09
-6.70371e-10
-2.1055e-09
-6.16464e-10
-1.54847e-09
-5.57035e-10
-1.0562e-09
-4.92272e-10
-6.33739e-10
-4.22461e-10
-2.85679e-10
-3.48059e-10
-1.5885e-11
-2.69791e-10
1.72955e-10
-1.88838e-10
2.80041e-10
-1.07089e-10
3.07906e-10
-2.78707e-11
2.64854e-10
4.30511e-11
1.69501e-10
9.53655e-11
5.9433e-11
1.10102e-10
5.94651e-11
6.98007e-11
-1.31291e-10
1.40153e-10
-1.70529e-10
1.05114e-10
-1.08949e-11
-9.84502e-11
2.28139e-10
-4.93949e-10
5.0145e-10
-1.08812e-09
7.81589e-10
-1.8768e-09
1.05333e-09
-2.84907e-09
1.30823e-09
-3.99061e-09
1.5419e-09
-5.28544e-09
1.75249e-09
-6.71694e-09
1.93953e-09
-8.26874e-09
2.1035e-09
-9.92505e-09
2.24552e-09
-1.16709e-08
2.36691e-09
-1.34923e-08
2.46906e-09
-1.53764e-08
2.55349e-09
-1.73112e-08
2.62175e-09
-1.9286e-08
2.67528e-09
-2.12909e-08
2.71542e-09
-2.33169e-08
2.74343e-09
-2.5356e-08
2.76049e-09
-2.74007e-08
2.76772e-09
-2.94444e-08
2.76603e-09
-3.14811e-08
2.75619e-09
-3.35052e-08
2.73889e-09
-3.55116e-08
2.71478e-09
-3.74956e-08
2.68438e-09
-3.94528e-08
2.6481e-09
-4.13789e-08
2.60624e-09
-4.327e-08
2.55903e-09
-4.51222e-08
2.50664e-09
-4.69318e-08
2.4492e-09
-4.8695e-08
2.3868e-09
-5.04081e-08
2.31943e-09
-5.20674e-08
2.24704e-09
-5.36692e-08
2.16956e-09
-5.52096e-08
2.08696e-09
-5.66848e-08
1.99913e-09
-5.80908e-08
1.90599e-09
-5.94237e-08
1.80742e-09
-6.06793e-08
1.70331e-09
-6.18535e-08
1.59358e-09
-6.29422e-08
1.47815e-09
-6.39412e-08
1.35697e-09
-6.48462e-08
1.23003e-09
-6.56529e-08
1.09735e-09
-6.63573e-08
9.58952e-10
-6.69552e-08
8.14938e-10
-6.74426e-08
6.65433e-10
-6.78157e-08
5.10618e-10
-6.80708e-08
3.50737e-10
-6.82043e-08
1.86093e-10
-6.82132e-08
1.70447e-11
-6.80945e-08
-1.55992e-10
-6.78456e-08
-3.32541e-10
-6.74645e-08
-5.1206e-10
-6.69495e-08
-6.9393e-10
-6.62994e-08
-8.77463e-10
-6.55135e-08
-1.06191e-09
-6.45919e-08
-1.24646e-09
-6.35352e-08
-1.43025e-09
-6.23446e-08
-1.61235e-09
-6.10221e-08
-1.79178e-09
-5.95705e-08
-1.9675e-09
-5.79934e-08
-2.13845e-09
-5.62951e-08
-2.30351e-09
-5.44807e-08
-2.46152e-09
-5.25564e-08
-2.61134e-09
-5.05291e-08
-2.75179e-09
-4.84063e-08
-2.88172e-09
-4.61968e-08
-2.99997e-09
-4.39098e-08
-3.10543e-09
-4.15557e-08
-3.19699e-09
-3.91453e-08
-3.2736e-09
-3.66904e-08
-3.33427e-09
-3.42034e-08
-3.37804e-09
-3.16972e-08
-3.40403e-09
-2.91855e-08
-3.41145e-09
-2.66824e-08
-3.3996e-09
-2.42025e-08
-3.36787e-09
-2.17606e-08
-3.31574e-09
-1.93721e-08
-3.2428e-09
-1.70523e-08
-3.14876e-09
-1.48168e-08
-3.03346e-09
-1.26811e-08
-2.89684e-09
-1.06607e-08
-2.739e-09
-8.77093e-09
-2.56018e-09
-7.02654e-09
-2.36085e-09
-5.44185e-09
-2.14172e-09
-4.0303e-09
-1.90382e-09
-2.80409e-09
-1.64867e-09
-1.77365e-09
-1.37849e-09
-9.46844e-10
-1.0966e-09
-3.27722e-10
-8.07958e-10
8.53704e-11
-5.20175e-10
3.02614e-10
-2.45111e-10
3.4704e-10
-1.39726e-12
2.60261e-10
1.82082e-10
1.09592e-10
2.60687e-10
1.69081e-10
4.31626e-11
-1.74452e-10
-6.23302e-12
-1.21159e-10
-2.35956e-10
2.18837e-10
-7.11209e-10
7.03378e-10
-1.46335e-09
1.2536e-09
-2.50334e-09
1.82157e-09
-3.82765e-09
2.37765e-09
-5.42363e-09
2.9042e-09
-7.27287e-09
3.39114e-09
-9.35381e-09
3.83344e-09
-1.16434e-08
4.22912e-09
-1.41183e-08
4.57836e-09
-1.67554e-08
4.8826e-09
-1.95325e-08
5.14403e-09
-2.24287e-08
5.36524e-09
-2.54243e-08
5.54909e-09
-2.8501e-08
5.69852e-09
-3.16421e-08
5.81636e-09
-3.4832e-08
5.90535e-09
-3.80567e-08
5.96806e-09
-4.13032e-08
6.00697e-09
-4.45597e-08
6.02426e-09
-4.78155e-08
6.02184e-09
-5.10608e-08
6.00143e-09
-5.42864e-08
5.96454e-09
-5.74841e-08
5.9125e-09
-6.06461e-08
5.84638e-09
-6.37651e-08
5.7671e-09
-6.68342e-08
5.67536e-09
-6.98469e-08
5.57169e-09
-7.27968e-08
5.4565e-09
-7.56777e-08
5.3301e-09
-7.84835e-08
5.19264e-09
-8.12082e-08
5.04417e-09
-8.38459e-08
4.88467e-09
-8.63904e-08
4.71405e-09
-8.88356e-08
4.5322e-09
-9.11754e-08
4.33895e-09
-9.34036e-08
4.13414e-09
-9.55138e-08
3.91757e-09
-9.74995e-08
3.68904e-09
-9.93543e-08
3.4484e-09
-1.01072e-07
3.19553e-09
-1.02645e-07
2.93034e-09
-1.04068e-07
2.65283e-09
-1.05334e-07
2.36304e-09
-1.06436e-07
2.0611e-09
-1.07368e-07
1.74721e-09
-1.08124e-07
1.4217e-09
-1.08699e-07
1.08497e-09
-1.09085e-07
7.37562e-10
-1.09279e-07
3.80135e-10
-1.09276e-07
1.34792e-11
-1.0907e-07
-3.6151e-10
-1.08659e-07
-7.43773e-10
-1.08039e-07
-1.13213e-09
-1.07208e-07
-1.52525e-09
-1.06164e-07
-1.92167e-09
-1.04906e-07
-2.31977e-09
-1.03434e-07
-2.71783e-09
-1.01751e-07
-3.11399e-09
-9.98567e-08
-3.50624e-09
-9.7756e-08
-3.8925e-09
-9.54529e-08
-4.27058e-09
-9.29531e-08
-4.63817e-09
-9.02637e-08
-4.99293e-09
-8.73928e-08
-5.33242e-09
-8.435e-08
-5.65419e-09
-8.1146e-08
-5.95577e-09
-7.7793e-08
-6.2347e-09
-7.43045e-08
-6.48854e-09
-7.0695e-08
-6.71489e-09
-6.69806e-08
-6.91143e-09
-6.31782e-08
-7.07592e-09
-5.93062e-08
-7.20625e-09
-5.53839e-08
-7.30041e-09
-5.14313e-08
-7.35656e-09
-4.74698e-08
-7.37303e-09
-4.3521e-08
-7.34834e-09
-3.96077e-08
-7.28121e-09
-3.57528e-08
-7.17059e-09
-3.198e-08
-7.01566e-09
-2.83129e-08
-6.81585e-09
-2.47755e-08
-6.57089e-09
-2.13915e-08
-6.28079e-09
-1.81846e-08
-5.94592e-09
-1.51777e-08
-5.56703e-09
-1.23932e-08
-5.14535e-09
-9.85221e-09
-4.68275e-09
-7.57416e-09
-4.18186e-09
-5.57636e-09
-3.64647e-09
-3.87297e-09
-3.08188e-09
-2.47388e-09
-2.4957e-09
-1.38302e-09
-1.89883e-09
-5.9604e-10
-1.30715e-09
-9.71796e-11
-7.43949e-10
1.45005e-10
-2.43544e-10
1.82829e-10
1.44283e-10
9.48622e-11
3.48614e-10
2.6395e-10
-2.60348e-11
-1.48402e-10
-2.38122e-10
9.09272e-11
-7.17573e-10
6.98276e-10
-1.51909e-09
1.50491e-09
-2.67194e-09
2.40644e-09
-4.18595e-09
3.33559e-09
-6.05664e-09
4.24834e-09
-8.26946e-09
5.11701e-09
-1.08032e-08
5.92491e-09
-1.36326e-08
6.6628e-09
-1.673e-08
7.32651e-09
-2.00669e-08
7.91527e-09
-2.36148e-08
8.43053e-09
-2.7346e-08
8.87523e-09
-3.12339e-08
9.25314e-09
-3.52534e-08
9.56856e-09
-3.93809e-08
9.82597e-09
-4.35943e-08
1.00299e-08
-4.78736e-08
1.01846e-08
-5.21999e-08
1.02944e-08
-5.65561e-08
1.03632e-08
-6.09263e-08
1.03945e-08
-6.52961e-08
1.03916e-08
-6.96522e-08
1.03575e-08
-7.39822e-08
1.02945e-08
-7.82747e-08
1.0205e-08
-8.25191e-08
1.00908e-08
-8.67053e-08
9.95336e-09
-9.0824e-08
9.79402e-09
-9.4866e-08
9.6137e-09
-9.88227e-08
9.41317e-09
-1.02686e-07
9.19294e-09
-1.06446e-07
8.95334e-09
-1.10097e-07
8.6945e-09
-1.13628e-07
8.41645e-09
-1.17033e-07
8.1191e-09
-1.20303e-07
7.80228e-09
-1.2343e-07
7.46579e-09
-1.26405e-07
7.10937e-09
-1.29221e-07
6.73273e-09
-1.31867e-07
6.33561e-09
-1.34337e-07
5.91778e-09
-1.3662e-07
5.47908e-09
-1.38709e-07
5.01944e-09
-1.40595e-07
4.53886e-09
-1.4227e-07
4.03746e-09
-1.43724e-07
3.5155e-09
-1.4495e-07
2.97338e-09
-1.4594e-07
2.41167e-09
-1.46686e-07
1.8311e-09
-1.47181e-07
1.23262e-09
-1.47419e-07
6.17393e-10
-1.47392e-07
-1.32105e-11
-1.47096e-07
-6.57679e-10
-1.46525e-07
-1.31414e-09
-1.45677e-07
-1.9806e-09
-1.44547e-07
-2.65476e-09
-1.43135e-07
-3.33412e-09
-1.41439e-07
-4.01595e-09
-1.39459e-07
-4.6973e-09
-1.37198e-07
-5.37498e-09
-1.34659e-07
-6.04562e-09
-1.31846e-07
-6.70568e-09
-1.28765e-07
-7.35143e-09
-1.25424e-07
-7.979e-09
-1.21833e-07
-8.5844e-09
-1.18002e-07
-9.16354e-09
-1.13943e-07
-9.71229e-09
-1.09673e-07
-1.02265e-08
-1.05205e-07
-1.07019e-08
-1.00559e-07
-1.11346e-08
-9.5754e-08
-1.15204e-08
-9.081e-08
-1.18554e-08
-8.57501e-08
-1.21358e-08
-8.05982e-08
-1.23582e-08
-7.53796e-08
-1.2519e-08
-7.01208e-08
-1.26154e-08
-6.48494e-08
-1.26444e-08
-5.95941e-08
-1.26036e-08
-5.43844e-08
-1.24909e-08
-4.92503e-08
-1.23046e-08
-4.42225e-08
-1.20434e-08
-3.93319e-08
-1.17065e-08
-3.46093e-08
-1.12935e-08
-3.00856e-08
-1.08046e-08
-2.57908e-08
-1.02407e-08
-2.17545e-08
-9.60334e-09
-1.80048e-08
-8.89505e-09
-1.45681e-08
-8.11939e-09
-1.14686e-08
-7.28137e-09
-8.72719e-09
-6.38791e-09
-6.36052e-09
-5.44855e-09
-4.37977e-09
-4.47645e-09
-2.78871e-09
-3.4899e-09
-1.58147e-09
-2.5144e-09
-7.39635e-10
-1.58581e-09
-2.28688e-10
-7.54489e-10
5.9883e-12
-9.03647e-11
4.41239e-11
3.10469e-10
3.08073e-10
-1.0536e-10
-4.30364e-11
-5.10674e-10
4.96234e-10
-1.27401e-09
1.46162e-09
-2.43552e-09
2.6664e-09
-4.01662e-09
3.98756e-09
-6.02264e-09
5.3416e-09
-8.44602e-09
6.67171e-09
-1.12696e-08
7.94058e-09
-1.44695e-08
9.12477e-09
-1.80172e-08
1.02105e-08
-2.18816e-08
1.1191e-08
-2.60305e-08
1.20641e-08
-3.04312e-08
1.28312e-08
-3.50515e-08
1.34956e-08
-3.98605e-08
1.40621e-08
-4.48285e-08
1.45366e-08
-4.99276e-08
1.4925e-08
-5.51315e-08
1.52337e-08
-6.04158e-08
1.54689e-08
-6.57578e-08
1.56364e-08
-7.11366e-08
1.5742e-08
-7.65329e-08
1.57908e-08
-8.19287e-08
1.57874e-08
-8.73075e-08
1.57363e-08
-9.2654e-08
1.5641e-08
-9.7954e-08
1.5505e-08
-1.03194e-07
1.53309e-08
-1.08362e-07
1.51211e-08
-1.13445e-07
1.48774e-08
-1.18433e-07
1.46014e-08
-1.23314e-07
1.42942e-08
-1.28078e-07
1.39567e-08
-1.32714e-07
1.35894e-08
-1.37212e-07
1.31926e-08
-1.41562e-07
1.27663e-08
-1.45753e-07
1.23106e-08
-1.49776e-07
1.18253e-08
-1.53621e-07
1.131e-08
-1.57276e-07
1.07645e-08
-1.60731e-07
1.01884e-08
-1.63977e-07
9.58135e-09
-1.67002e-07
8.94314e-09
-1.69797e-07
8.27358e-09
-1.7235e-07
7.57258e-09
-1.74651e-07
6.84023e-09
-1.76691e-07
6.07677e-09
-1.78458e-07
5.28263e-09
-1.79943e-07
4.45847e-09
-1.81137e-07
3.60518e-09
-1.82029e-07
2.72393e-09
-1.82613e-07
1.8162e-09
-1.82879e-07
8.83727e-10
-1.82821e-07
-7.14011e-11
-1.82432e-07
-1.0468e-09
-1.81706e-07
-2.03973e-09
-1.8064e-07
-3.04712e-09
-1.79229e-07
-4.06552e-09
-1.77472e-07
-5.09118e-09
-1.75368e-07
-6.11998e-09
-1.72918e-07
-7.14748e-09
-1.70124e-07
-8.16893e-09
-1.6699e-07
-9.17928e-09
-1.63523e-07
-1.01732e-08
-1.59729e-07
-1.11452e-08
-1.55618e-07
-1.20894e-08
-1.51203e-07
-1.29999e-08
-1.46496e-07
-1.38707e-08
-1.41513e-07
-1.46955e-08
-1.36271e-07
-1.54682e-08
-1.3079e-07
-1.61826e-08
-1.25092e-07
-1.68325e-08
-1.19201e-07
-1.7412e-08
-1.13141e-07
-1.79153e-08
-1.0694e-07
-1.83368e-08
-1.00627e-07
-1.86712e-08
-9.42322e-08
-1.89135e-08
-8.77883e-08
-1.90593e-08
-8.13284e-08
-1.91043e-08
-7.48869e-08
-1.90451e-08
-6.84992e-08
-1.88786e-08
-6.22016e-08
-1.86023e-08
-5.60306e-08
-1.82144e-08
-5.00233e-08
-1.77138e-08
-4.42164e-08
-1.71004e-08
-3.86464e-08
-1.63746e-08
-3.33491e-08
-1.5538e-08
-2.8359e-08
-1.45934e-08
-2.37091e-08
-1.3545e-08
-1.94299e-08
-1.23985e-08
-1.55492e-08
-1.11621e-08
-1.20906e-08
-9.84651e-09
-9.07283e-09
-8.46634e-09
-6.50815e-09
-7.04113e-09
-4.40076e-09
-5.59728e-09
-2.74475e-09
-4.17041e-09
-1.52173e-09
-2.80883e-09
-6.98166e-10
-1.57807e-09
-2.22573e-10
-5.65942e-10
-2.2741e-11
1.10639e-10
2.8533e-10
-1.8774e-10
1.44697e-10
-7.9765e-10
1.10615e-09
-1.86074e-09
2.5247e-09
-3.39923e-09
4.2049e-09
-5.42297e-09
6.01129e-09
-7.92972e-09
7.84834e-09
-1.09069e-08
9.6489e-09
-1.43337e-08
1.13674e-08
-1.8183e-08
1.29741e-08
-2.24235e-08
1.44509e-08
-2.70209e-08
1.57884e-08
-3.19398e-08
1.6983e-08
-3.71441e-08
1.80355e-08
-4.25983e-08
1.89498e-08
-4.82678e-08
1.97316e-08
-5.41193e-08
2.03881e-08
-6.01212e-08
2.09269e-08
-6.62438e-08
2.13562e-08
-7.24589e-08
2.1684e-08
-7.87407e-08
2.19182e-08
-8.50649e-08
2.20661e-08
-9.14088e-08
2.21347e-08
-9.77518e-08
2.21304e-08
-1.04074e-07
2.20588e-08
-1.10358e-07
2.19251e-08
-1.16587e-07
2.17338e-08
-1.22745e-07
2.14886e-08
-1.28816e-07
2.11927e-08
-1.34788e-07
2.08489e-08
-1.40646e-07
2.04592e-08
-1.46377e-07
2.00253e-08
-1.51968e-07
1.95483e-08
-1.57408e-07
1.90292e-08
-1.62684e-07
1.84684e-08
-1.67784e-07
1.78661e-08
-1.72695e-07
1.72223e-08
-1.77407e-07
1.65368e-08
-1.81906e-07
1.58094e-08
-1.86181e-07
1.50397e-08
-1.9022e-07
1.42273e-08
-1.94011e-07
1.33718e-08
-1.97541e-07
1.2473e-08
-2.00798e-07
1.15306e-08
-2.0377e-07
1.05447e-08
-2.06445e-07
9.51538e-09
-2.08811e-07
8.44313e-09
-2.10857e-07
7.32859e-09
-2.12571e-07
6.17273e-09
-2.13943e-07
4.97686e-09
-2.14962e-07
3.74267e-09
-2.15618e-07
2.47224e-09
-2.15902e-07
1.16804e-09
-2.15807e-07
-1.66996e-10
-2.15324e-07
-1.52952e-09
-2.14448e-07
-2.91571e-09
-2.13174e-07
-4.32126e-09
-2.11498e-07
-5.7414e-09
-2.09418e-07
-7.17088e-09
-2.06934e-07
-8.60401e-09
-2.04047e-07
-1.00346e-08
-2.0076e-07
-1.14562e-08
-1.97077e-07
-1.28616e-08
-1.93007e-07
-1.42437e-08
-1.88557e-07
-1.55947e-08
-1.8374e-07
-1.69066e-08
-1.78569e-07
-1.81713e-08
-1.73059e-07
-1.93804e-08
-1.67229e-07
-2.05254e-08
-1.611e-07
-2.15978e-08
-1.54693e-07
-2.25891e-08
-1.48035e-07
-2.34908e-08
-1.41152e-07
-2.42949e-08
-1.34074e-07
-2.49933e-08
-1.26832e-07
-2.55784e-08
-1.19461e-07
-2.60429e-08
-1.11994e-07
-2.63801e-08
-1.04469e-07
-2.65839e-08
-9.69252e-08
-2.66486e-08
-8.94009e-08
-2.65695e-08
-8.19371e-08
-2.63424e-08
-7.45753e-08
-2.59641e-08
-6.73572e-08
-2.54324e-08
-6.0325e-08
-2.47461e-08
-5.35205e-08
-2.39049e-08
-4.69849e-08
-2.29101e-08
-4.07586e-08
-2.17642e-08
-3.48805e-08
-2.04716e-08
-2.93872e-08
-1.90382e-08
-2.43128e-08
-1.74729e-08
-1.96879e-08
-1.57871e-08
-1.55384e-08
-1.3996e-08
-1.18848e-08
-1.21199e-08
-8.74096e-09
-1.0185e-08
-6.11216e-09
-8.22608e-09
-3.99393e-09
-6.28863e-09
-2.37014e-09
-4.43261e-09
-1.21131e-09
-2.7369e-09
-4.73074e-10
-1.30418e-09
-9.50817e-11
-2.67348e-10
1.90249e-10
-2.68881e-10
4.13586e-10
-1.08402e-09
1.92128e-09
-2.45022e-09
3.89091e-09
-4.37015e-09
6.12482e-09
-6.84e-09
8.48113e-09
-9.84799e-09
1.08563e-08
-1.33748e-08
1.31757e-08
-1.73948e-08
1.53873e-08
-2.1877e-08
1.74563e-08
-2.67868e-08
1.93608e-08
-3.20871e-08
2.10887e-08
-3.77395e-08
2.26354e-08
-4.37052e-08
2.40012e-08
-4.99456e-08
2.51902e-08
-5.64231e-08
2.62092e-08
-6.31016e-08
2.70665e-08
-6.99463e-08
2.77716e-08
-7.69244e-08
2.83344e-08
-8.40051e-08
2.87647e-08
-9.11594e-08
2.90725e-08
-9.83601e-08
2.92668e-08
-1.05582e-07
2.93567e-08
-1.12802e-07
2.935e-08
-1.19997e-07
2.92542e-08
-1.27148e-07
2.90758e-08
-1.34235e-07
2.88206e-08
-1.41239e-07
2.84934e-08
-1.48145e-07
2.80985e-08
-1.54936e-07
2.76394e-08
-1.61595e-07
2.71189e-08
-1.68109e-07
2.65393e-08
-1.74463e-07
2.59021e-08
-1.80642e-07
2.52084e-08
-1.86633e-07
2.44592e-08
-1.92422e-07
2.36546e-08
-1.97994e-07
2.27948e-08
-2.03337e-07
2.18797e-08
-2.08437e-07
2.0909e-08
-2.13279e-07
1.98823e-08
-2.17851e-07
1.87992e-08
-2.22139e-07
1.76593e-08
-2.26128e-07
1.64623e-08
-2.29806e-07
1.52081e-08
-2.33158e-07
1.38968e-08
-2.36171e-07
1.25287e-08
-2.38832e-07
1.11044e-08
-2.41129e-07
9.62482e-09
-2.43047e-07
8.0914e-09
-2.44576e-07
6.50589e-09
-2.45704e-07
4.8706e-09
-2.4642e-07
3.18829e-09
-2.46714e-07
1.46229e-09
-2.46578e-07
-3.03535e-10
-2.46003e-07
-2.10471e-09
-2.44982e-07
-3.93619e-09
-2.43511e-07
-5.79228e-09
-2.41586e-07
-7.66671e-09
-2.39204e-07
-9.55257e-09
-2.36366e-07
-1.14424e-08
-2.33072e-07
-1.33281e-08
-2.29328e-07
-1.5201e-08
-2.25137e-07
-1.7052e-08
-2.2051e-07
-1.88715e-08
-2.15455e-07
-2.06494e-08
-2.09986e-07
-2.23754e-08
-2.04118e-07
-2.40388e-08
-1.9787e-07
-2.56286e-08
-1.91262e-07
-2.71338e-08
-1.84316e-07
-2.85432e-08
-1.7706e-07
-2.98458e-08
-1.6952e-07
-3.10308e-08
-1.61727e-07
-3.20874e-08
-1.53715e-07
-3.30052e-08
-1.45519e-07
-3.37744e-08
-1.37176e-07
-3.43857e-08
-1.28726e-07
-3.48302e-08
-1.2021e-07
-3.51e-08
-1.11671e-07
-3.51881e-08
-1.03152e-07
-3.50883e-08
-9.4699e-08
-3.47953e-08
-8.63578e-08
-3.43053e-08
-7.81747e-08
-3.36155e-08
-7.01962e-08
-3.27246e-08
-6.24683e-08
-3.16328e-08
-5.50365e-08
-3.03419e-08
-4.79449e-08
-2.88558e-08
-4.12358e-08
-2.71806e-08
-3.49494e-08
-2.53247e-08
-2.91224e-08
-2.32999e-08
-2.37879e-08
-2.11216e-08
-1.89741e-08
-1.88099e-08
-1.47034e-08
-1.63906e-08
-1.09914e-08
-1.38971e-08
-7.84542e-09
-1.1372e-08
-5.26375e-09
-8.87029e-09
-3.2342e-09
-6.46216e-09
-1.73339e-09
-4.23771e-09
-7.26356e-10
-2.31121e-09
-1.66981e-10
-8.2672e-10
2.32692e-11
-3.46417e-10
7.6e-10
-1.36173e-09
2.9366e-09
-3.0262e-09
5.55538e-09
-5.32328e-09
8.42191e-09
-8.23455e-09
1.13924e-08
-1.17375e-08
1.43593e-08
-1.58049e-08
1.72431e-08
-2.0405e-08
1.99875e-08
-2.55026e-08
2.25538e-08
-3.10593e-08
2.49174e-08
-3.70349e-08
2.70644e-08
-4.33882e-08
2.89887e-08
-5.00777e-08
3.06907e-08
-5.70623e-08
3.21748e-08
-6.43019e-08
3.34488e-08
-7.17576e-08
3.45222e-08
-7.93922e-08
3.54063e-08
-8.71705e-08
3.61126e-08
-9.50589e-08
3.66531e-08
-1.03026e-07
3.70395e-08
-1.11042e-07
3.72831e-08
-1.1908e-07
3.73944e-08
-1.27113e-07
3.73834e-08
-1.35118e-07
3.72592e-08
-1.43072e-07
3.70296e-08
-1.50953e-07
3.67019e-08
-1.58742e-07
3.62823e-08
-1.6642e-07
3.57759e-08
-1.73968e-07
3.51872e-08
-1.81368e-07
3.45198e-08
-1.88605e-07
3.37764e-08
-1.95663e-07
3.29592e-08
-2.02524e-07
3.20698e-08
-2.09174e-07
3.11091e-08
-2.15597e-07
3.00777e-08
-2.21778e-07
2.89759e-08
-2.27702e-07
2.78035e-08
-2.33353e-07
2.65604e-08
-2.38717e-07
2.52461e-08
-2.43778e-07
2.38602e-08
-2.48521e-07
2.24024e-08
-2.52931e-07
2.08724e-08
-2.56994e-07
1.92702e-08
-2.60693e-07
1.7596e-08
-2.64014e-07
1.58502e-08
-2.66944e-07
1.40337e-08
-2.69467e-07
1.21478e-08
-2.7157e-07
1.01944e-08
-2.73239e-07
8.17577e-09
-2.74464e-07
6.09488e-09
-2.75231e-07
3.95531e-09
-2.7553e-07
1.76131e-09
-2.75351e-07
-4.82172e-10
-2.74686e-07
-2.76946e-09
-2.73528e-07
-5.09412e-09
-2.71872e-07
-7.44895e-09
-2.69713e-07
-9.826e-09
-2.67049e-07
-1.22165e-08
-2.6388e-07
-1.46111e-08
-2.60208e-07
-1.69995e-08
-2.56038e-07
-1.93709e-08
-2.51377e-07
-2.17138e-08
-2.46232e-07
-2.4016e-08
-2.40617e-07
-2.62649e-08
-2.34545e-07
-2.84475e-08
-2.28033e-07
-3.05503e-08
-2.21102e-07
-3.25596e-08
-2.13774e-07
-3.44616e-08
-2.06075e-07
-3.62424e-08
-1.98033e-07
-3.7888e-08
-1.89679e-07
-3.93849e-08
-1.81046e-07
-4.07196e-08
-1.72172e-07
-4.18793e-08
-1.63095e-07
-4.28516e-08
-1.53856e-07
-4.36249e-08
-1.44498e-07
-4.41884e-08
-1.35066e-07
-4.45321e-08
-1.25606e-07
-4.46474e-08
-1.16168e-07
-4.45267e-08
-1.068e-07
-4.41638e-08
-9.75509e-08
-4.35539e-08
-8.84725e-08
-4.2694e-08
-7.96144e-08
-4.15826e-08
-7.10266e-08
-4.02206e-08
-6.2758e-08
-3.86105e-08
-5.4856e-08
-3.67578e-08
-4.73661e-08
-3.46705e-08
-4.03311e-08
-3.23597e-08
-3.37904e-08
-2.98406e-08
-2.77794e-08
-2.71326e-08
-2.23284e-08
-2.42609e-08
-1.7462e-08
-2.1257e-08
-1.3198e-08
-1.8161e-08
-9.54664e-09
-1.50234e-08
-6.50979e-09
-1.19071e-08
-4.08037e-09
-8.89157e-09
-2.24233e-09
-6.07575e-09
-9.71126e-10
-3.58242e-09
-2.35231e-10
-1.56262e-09
-2.11963e-10
-4.19365e-10
1.17937e-09
-1.62652e-09
4.14374e-09
-3.57956e-09
7.50842e-09
-6.24366e-09
1.1086e-08
-9.58582e-09
1.47346e-08
-1.35722e-08
1.83456e-08
-1.81669e-08
2.18378e-08
-2.33315e-08
2.51522e-08
-2.90257e-08
2.82479e-08
-3.52069e-08
3.10986e-08
-4.18316e-08
3.36891e-08
-4.88558e-08
3.60129e-08
-5.62352e-08
3.80701e-08
-6.39265e-08
3.98661e-08
-7.18872e-08
4.14094e-08
-8.00761e-08
4.27111e-08
-8.84538e-08
4.37841e-08
-9.69829e-08
4.46417e-08
-1.05628e-07
4.52979e-08
-1.14355e-07
4.57664e-08
-1.23132e-07
4.60605e-08
-1.3193e-07
4.61926e-08
-1.40721e-07
4.61746e-08
-1.49479e-07
4.60172e-08
-1.5818e-07
4.57299e-08
-1.66799e-07
4.53213e-08
-1.75316e-07
4.47989e-08
-1.83709e-07
4.4169e-08
-1.91959e-07
4.3437e-08
-2.00046e-07
4.26073e-08
-2.07953e-07
4.16833e-08
-2.15661e-07
4.06677e-08
-2.23154e-07
3.95625e-08
-2.30414e-07
3.83689e-08
-2.37424e-07
3.70878e-08
-2.44168e-07
3.57195e-08
-2.50628e-07
3.42641e-08
-2.56789e-07
3.27214e-08
-2.62634e-07
3.10911e-08
-2.68147e-07
2.93726e-08
-2.7331e-07
2.75659e-08
-2.78108e-07
2.56705e-08
-2.82525e-07
2.36867e-08
-2.86543e-07
2.16146e-08
-2.90148e-07
1.94551e-08
-2.93324e-07
1.72093e-08
-2.96055e-07
1.48788e-08
-2.98327e-07
1.24661e-08
-3.00125e-07
9.9741e-09
-3.01437e-07
7.40643e-09
-3.02249e-07
4.76759e-09
-3.0255e-07
2.06283e-09
-3.02331e-07
-7.01719e-10
-3.01581e-07
-3.51904e-09
-3.00294e-07
-6.38122e-09
-2.98464e-07
-9.27941e-09
-2.96086e-07
-1.22038e-08
-2.93159e-07
-1.51438e-08
-2.89682e-07
-1.80877e-08
-2.85658e-07
-2.1023e-08
-2.81093e-07
-2.39365e-08
-2.75993e-07
-2.68141e-08
-2.70368e-07
-2.96409e-08
-2.64231e-07
-3.24016e-08
-2.57598e-07
-3.50802e-08
-2.50488e-07
-3.76604e-08
-2.42922e-07
-4.01253e-08
-2.34926e-07
-4.24582e-08
-2.26526e-07
-4.4642e-08
-2.17754e-07
-4.666e-08
-2.08644e-07
-4.84955e-08
-1.99231e-07
-5.01323e-08
-1.89555e-07
-5.15548e-08
-1.79659e-07
-5.2748e-08
-1.69586e-07
-5.36979e-08
-1.59383e-07
-5.43914e-08
-1.49099e-07
-5.48166e-08
-1.38783e-07
-5.49632e-08
-1.28488e-07
-5.48221e-08
-1.18265e-07
-5.4386e-08
-1.0817e-07
-5.36495e-08
-9.82546e-08
-5.26091e-08
-8.85735e-08
-5.12637e-08
-7.91796e-08
-4.96144e-08
-7.01249e-08
-4.76652e-08
-6.146e-08
-4.54228e-08
-5.32329e-08
-4.28976e-08
-4.5489e-08
-4.01036e-08
-3.82703e-08
-3.70594e-08
-3.16142e-08
-3.37887e-08
-2.55535e-08
-3.03216e-08
-2.0115e-08
-2.66955e-08
-1.53193e-08
-2.29567e-08
-1.118e-08
-1.91627e-08
-7.70314e-09
-1.5384e-08
-4.88751e-09
-1.17072e-08
-2.72483e-09
-8.23843e-09
-1.201e-09
-5.10625e-09
-2.98313e-10
-2.46531e-09
-5.10279e-10
-4.87428e-10
1.6668e-09
-1.8764e-09
5.53271e-09
-4.10549e-09
9.73752e-09
-7.12292e-09
1.41034e-08
-1.08815e-08
1.84932e-08
-1.53361e-08
2.28002e-08
-2.04417e-08
2.69434e-08
-2.61528e-08
3.08634e-08
-3.24234e-08
3.45186e-08
-3.92066e-08
3.78818e-08
-4.64552e-08
4.09376e-08
-5.41219e-08
4.36796e-08
-6.21601e-08
4.61084e-08
-7.0524e-08
4.82299e-08
-7.91688e-08
5.00542e-08
-8.80514e-08
5.15938e-08
-9.71305e-08
5.28632e-08
-1.06367e-07
5.38778e-08
-1.15722e-07
5.46535e-08
-1.25162e-07
5.5206e-08
-1.34652e-07
5.55507e-08
-1.44161e-07
5.5702e-08
-1.5366e-07
5.56736e-08
-1.63121e-07
5.54779e-08
-1.72517e-07
5.51261e-08
-1.81824e-07
5.46282e-08
-1.91018e-07
5.39931e-08
-2.00078e-07
5.32282e-08
-2.08981e-07
5.23399e-08
-2.17707e-07
5.13334e-08
-2.26236e-07
5.02129e-08
-2.3455e-07
4.89815e-08
-2.42629e-07
4.76418e-08
-2.50456e-07
4.61953e-08
-2.58011e-07
4.46431e-08
-2.65277e-07
4.29858e-08
-2.72237e-07
4.12234e-08
-2.78871e-07
3.9356e-08
-2.85163e-07
3.73831e-08
-2.91095e-07
3.53045e-08
-2.96649e-07
3.31199e-08
-3.01808e-07
3.08292e-08
-3.06554e-07
2.84325e-08
-3.10869e-07
2.59304e-08
-3.14738e-07
2.33237e-08
-3.18143e-07
2.06141e-08
-3.21068e-07
1.78037e-08
-3.23497e-07
1.48952e-08
-3.25415e-07
1.18924e-08
-3.26808e-07
8.79971e-09
-3.27663e-07
5.62255e-09
-3.27968e-07
2.3673e-09
-3.27711e-07
-9.58671e-10
-3.26883e-07
-4.34692e-09
-3.25476e-07
-7.78792e-09
-3.23485e-07
-1.12711e-08
-3.20904e-07
-1.47846e-08
-3.17732e-07
-1.83157e-08
-3.13969e-07
-2.18505e-08
-3.09618e-07
-2.53741e-08
-3.04684e-07
-2.88706e-08
-2.99175e-07
-3.23231e-08
-2.93102e-07
-3.57139e-08
-2.86479e-07
-3.90247e-08
-2.79323e-07
-4.22363e-08
-2.71654e-07
-4.53294e-08
-2.63495e-07
-4.82838e-08
-2.54874e-07
-5.10797e-08
-2.45819e-07
-5.36966e-08
-2.36364e-07
-5.61147e-08
-2.26546e-07
-5.83142e-08
-2.16402e-07
-6.02758e-08
-2.05976e-07
-6.1981e-08
-1.95312e-07
-6.3412e-08
-1.84457e-07
-6.45524e-08
-1.73462e-07
-6.53866e-08
-1.62378e-07
-6.59009e-08
-1.51258e-07
-6.60829e-08
-1.40158e-07
-6.59223e-08
-1.29133e-07
-6.54107e-08
-1.18241e-07
-6.45419e-08
-1.07538e-07
-6.33122e-08
-9.70806e-08
-6.17207e-08
-8.69258e-08
-5.97692e-08
-7.71283e-08
-5.74627e-08
-6.7741e-08
-5.48101e-08
-5.88149e-08
-5.18237e-08
-5.03976e-08
-4.85208e-08
-4.25334e-08
-4.49235e-08
-3.52623e-08
-4.10599e-08
-2.86191e-08
-3.69647e-08
-2.26336e-08
-3.2681e-08
-1.73292e-08
-2.82611e-08
-1.27231e-08
-2.37687e-08
-8.82626e-09
-1.92809e-08
-5.64321e-09
-1.48902e-08
-3.17345e-09
-1.07082e-08
-1.41271e-09
-6.86699e-09
-3.55522e-10
-3.5225e-09
-8.65803e-10
-5.50705e-10
2.21751e-09
-2.11097e-09
7.09298e-09
-4.60215e-09
1.22287e-08
-7.957e-09
1.74583e-08
-1.21151e-08
2.26513e-08
-1.70202e-08
2.77052e-08
-2.26181e-08
3.25413e-08
-2.88561e-08
3.71014e-08
-3.5682e-08
4.13445e-08
-4.30444e-08
4.52442e-08
-5.08919e-08
4.87852e-08
-5.91744e-08
5.1962e-08
-6.78422e-08
5.47762e-08
-7.68472e-08
5.72349e-08
-8.61426e-08
5.93495e-08
-9.56833e-08
6.11345e-08
-1.05426e-07
6.2606e-08
-1.1533e-07
6.37816e-08
-1.25356e-07
6.46791e-08
-1.35466e-07
6.53164e-08
-1.45626e-07
6.57108e-08
-1.55803e-07
6.58788e-08
-1.65965e-07
6.5836e-08
-1.76084e-07
6.55966e-08
-1.86131e-07
6.51734e-08
-1.96081e-07
6.4578e-08
-2.05909e-07
6.38205e-08
-2.1559e-07
6.29096e-08
-2.25103e-07
6.18526e-08
-2.34425e-07
6.06557e-08
-2.43536e-07
5.93237e-08
-2.52415e-07
5.78604e-08
-2.61042e-07
5.62687e-08
-2.69397e-07
5.45507e-08
-2.77462e-07
5.27076e-08
-2.85216e-07
5.07403e-08
-2.92642e-07
4.86488e-08
-2.99719e-07
4.64333e-08
-3.06429e-07
4.40935e-08
-3.12754e-07
4.16292e-08
-3.18674e-07
3.90401e-08
-3.24171e-07
3.63262e-08
-3.29227e-07
3.34879e-08
-3.33822e-07
3.05258e-08
-3.3794e-07
2.74411e-08
-3.41561e-07
2.42357e-08
-3.4467e-07
2.09123e-08
-3.47249e-07
1.74743e-08
-3.49282e-07
1.39259e-08
-3.50755e-07
1.02726e-08
-3.51653e-07
6.52074e-09
-3.51964e-07
2.67789e-09
-3.51675e-07
-1.24724e-09
-3.50778e-07
-5.24469e-09
-3.49262e-07
-9.30323e-09
-3.47123e-07
-1.34104e-08
-3.44355e-07
-1.75523e-08
-3.40957e-07
-2.1714e-08
-3.36929e-07
-2.5879e-08
-3.32273e-07
-3.00299e-08
-3.26995e-07
-3.4148e-08
-3.21105e-07
-3.82135e-08
-3.14613e-07
-4.22057e-08
-3.07535e-07
-4.6103e-08
-2.99888e-07
-4.9883e-08
-2.91695e-07
-5.35229e-08
-2.82979e-07
-5.69994e-08
-2.7377e-07
-6.02889e-08
-2.64099e-07
-6.33678e-08
-2.54001e-07
-6.62126e-08
-2.43514e-07
-6.88004e-08
-2.32682e-07
-7.11087e-08
-2.21547e-07
-7.31159e-08
-2.10157e-07
-7.48013e-08
-1.98564e-07
-7.61457e-08
-1.86819e-07
-7.71314e-08
-1.74978e-07
-7.77422e-08
-1.63097e-07
-7.79642e-08
-1.51234e-07
-7.77853e-08
-1.39448e-07
-7.71963e-08
-1.278e-07
-7.61903e-08
-1.16349e-07
-7.47633e-08
-1.05155e-07
-7.29148e-08
-9.42765e-08
-7.06472e-08
-8.37721e-08
-6.79671e-08
-7.36972e-08
-6.4885e-08
-6.41049e-08
-6.1416e-08
-5.50456e-08
-5.75802e-08
-4.65657e-08
-5.34034e-08
-3.87076e-08
-4.89179e-08
-3.15089e-08
-4.41634e-08
-2.50019e-08
-3.9188e-08
-1.92132e-08
-3.40498e-08
-1.4164e-08
-2.88179e-08
-9.86987e-09
-2.3575e-08
-6.34123e-09
-1.84189e-08
-3.58475e-09
-1.34647e-08
-1.60494e-09
-8.84681e-09
-4.06714e-10
-4.72073e-09
-1.27252e-09
-6.09571e-10
2.82708e-09
-2.33053e-09
8.81393e-09
-5.06928e-09
1.49674e-08
-8.74469e-09
2.11337e-08
-1.3284e-08
2.71907e-08
-1.86203e-08
3.30415e-08
-2.46906e-08
3.86115e-08
-3.14346e-08
4.38454e-08
-3.87942e-08
4.87041e-08
-4.67128e-08
5.31627e-08
-5.51351e-08
5.72075e-08
-6.40074e-08
6.08343e-08
-7.32774e-08
6.40462e-08
-8.28944e-08
6.68519e-08
-9.28096e-08
6.92647e-08
-1.02976e-07
7.13009e-08
-1.13349e-07
7.29788e-08
-1.23885e-07
7.43179e-08
-1.34544e-07
7.53383e-08
-1.45288e-07
7.60599e-08
-1.56079e-07
7.65024e-08
-1.66885e-07
7.66841e-08
-1.77671e-07
7.66225e-08
-1.88408e-07
7.63337e-08
-1.99067e-07
7.58323e-08
-2.0962e-07
7.51313e-08
-2.20042e-07
7.42421e-08
-2.30307e-07
7.31746e-08
-2.40392e-07
7.19374e-08
-2.50273e-07
7.05372e-08
-2.59929e-07
6.89798e-08
-2.69338e-07
6.72695e-08
-2.7848e-07
6.54098e-08
-2.87332e-07
6.34031e-08
-2.95875e-07
6.12508e-08
-3.04089e-07
5.8954e-08
-3.11953e-07
5.65131e-08
-3.19448e-07
5.39281e-08
-3.26553e-07
5.11988e-08
-3.33249e-07
4.83252e-08
-3.39516e-07
4.5307e-08
-3.45334e-07
4.21444e-08
-3.50684e-07
3.88378e-08
-3.55546e-07
3.5388e-08
-3.59902e-07
3.17966e-08
-3.63732e-07
2.80659e-08
-3.67019e-07
2.41989e-08
-3.69744e-07
2.01998e-08
-3.71892e-07
1.60735e-08
-3.73445e-07
1.18263e-08
-3.7439e-07
7.46567e-09
-3.74713e-07
3.00042e-09
-3.74401e-07
-1.55935e-09
-3.73443e-07
-6.20208e-09
-3.71832e-07
-1.09148e-08
-3.69559e-07
-1.56829e-08
-3.66621e-07
-2.04905e-08
-3.63015e-07
-2.53201e-08
-3.58741e-07
-3.01529e-08
-3.53803e-07
-3.49684e-08
-3.48205e-07
-3.97452e-08
-3.41958e-07
-4.44604e-08
-3.35074e-07
-4.90899e-08
-3.27568e-07
-5.36089e-08
-3.1946e-07
-5.79915e-08
-3.10771e-07
-6.22113e-08
-3.0153e-07
-6.62413e-08
-2.91764e-07
-7.00543e-08