/*--------------------------------*- C++ -*----------------------------------*\
  =========                 |
  \\      /  F ield         | OpenFOAM: The Open Source CFD Toolbox
   \\    /   O peration     | Website:  https://openfoam.org
    \\  /    A nd           | Version:  7
     \\/     M anipulation  |
\*---------------------------------------------------------------------------*/
FoamFile
{
    version     2.0;
    format      ascii;
    class       volVectorField;
    location    "0.25";
    object      U;
}
// * * * * * * * * * * * * * * * * * * * * * * * * * * * * * * * * * * * * * //

dimensions      [0 1 -1 0 0 0 0];

internalField   nonuniform List<vector> 
10000
(
(1.2925e-06 -5.10969e-06 0)
(1.14416e-05 -7.27658e-06 0)
(1.87308e-05 -4.28699e-06 0)
(2.14685e-05 -1.37715e-06 0)
(1.49351e-05 1.63095e-06 0)
(1.84414e-07 4.47557e-06 0)
(-2.25218e-05 7.0838e-06 0)
(-5.271e-05 9.43168e-06 0)
(-8.96895e-05 1.15022e-05 0)
(-0.000132741 1.33042e-05 0)
(-0.000181176 1.48516e-05 0)
(-0.000234308 1.61625e-05 0)
(-0.000291494 1.72755e-05 0)
(-0.000352137 1.82191e-05 0)
(-0.00041569 1.90004e-05 0)
(-0.000481655 1.96289e-05 0)
(-0.000549572 2.0122e-05 0)
(-0.000619028 2.04966e-05 0)
(-0.000689657 2.0767e-05 0)
(-0.000761128 2.09425e-05 0)
(-0.000833138 2.10354e-05 0)
(-0.000905422 2.10631e-05 0)
(-0.00097774 2.10338e-05 0)
(-0.00104988 2.0946e-05 0)
(-0.00112163 2.08005e-05 0)
(-0.00119284 2.06038e-05 0)
(-0.00126331 2.03655e-05 0)
(-0.00133292 2.00927e-05 0)
(-0.0014015 1.97856e-05 0)
(-0.00146894 1.94404e-05 0)
(-0.00153509 1.90555e-05 0)
(-0.00159982 1.86344e-05 0)
(-0.00166301 1.81804e-05 0)
(-0.00172454 1.76928e-05 0)
(-0.00178427 1.71685e-05 0)
(-0.00184208 1.66058e-05 0)
(-0.00189783 1.60048e-05 0)
(-0.00195139 1.53646e-05 0)
(-0.00200262 1.46832e-05 0)
(-0.00205138 1.39591e-05 0)
(-0.00209753 1.31919e-05 0)
(-0.00214092 1.23809e-05 0)
(-0.00218139 1.15248e-05 0)
(-0.0022188 1.06217e-05 0)
(-0.00225299 9.67095e-06 0)
(-0.00228381 8.6728e-06 0)
(-0.0023111 7.62812e-06 0)
(-0.00233472 6.53768e-06 0)
(-0.0023545 5.40177e-06 0)
(-0.00237031 4.22079e-06 0)
(-0.00238201 2.99596e-06 0)
(-0.00238945 1.72962e-06 0)
(-0.00239251 4.25002e-07 0)
(-0.00239108 -9.14279e-07 0)
(-0.00238506 -2.28442e-06 0)
(-0.00237434 -3.68133e-06 0)
(-0.00235886 -5.10061e-06 0)
(-0.00233856 -6.53745e-06 0)
(-0.00231339 -7.98615e-06 0)
(-0.00228334 -9.43969e-06 0)
(-0.00224841 -1.08903e-05 0)
(-0.00220863 -1.23303e-05 0)
(-0.00216406 -1.37519e-05 0)
(-0.00211477 -1.51473e-05 0)
(-0.00206087 -1.65076e-05 0)
(-0.00200251 -1.78234e-05 0)
(-0.00193984 -1.9085e-05 0)
(-0.00187307 -2.02824e-05 0)
(-0.00180244 -2.14059e-05 0)
(-0.0017282 -2.24454e-05 0)
(-0.00165065 -2.33912e-05 0)
(-0.00157012 -2.42344e-05 0)
(-0.00148696 -2.49664e-05 0)
(-0.00140156 -2.55786e-05 0)
(-0.00131433 -2.6062e-05 0)
(-0.0012257 -2.64083e-05 0)
(-0.00113614 -2.66105e-05 0)
(-0.00104614 -2.66628e-05 0)
(-0.000956201 -2.65594e-05 0)
(-0.00086685 -2.6294e-05 0)
(-0.000778628 -2.58612e-05 0)
(-0.000692088 -2.52574e-05 0)
(-0.000607793 -2.44808e-05 0)
(-0.000526312 -2.35297e-05 0)
(-0.000448222 -2.24018e-05 0)
(-0.000374098 -2.10954e-05 0)
(-0.000304516 -1.96098e-05 0)
(-0.000240045 -1.79452e-05 0)
(-0.000181245 -1.61017e-05 0)
(-0.000128664 -1.40799e-05 0)
(-8.28226e-05 -1.1883e-05 0)
(-4.42082e-05 -9.51908e-06 0)
(-1.32501e-05 -7.00215e-06 0)
(9.70625e-06 -4.35769e-06 0)
(2.44633e-05 -1.63428e-06 0)
(3.1072e-05 1.0607e-06 0)
(2.99871e-05 3.50772e-06 0)
(2.24237e-05 5.26715e-06 0)
(1.14444e-05 5.4709e-06 0)
(2.82329e-06 2.82714e-06 0)
(2.37135e-06 -1.04177e-05 0)
(1.11337e-05 -1.66538e-05 0)
(1.5344e-05 -6.97055e-06 0)
(4.71001e-06 6.69079e-06 0)
(-2.48558e-05 2.2155e-05 0)
(-7.42971e-05 3.77663e-05 0)
(-0.000143643 5.26875e-05 0)
(-0.000231997 6.65319e-05 0)
(-0.000338052 7.91186e-05 0)
(-0.000460266 9.03611e-05 0)
(-0.000596977 0.000100269 0)
(-0.000746529 0.00010889 0)
(-0.000907308 0.000116313 0)
(-0.00107777 0.000122627 0)
(-0.00125646 0.000127913 0)
(-0.00144204 0.000132255 0)
(-0.00163326 0.000135749 0)
(-0.001829 0.000138474 0)
(-0.00202821 0.000140497 0)
(-0.00222996 0.000141889 0)
(-0.00243341 0.000142718 0)
(-0.00263777 0.000143047 0)
(-0.00284235 0.000142926 0)
(-0.00304651 0.000142392 0)
(-0.00324969 0.000141477 0)
(-0.00345134 0.000140217 0)
(-0.00365097 0.00013864 0)
(-0.00384814 0.00013677 0)
(-0.0040424 0.000134622 0)
(-0.00423336 0.000132204 0)
(-0.00442062 0.000129522 0)
(-0.00460381 0.000126586 0)
(-0.00478254 0.0001234 0)
(-0.00495644 0.000119962 0)
(-0.00512515 0.000116266 0)
(-0.0052883 0.00011231 0)
(-0.00544551 0.000108089 0)
(-0.00559639 0.000103601 0)
(-0.00574054 9.88365e-05 0)
(-0.00587758 9.37905e-05 0)
(-0.0060071 8.84563e-05 0)
(-0.0061287 8.28282e-05 0)
(-0.00624195 7.69016e-05 0)
(-0.00634644 7.06732e-05 0)
(-0.00644174 6.41415e-05 0)
(-0.00652743 5.73073e-05 0)
(-0.00660309 5.01722e-05 0)
(-0.0066683 4.27399e-05 0)
(-0.00672266 3.50162e-05 0)
(-0.00676577 2.70097e-05 0)
(-0.00679727 1.87328e-05 0)
(-0.00681678 1.02012e-05 0)
(-0.00682398 1.43409e-06 0)
(-0.00681855 -7.54737e-06 0)
(-0.00680023 -1.67187e-05 0)
(-0.00676877 -2.60522e-05 0)
(-0.006724 -3.55156e-05 0)
(-0.00666576 -4.50728e-05 0)
(-0.00659397 -5.46846e-05 0)
(-0.0065086 -6.43084e-05 0)
(-0.00640966 -7.38982e-05 0)
(-0.00629725 -8.34054e-05 0)
(-0.00617153 -9.27785e-05 0)
(-0.00603275 -0.000101963 0)
(-0.00588122 -0.000110904 0)
(-0.00571733 -0.00011954 0)
(-0.00554156 -0.000127811 0)
(-0.00535447 -0.000135655 0)
(-0.00515671 -0.00014301 0)
(-0.004949 -0.000149815 0)
(-0.00473217 -0.000156009 0)
(-0.00450711 -0.000161532 0)
(-0.00427479 -0.000166328 0)
(-0.00403629 -0.000170339 0)
(-0.00379273 -0.000173514 0)
(-0.00354532 -0.000175801 0)
(-0.00329534 -0.000177153 0)
(-0.00304411 -0.000177529 0)
(-0.00279302 -0.000176891 0)
(-0.00254351 -0.000175206 0)
(-0.00229705 -0.000172447 0)
(-0.00205516 -0.00016859 0)
(-0.00181936 -0.000163619 0)
(-0.00159122 -0.000157523 0)
(-0.00137228 -0.000150299 0)
(-0.0011641 -0.000141946 0)
(-0.000968226 -0.000132473 0)
(-0.000786162 -0.000121897 0)
(-0.000619373 -0.000110247 0)
(-0.000469253 -9.7566e-05 0)
(-0.000337095 -8.39185e-05 0)
(-0.000224046 -6.94053e-05 0)
(-0.000131045 -5.41828e-05 0)
(-5.87233e-05 -3.84976e-05 0)
(-7.25311e-06 -2.27434e-05 0)
(2.38793e-05 -7.57771e-06 0)
(3.61785e-05 5.89819e-06 0)
(3.26422e-05 1.58364e-05 0)
(1.91385e-05 1.91851e-05 0)
(5.43579e-06 1.14257e-05 0)
(2.81665e-06 -1.73076e-05 0)
(5.03894e-06 -1.81099e-05 0)
(-7.02274e-06 4.69865e-06 0)
(-4.09807e-05 3.88597e-05 0)
(-0.000101756 7.79945e-05 0)
(-0.000191287 0.000118261 0)
(-0.000309699 0.000157509 0)
(-0.000456091 0.000194489 0)
(-0.000628846 0.000228511 0)
(-0.000825905 0.000259279 0)
(-0.001045 0.000286688 0)
(-0.0012838 0.000310781 0)
(-0.00153995 0.000331693 0)
(-0.00181119 0.000349599 0)
(-0.00209535 0.0003647 0)
(-0.00239042 0.000377208 0)
(-0.00269447 0.000387341 0)
(-0.00300575 0.00039531 0)
(-0.00332267 0.000401305 0)
(-0.00364374 0.000405503 0)
(-0.0039676 0.000408081 0)
(-0.00429303 0.000409197 0)
(-0.0046189 0.000408985 0)
(-0.00494418 0.000407562 0)
(-0.00526795 0.000405031 0)
(-0.00558932 0.000401482 0)
(-0.00590749 0.000396992 0)
(-0.00622172 0.000391623 0)
(-0.00653129 0.000385422 0)
(-0.00683554 0.000378422 0)
(-0.00713382 0.000370648 0)
(-0.00742552 0.000362124 0)
(-0.00771 0.000352859 0)
(-0.00798668 0.000342855 0)
(-0.00825494 0.000332106 0)
(-0.0085142 0.000320604 0)
(-0.00876384 0.000308341 0)
(-0.00900325 0.000295305 0)
(-0.00923181 0.000281483 0)
(-0.00944888 0.00026686 0)
(-0.00965383 0.000251423 0)
(-0.00984601 0.000235156 0)
(-0.0100248 0.00021805 0)
(-0.0101895 0.000200099 0)
(-0.0103395 0.000181301 0)
(-0.010474 0.000161658 0)
(-0.0105926 0.00014118 0)
(-0.0106945 0.000119878 0)
(-0.010779 9.77713e-05 0)
(-0.0108457 7.48879e-05 0)
(-0.0108939 5.12633e-05 0)
(-0.0109231 2.69429e-05 0)
(-0.0109327 1.98038e-06 0)
(-0.0109224 -2.35632e-05 0)
(-0.0108916 -4.96167e-05 0)
(-0.0108401 -7.60999e-05 0)
(-0.0107676 -0.000102922 0)
(-0.0106738 -0.000129982 0)
(-0.0105587 -0.000157171 0)
(-0.0104223 -0.000184368 0)
(-0.0102645 -0.000211446 0)
(-0.0100855 -0.000238269 0)
(-0.00988569 -0.000264692 0)
(-0.00966537 -0.000290565 0)
(-0.00942507 -0.000315729 0)
(-0.00916543 -0.000340021 0)
(-0.0088872 -0.000363274 0)
(-0.00859126 -0.000385318 0)
(-0.00827864 -0.000405983 0)
(-0.00795047 -0.000425098 0)
(-0.00760805 -0.000442494 0)
(-0.00725277 -0.000458008 0)
(-0.00688617 -0.000471476 0)
(-0.00650989 -0.000482747 0)
(-0.00612571 -0.000491673 0)
(-0.00573551 -0.000498115 0)
(-0.00534125 -0.000501945 0)
(-0.00494502 -0.000503048 0)
(-0.00454896 -0.00050132 0)
(-0.00415529 -0.000496672 0)
(-0.00376631 -0.00048903 0)
(-0.00338434 -0.000478334 0)
(-0.00301175 -0.000464543 0)
(-0.00265094 -0.000447634 0)
(-0.00230429 -0.000427602 0)
(-0.00197417 -0.000404466 0)
(-0.00166292 -0.000378267 0)
(-0.00137282 -0.00034908 0)
(-0.00110604 -0.000317019 0)
(-0.000864638 -0.000282248 0)
(-0.000650459 -0.000245006 0)
(-0.000465104 -0.000205638 0)
(-0.00030981 -0.000164652 0)
(-0.000185312 -0.000122795 0)
(-9.16549e-05 -8.11889e-05 0)
(-2.79173e-05 -4.15353e-05 0)
(8.11102e-06 -6.42724e-06 0)
(2.03968e-05 2.02293e-05 0)
(1.58259e-05 3.26685e-05 0)
(5.21152e-06 2.23334e-05 0)
(7.8575e-07 -1.74391e-05 0)
(-7.54333e-06 -5.77114e-06 0)
(-4.05201e-05 3.91841e-05 0)
(-0.000103523 0.000101793 0)
(-0.000200743 0.000172583 0)
(-0.000334013 0.000245751 0)
(-0.000503477 0.000317555 0)
(-0.000708094 0.000385719 0)
(-0.000945997 0.000448929 0)
(-0.00121481 0.000506496 0)
(-0.00151185 0.000558121 0)
(-0.00183427 0.00060379 0)
(-0.0021792 0.000643657 0)
(-0.00254383 0.000677973 0)
(-0.00292543 0.000707057 0)
(-0.0033214 0.000731274 0)
(-0.00372931 0.000750993 0)
(-0.00414688 0.000766574 0)
(-0.004572 0.000778367 0)
(-0.00500273 0.000786706 0)
(-0.00543726 0.000791905 0)
(-0.00587395 0.000794245 0)
(-0.0063113 0.000793978 0)
(-0.00674791 0.000791327 0)
(-0.00718251 0.000786492 0)
(-0.00761391 0.000779647 0)
(-0.00804101 0.000770934 0)
(-0.00846278 0.000760469 0)
(-0.00887826 0.000748345 0)
(-0.00928652 0.000734635 0)
(-0.00968667 0.000719396 0)
(-0.0100779 0.000702668 0)
(-0.0104592 0.000684474 0)
(-0.01083 0.000664821 0)
(-0.0111893 0.000643707 0)
(-0.0115363 0.000621124 0)
(-0.0118703 0.000597055 0)
(-0.0121904 0.000571484 0)
(-0.0124957 0.000544389 0)
(-0.0127854 0.000515747 0)
(-0.0130587 0.000485533 0)
(-0.0133147 0.000453728 0)
(-0.0135526 0.000420315 0)
(-0.0137714 0.000385289 0)
(-0.0139704 0.000348647 0)
(-0.0141486 0.000310398 0)
(-0.0143053 0.000270561 0)
(-0.0144395 0.000229162 0)
(-0.0145505 0.000186243 0)
(-0.0146375 0.00014186 0)
(-0.0146997 9.60855e-05 0)
(-0.0147365 4.90059e-05 0)
(-0.0147472 7.25341e-07 0)
(-0.0147311 -4.86352e-05 0)
(-0.0146879 -9.89393e-05 0)
(-0.0146171 -0.000150031 0)
(-0.0145182 -0.000201736 0)
(-0.0143912 -0.000253861 0)
(-0.0142357 -0.000306195 0)
(-0.0140519 -0.00035851 0)
(-0.0138398 -0.000410562 0)
(-0.0135997 -0.000462092 0)
(-0.013332 -0.000512823 0)
(-0.0130371 -0.00056247 0)
(-0.0127158 -0.000610732 0)
(-0.0123689 -0.0006573 0)
(-0.0119975 -0.000701858 0)
(-0.0116027 -0.000744086 0)
(-0.0111859 -0.000783661 0)
(-0.0107486 -0.000820259 0)
(-0.0102924 -0.000853564 0)
(-0.00981937 -0.000883261 0)
(-0.00933136 -0.000909048 0)
(-0.0088306 -0.000930632 0)
(-0.0083194 -0.000947737 0)
(-0.00780023 -0.000960102 0)
(-0.00727568 -0.000967487 0)
(-0.00674848 -0.000969674 0)
(-0.00622143 -0.000966469 0)
(-0.00569744 -0.000957709 0)
(-0.0051795 -0.000943257 0)
(-0.00467065 -0.000923008 0)
(-0.00417396 -0.000896892 0)
(-0.00369253 -0.000864876 0)
(-0.00322946 -0.000826967 0)
(-0.0027878 -0.000783222 0)
(-0.00237053 -0.000733746 0)
(-0.00198055 -0.000678717 0)
(-0.00162061 -0.00061839 0)
(-0.00129324 -0.000553133 0)
(-0.00100073 -0.00048346 0)
(-0.000744973 -0.000410087 0)
(-0.000527412 -0.000334028 0)
(-0.00034884 -0.000256715 0)
(-0.000209212 -0.000180199 0)
(-0.000107392 -0.000107427 0)
(-4.08456e-05 -4.26402e-05 0)
(-5.24197e-06 8.13693e-06 0)
(6.2325e-06 3.64565e-05 0)
(3.48646e-06 2.98815e-05 0)
(-1.82051e-06 -1.12387e-05 0)
(-2.25621e-05 2.46193e-05 0)
(-7.96552e-05 0.00010083 0)
(-0.000175346 0.000199395 0)
(-0.000312138 0.000308827 0)
(-0.000491501 0.000421468 0)
(-0.000713281 0.000532207 0)
(-0.00097614 0.000637763 0)
(-0.00127796 0.000736117 0)
(-0.00161608 0.000826113 0)
(-0.00198748 0.00090722 0)
(-0.00238895 0.000979305 0)
(-0.00281723 0.0010425 0)
(-0.00326907 0.00109713 0)
(-0.00374129 0.00114363 0)
(-0.00423086 0.0011825 0)
(-0.00473488 0.00121427 0)
(-0.00525065 0.00123947 0)
(-0.00577565 0.00125863 0)
(-0.00630751 0.00127225 0)
(-0.00684406 0.00128082 0)
(-0.00738327 0.00128475 0)
(-0.0079233 0.00128445 0)
(-0.00846243 0.00128027 0)
(-0.00899907 0.00127251 0)
(-0.00953174 0.00126145 0)
(-0.0100591 0.00124732 0)
(-0.0105798 0.00123031 0)
(-0.0110926 0.00121057 0)
(-0.0115964 0.00118821 0)
(-0.0120901 0.00116334 0)
(-0.0125727 0.00113602 0)
(-0.0130429 0.0011063 0)
(-0.0134999 0.00107418 0)
(-0.0139425 0.00103968 0)
(-0.0143698 0.00100279 0)
(-0.0147808 0.000963496 0)
(-0.0151744 0.000921764 0)
(-0.0155497 0.00087757 0)
(-0.0159054 0.000830882 0)
(-0.0162408 0.000781669 0)
(-0.0165546 0.000729905 0)
(-0.0168458 0.000675574 0)
(-0.0171135 0.000618667 0)
(-0.0173565 0.000559188 0)
(-0.0175738 0.000497153 0)
(-0.0177643 0.000432597 0)
(-0.0179272 0.000365569 0)
(-0.0180613 0.000296141 0)
(-0.0181659 0.000224406 0)
(-0.0182399 0.000150483 0)
(-0.0182826 7.4514e-05 0)
(-0.0182932 -3.3336e-06 0)
(-0.0182709 -8.28635e-05 0)
(-0.0182153 -0.000163854 0)
(-0.0181258 -0.000246054 0)
(-0.018002 -0.000329184 0)
(-0.0178437 -0.000412934 0)
(-0.0176506 -0.000496968 0)
(-0.0174229 -0.000580923 0)
(-0.0171606 -0.000664408 0)
(-0.0168641 -0.00074701 0)
(-0.0165338 -0.000828291 0)
(-0.0161706 -0.000907796 0)
(-0.0157751 -0.000985049 0)
(-0.0153485 -0.00105956 0)
(-0.014892 -0.00113083 0)
(-0.0144071 -0.00119835 0)
(-0.0138954 -0.00126162 0)
(-0.0133587 -0.00132011 0)
(-0.0127992 -0.00137333 0)
(-0.0122192 -0.00142079 0)
(-0.0116209 -0.001462 0)
(-0.0110072 -0.00149651 0)
(-0.0103807 -0.00152387 0)
(-0.00974458 -0.00154368 0)
(-0.00910185 -0.00155557 0)
(-0.00845582 -0.00155919 0)
(-0.00780988 -0.00155423 0)
(-0.00716754 -0.00154046 0)
(-0.00653237 -0.00151765 0)
(-0.00590803 -0.00148566 0)
(-0.0052982 -0.00144439 0)
(-0.00470657 -0.00139381 0)
(-0.00413683 -0.00133394 0)
(-0.00359259 -0.00126491 0)
(-0.00307738 -0.00118693 0)
(-0.00259459 -0.00110031 0)
(-0.00214741 -0.00100551 0)
(-0.00173878 -0.000903181 0)
(-0.00137128 -0.000794182 0)
(-0.00104707 -0.000679707 0)
(-0.000767738 -0.000561376 0)
(-0.000534146 -0.000441411 0)
(-0.000346265 -0.000322868 0)
(-0.000202946 -0.000209972 0)
(-0.000101655 -0.000108554 0)
(-3.81571e-05 -2.6573e-05 0)
(-6.44401e-06 2.51906e-05 0)
(1.1624e-06 3.12175e-05 0)
(-4.54284e-06 3.28599e-06 0)
(-3.83228e-05 7.52322e-05 0)
(-0.000121005 0.000191921 0)
(-0.000251058 0.000334167 0)
(-0.000429088 0.000488882 0)
(-0.000655768 0.000646996 0)
(-0.00093038 0.000802252 0)
(-0.00125118 0.000950462 0)
(-0.00161572 0.00108894 0)
(-0.00202102 0.00121607 0)
(-0.00246378 0.00133106 0)
(-0.00294048 0.0014336 0)
(-0.00344754 0.00152381 0)
(-0.00398134 0.00160206 0)
(-0.00453837 0.00166887 0)
(-0.00511523 0.0017249 0)
(-0.00570866 0.00177083 0)
(-0.00631561 0.00180737 0)
(-0.00693317 0.00183525 0)
(-0.00755864 0.00185513 0)
(-0.00818951 0.00186769 0)
(-0.00882345 0.00187351 0)
(-0.0094583 0.00187315 0)
(-0.010092 0.00186711 0)
(-0.0107228 0.00185582 0)
(-0.0113489 0.00183966 0)
(-0.0119686 0.00181898 0)
(-0.0125804 0.00179403 0)
(-0.0131829 0.00176504 0)
(-0.0137747 0.00173219 0)
(-0.0143544 0.00169562 0)
(-0.0149209 0.00165544 0)
(-0.0154728 0.00161171 0)
(-0.0160088 0.00156445 0)
(-0.0165279 0.0015137 0)
(-0.0170288 0.00145944 0)
(-0.0175102 0.00140167 0)
(-0.0179711 0.00134034 0)
(-0.0184101 0.00127543 0)
(-0.0188261 0.00120689 0)
(-0.0192179 0.0011347 0)
(-0.0195842 0.00105881 0)
(-0.0199239 0.000979226 0)
(-0.0202356 0.00089593 0)
(-0.0205183 0.000808935 0)
(-0.0207706 0.000718274 0)
(-0.0209915 0.000623999 0)
(-0.0211798 0.00052619 0)
(-0.0213344 0.000424955 0)
(-0.0214542 0.000320437 0)
(-0.0215381 0.000212809 0)
(-0.0215854 0.000102281 0)
(-0.021595 -1.09007e-05 0)
(-0.0215662 -0.000126453 0)
(-0.0214984 -0.000244052 0)
(-0.021391 -0.00036333 0)
(-0.0212436 -0.000483885 0)
(-0.0210559 -0.000605269 0)
(-0.0208277 -0.000726998 0)
(-0.0205591 -0.000848546 0)
(-0.0202502 -0.000969354 0)
(-0.0199016 -0.00108883 0)
(-0.0195138 -0.00120634 0)
(-0.0190875 -0.00132123 0)
(-0.0186239 -0.00143282 0)
(-0.0181241 -0.00154042 0)
(-0.0175896 -0.0016433 0)
(-0.0170221 -0.00174074 0)
(-0.0164236 -0.00183202 0)
(-0.0157962 -0.0019164 0)
(-0.0151423 -0.00199316 0)
(-0.0144646 -0.00206161 0)
(-0.0137658 -0.00212105 0)
(-0.013049 -0.00217084 0)
(-0.0123175 -0.00221036 0)
(-0.0115747 -0.00223902 0)
(-0.0108242 -0.00225628 0)
(-0.0100697 -0.00226168 0)
(-0.00931532 -0.00225479 0)
(-0.0085649 -0.00223526 0)
(-0.00782259 -0.00220281 0)
(-0.00709255 -0.00215722 0)
(-0.00637899 -0.00209838 0)
(-0.00568612 -0.00202628 0)
(-0.0050181 -0.00194098 0)
(-0.00437902 -0.0018427 0)
(-0.00377286 -0.00173178 0)
(-0.0032034 -0.00160872 0)
(-0.00267422 -0.00147424 0)
(-0.00218854 -0.0013293 0)
(-0.00174924 -0.00117519 0)
(-0.00135865 -0.00101365 0)
(-0.00101853 -0.000846969 0)
(-0.000729876 -0.000678193 0)
(-0.000492769 -0.000511395 0)
(-0.000306236 -0.000352017 0)
(-0.000168 -0.000207331 0)
(-7.42479e-05 -8.69429e-05 0)
(-2.02668e-05 -3.47891e-06 0)
(-1.30739e-06 2.54014e-05 0)
(-7.20168e-06 2.61455e-05 0)
(-5.39575e-05 0.000146495 0)
(-0.000162428 0.0003134 0)
(-0.000327267 0.000507104 0)
(-0.000546988 0.000713595 0)
(-0.000821229 0.000922828 0)
(-0.00114853 0.00112764 0)
(-0.00152658 0.00132309 0)
(-0.00195251 0.00150593 0)
(-0.002423 0.00167416 0)
(-0.00293445 0.00182666 0)
(-0.00348305 0.00196302 0)
(-0.00406492 0.0020833 0)
(-0.00467617 0.0021879 0)
(-0.00531298 0.00227745 0)
(-0.00597167 0.00235272 0)
(-0.00664867 0.00241456 0)
(-0.00734061 0.00246388 0)
(-0.0080443 0.00250157 0)
(-0.00875674 0.00252851 0)
(-0.00947513 0.00254555 0)
(-0.0101969 0.00255345 0)
(-0.0109195 0.00255294 0)
(-0.0116408 0.00254467 0)
(-0.0123586 0.00252923 0)
(-0.0130709 0.00250711 0)
(-0.0137759 0.00247876 0)
(-0.0144719 0.00244454 0)
(-0.0151571 0.00240476 0)
(-0.01583 0.00235967 0)
(-0.0164891 0.00230945 0)
(-0.0171328 0.00225426 0)
(-0.0177598 0.00219417 0)
(-0.0183687 0.00212926 0)
(-0.018958 0.00205955 0)
(-0.0195264 0.00198504 0)
(-0.0200725 0.00190573 0)
(-0.0205949 0.00182158 0)
(-0.0210924 0.00173255 0)
(-0.0215634 0.0016386 0)
(-0.0220068 0.0015397 0)
(-0.0224209 0.00143581 0)
(-0.0228046 0.00132692 0)
(-0.0231564 0.00121304 0)
(-0.023475 0.00109418 0)
(-0.0237591 0.000970389 0)
(-0.0240073 0.000841757 0)
(-0.0242183 0.000708395 0)
(-0.024391 0.000570457 0)
(-0.0245241 0.000428139 0)
(-0.0246166 0.000281683 0)
(-0.0246674 0.000131375 0)
(-0.0246754 -2.24469e-05 0)
(-0.02464 -0.000179397 0)
(-0.0245604 -0.000339032 0)
(-0.0244359 -0.000500859 0)
(-0.0242662 -0.000664329 0)
(-0.0240509 -0.000828838 0)
(-0.0237899 -0.000993732 0)
(-0.0234832 -0.0011583 0)
(-0.0231312 -0.0013218 0)
(-0.0227342 -0.00148342 0)
(-0.0222931 -0.00164232 0)
(-0.0218087 -0.00179762 0)
(-0.0212822 -0.00194841 0)
(-0.0207149 -0.00209375 0)
(-0.0201087 -0.00223268 0)
(-0.0194653 -0.00236423 0)
(-0.018787 -0.00248743 0)
(-0.0180762 -0.0026013 0)
(-0.0173356 -0.00270489 0)
(-0.0165682 -0.00279726 0)
(-0.0157772 -0.00287748 0)
(-0.0149659 -0.00294471 0)
(-0.014138 -0.0029981 0)
(-0.0132973 -0.00303689 0)
(-0.012448 -0.00306037 0)
(-0.0115941 -0.00306791 0)
(-0.0107401 -0.00305898 0)
(-0.00989036 -0.00303309 0)
(-0.0090495 -0.0029899 0)
(-0.00822213 -0.00292916 0)
(-0.0074129 -0.00285073 0)
(-0.00662644 -0.00275461 0)
(-0.00586734 -0.00264095 0)
(-0.00514009 -0.00251007 0)
(-0.00444903 -0.00236247 0)
(-0.0037983 -0.00219888 0)
(-0.00319175 -0.00202032 0)
(-0.00263291 -0.00182811 0)
(-0.00212486 -0.00162403 0)
(-0.00167015 -0.00141037 0)
(-0.00127072 -0.00119011 0)
(-0.000927737 -0.000967136 0)
(-0.000641521 -0.000746486 0)
(-0.000411415 -0.000534706 0)
(-0.000235592 -0.0003403 0)
(-0.000110881 -0.000174197 0)
(-3.41133e-05 -5.03638e-05 0)
(-3.70008e-06 1.22765e-05 0)
(-9.70769e-06 5.69735e-05 0)
(-6.90017e-05 0.00023817 0)
(-0.000202738 0.000465116 0)
(-0.000401921 0.000718135 0)
(-0.000662901 0.000982851 0)
(-0.000984183 0.00124861 0)
(-0.00136343 0.00150764 0)
(-0.00179765 0.00175447 0)
(-0.00228346 0.00198539 0)
(-0.00281715 0.00219805 0)
(-0.00339478 0.00239113 0)
(-0.00401226 0.00256409 0)
(-0.00466543 0.00271695 0)
(-0.00535015 0.00285015 0)
(-0.00606234 0.0029644 0)
(-0.00679806 0.0030606 0)
(-0.00755348 0.00313978 0)
(-0.00832499 0.00320301 0)
(-0.00910912 0.00325139 0)
(-0.00990265 0.00328599 0)
(-0.0107025 0.00330784 0)
(-0.0115059 0.00331791 0)
(-0.0123101 0.00331708 0)
(-0.0131126 0.00330619 0)
(-0.0139111 0.00328596 0)
(-0.0147033 0.00325703 0)
(-0.0154873 0.00321995 0)
(-0.0162611 0.00317519 0)
(-0.0170228 0.00312315 0)
(-0.0177707 0.00306415 0)
(-0.018503 0.00299843 0)
(-0.0192181 0.00292619 0)
(-0.0199144 0.00284756 0)
(-0.0205904 0.00276261 0)
(-0.0212444 0.00267141 0)
(-0.021875 0.00257396 0)
(-0.0224806 0.00247025 0)
(-0.0230598 0.00236026 0)
(-0.0236109 0.00224395 0)
(-0.0241325 0.00212127 0)
(-0.0246231 0.00199219 0)
(-0.0250811 0.00185668 0)
(-0.0255051 0.00171474 0)
(-0.0258936 0.00156636 0)
(-0.0262449 0.0014116 0)
(-0.0265578 0.00125053 0)
(-0.0268308 0.00108325 0)
(-0.0270624 0.000909928 0)
(-0.0272514 0.000730767 0)
(-0.0273964 0.000546026 0)
(-0.0274963 0.000356023 0)
(-0.0275498 0.000161133 0)
(-0.0275561 -3.82049e-05 0)
(-0.0275141 -0.000241488 0)
(-0.0274231 -0.000448143 0)
(-0.0272825 -0.000657532 0)
(-0.0270918 -0.000868945 0)
(-0.0268506 -0.00108161 0)
(-0.026559 -0.00129467 0)
(-0.0262169 -0.00150723 0)
(-0.0258247 -0.00171831 0)
(-0.0253829 -0.0019269 0)
(-0.0248923 -0.00213189 0)
(-0.024354 -0.00233218 0)
(-0.0237692 -0.00252659 0)
(-0.0231396 -0.00271392 0)
(-0.0224669 -0.00289294 0)
(-0.0217534 -0.00306242 0)
(-0.0210014 -0.00322111 0)
(-0.0202135 -0.00336776 0)
(-0.0193929 -0.00350116 0)
(-0.0185427 -0.00362011 0)
(-0.0176665 -0.00372344 0)
(-0.0167679 -0.00381006 0)
(-0.0158511 -0.00387892 0)
(-0.0149201 -0.00392903 0)
(-0.0139795 -0.00395952 0)
(-0.0130337 -0.0039696 0)
(-0.0120876 -0.00395856 0)
(-0.011146 -0.00392586 0)
(-0.0102139 -0.00387105 0)
(-0.00929633 -0.00379384 0)
(-0.00839826 -0.0036941 0)
(-0.00752473 -0.00357186 0)
(-0.00668071 -0.00342736 0)
(-0.00587102 -0.00326103 0)
(-0.00510032 -0.00307359 0)
(-0.00437305 -0.00286601 0)
(-0.00369333 -0.00263964 0)
(-0.00306492 -0.0023962 0)
(-0.00249112 -0.00213796 0)
(-0.00197472 -0.00186779 0)
(-0.00151784 -0.00158937 0)
(-0.00112191 -0.00130737 0)
(-0.000787559 -0.00102771 0)
(-0.000514558 -0.000757904 0)
(-0.000301653 -0.000507462 0)
(-0.000146435 -0.000288309 0)
(-4.73531e-05 -0.000115294 0)
(-5.91166e-06 -7.91459e-06 0)
(-1.20191e-05 9.53447e-05 0)
(-8.32181e-05 0.000349507 0)
(-0.000241319 0.000646266 0)
(-0.000473824 0.000966496 0)
(-0.000775028 0.00129584 0)
(-0.00114227 0.00162342 0)
(-0.00157225 0.00194112 0)
(-0.0020612 0.00224314 0)
(-0.00260517 0.00252547 0)
(-0.00320002 0.00278551 0)
(-0.00384142 0.0030218 0)
(-0.00452496 0.00323369 0)
(-0.00524624 0.00342122 0)
(-0.00600084 0.00358485 0)
(-0.00678448 0.00372539 0)
(-0.00759297 0.00384388 0)
(-0.00842227 0.00394151 0)
(-0.00926852 0.00401954 0)
(-0.0101281 0.00407926 0)
(-0.0109975 0.00412194 0)
(-0.0118735 0.0041488 0)
(-0.012753 0.00416101 0)
(-0.0136331 0.00415964 0)
(-0.0145112 0.00414568 0)
(-0.0153847 0.00412 0)
(-0.0162512 0.0040834 0)
(-0.0171086 0.00403655 0)
(-0.0179546 0.00398003 0)
(-0.0187872 0.00391433 0)
(-0.0196045 0.00383985 0)
(-0.0204047 0.00375689 0)
(-0.0211859 0.0036657 0)
(-0.0219464 0.00356645 0)
(-0.0226844 0.00345926 0)
(-0.0233983 0.00334418 0)
(-0.0240864 0.00322127 0)
(-0.0247471 0.0030905 0)
(-0.0253786 0.00295186 0)
(-0.0259793 0.00280531 0)
(-0.0265475 0.00265082 0)
(-0.0270818 0.00248834 0)
(-0.0275802 0.00231785 0)
(-0.0280414 0.00213935 0)
(-0.0284635 0.00195288 0)
(-0.0288451 0.00175848 0)
(-0.0291845 0.00155626 0)
(-0.0294802 0.00134636 0)
(-0.0297307 0.001129 0)
(-0.0299346 0.000904438 0)
(-0.0300904 0.000673002 0)
(-0.0301969 0.000435093 0)
(-0.0302528 0.000191185 0)
(-0.0302572 -5.81718e-05 0)
(-0.0302089 -0.000312344 0)
(-0.0301072 -0.000570617 0)
(-0.0299515 -0.000832193 0)
(-0.0297411 -0.00109619 0)
(-0.0294759 -0.00136164 0)
(-0.0291557 -0.00162748 0)
(-0.0287806 -0.00189261 0)
(-0.028351 -0.0021558 0)
(-0.0278675 -0.00241578 0)
(-0.0273309 -0.00267122 0)
(-0.0267425 -0.00292072 0)
(-0.0261036 -0.00316283 0)
(-0.0254159 -0.00339606 0)
(-0.0246816 -0.0036189 0)
(-0.0239028 -0.00382982 0)
(-0.0230823 -0.00402728 0)
(-0.0222229 -0.00420975 0)
(-0.0213279 -0.00437572 0)
(-0.0204008 -0.00452371 0)
(-0.0194454 -0.00465232 0)
(-0.0184657 -0.00476016 0)
(-0.0174661 -0.00484596 0)
(-0.0164511 -0.00490854 0)
(-0.0154255 -0.0049468 0)
(-0.0143942 -0.00495979 0)
(-0.0133624 -0.00494669 0)
(-0.0123352 -0.00490681 0)
(-0.011318 -0.00483964 0)
(-0.0103161 -0.00474487 0)
(-0.00933493 -0.00462235 0)
(-0.00837987 -0.00447218 0)
(-0.00745616 -0.00429469 0)
(-0.00656895 -0.00409048 0)
(-0.00572318 -0.00386046 0)
(-0.00492354 -0.0036059 0)
(-0.00417441 -0.00332846 0)
(-0.00347979 -0.00303033 0)
(-0.0028432 -0.00271423 0)
(-0.00226764 -0.00238365 0)
(-0.0017555 -0.0020429 0)
(-0.00130849 -0.00169739 0)
(-0.000927619 -0.00135384 0)
(-0.000613149 -0.00102056 0)
(-0.000364467 -0.000707872 0)
(-0.000179966 -0.000428393 0)
(-5.96599e-05 -0.00019748 0)
(-7.9047e-06 -3.4705e-05 0)
(-1.41278e-05 0.000140781 0)
(-9.65387e-05 0.000479543 0)
(-0.000277834 0.000855694 0)
(-0.000542328 0.00125095 0)
(-0.000882351 0.00165127 0)
(-0.00129407 0.00204588 0)
(-0.0017732 0.00242658 0)
(-0.00231518 0.00278742 0)
(-0.00291543 0.00312423 0)
(-0.0035693 0.0034343 0)
(-0.00427207 0.00371609 0)
(-0.00501901 0.00396894 0)
(-0.00580541 0.00419286 0)
(-0.00662664 0.00438842 0)
(-0.00747817 0.00455653 0)
(-0.0083556 0.00469839 0)
(-0.0092547 0.00481534 0)
(-0.0101714 0.00490884 0)
(-0.0111019 0.00498036 0)
(-0.0120425 0.00503138 0)
(-0.0129898 0.00506332 0)
(-0.0139406 0.00507755 0)
(-0.0148917 0.00507532 0)
(-0.0158404 0.0050578 0)
(-0.0167838 0.00502602 0)
(-0.0177196 0.0049809 0)
(-0.0186452 0.00492327 0)
(-0.0195585 0.00485381 0)
(-0.0204571 0.00477312 0)
(-0.021339 0.00468166 0)
(-0.0222023 0.00457982 0)
(-0.0230449 0.00446789 0)
(-0.0238651 0.00434609 0)
(-0.0246608 0.00421457 0)
(-0.0254303 0.00407342 0)
(-0.0261719 0.00392269 0)
(-0.0268836 0.00376238 0)
(-0.0275637 0.00359248 0)
(-0.0282105 0.00341295 0)
(-0.0288221 0.00322376 0)
(-0.0293968 0.00302489 0)
(-0.0299329 0.0028163 0)
(-0.0304286 0.00259803 0)
(-0.0308821 0.0023701 0)
(-0.0312917 0.00213259 0)
(-0.0316558 0.00188565 0)
(-0.0319727 0.00162946 0)
(-0.0322408 0.00136428 0)
(-0.0324585 0.00109044 0)
(-0.0326244 0.000808339 0)
(-0.0327371 0.000518481 0)
(-0.0327954 0.000221439 0)
(-0.032798 -8.21119e-05 0)
(-0.032744 -0.000391403 0)
(-0.0326325 -0.000705563 0)
(-0.0324627 -0.00102362 0)
(-0.0322341 -0.00134451 0)
(-0.0319465 -0.00166705 0)
(-0.0315997 -0.00198998 0)
(-0.0311939 -0.00231193 0)
(-0.0307295 -0.00263143 0)
(-0.0302071 -0.00294696 0)
(-0.0296277 -0.00325689 0)
(-0.0289925 -0.00355953 0)
(-0.0283031 -0.00385314 0)
(-0.0275613 -0.00413593 0)
(-0.0267693 -0.00440608 0)
(-0.0259296 -0.00466173 0)
(-0.025045 -0.00490104 0)
(-0.0241187 -0.00512216 0)
(-0.0231541 -0.00532329 0)
(-0.022155 -0.00550266 0)
(-0.0211254 -0.00565856 0)
(-0.0200697 -0.00578935 0)
(-0.0189926 -0.00589352 0)
(-0.0178989 -0.00596964 0)
(-0.0167936 -0.00601643 0)
(-0.015682 -0.00603275 0)
(-0.0145696 -0.00601764 0)
(-0.013462 -0.00597031 0)
(-0.0123647 -0.00589018 0)
(-0.0112835 -0.00577689 0)
(-0.0102241 -0.00563033 0)
(-0.00919212 -0.00545064 0)
(-0.00819316 -0.00523829 0)
(-0.00723262 -0.00499403 0)
(-0.00631571 -0.00471901 0)
(-0.00544739 -0.00441479 0)
(-0.00463227 -0.00408339 0)
(-0.00387456 -0.00372741 0)
(-0.00317803 -0.0033501 0)
(-0.00254593 -0.00295548 0)
(-0.00198092 -0.0025485 0)
(-0.00148504 -0.00213522 0)
(-0.00105969 -0.00172306 0)
(-0.000705687 -0.001321 0)
(-0.000423053 -0.000939963 0)
(-0.000210969 -0.00059303 0)
(-7.08791e-05 -0.000295776 0)
(-9.66836e-06 -6.75212e-05 0)
(-1.6061e-05 0.000192783 0)
(-0.000108964 0.00062725 0)
(-0.000312194 0.00109205 0)
(-0.000607149 0.00156996 0)
(-0.000984334 0.00204755 0)
(-0.00143878 0.00251432 0)
(-0.00196526 0.00296224 0)
(-0.00255837 0.00338538 0)
(-0.00321287 0.00377959 0)
(-0.00392357 0.00414215 0)
(-0.00468533 0.00447152 0)
(-0.00549308 0.00476706 0)
(-0.00634181 0.00502888 0)
(-0.00722664 0.00525762 0)
(-0.00814281 0.00545435 0)
(-0.00908572 0.00562041 0)
(-0.010051 0.00575734 0)
(-0.0110343 0.00586677 0)
(-0.0120317 0.00595039 0)
(-0.0130394 0.00600987 0)
(-0.0140538 0.00604686 0)
(-0.0150714 0.0060629 0)
(-0.0160891 0.00605944 0)
(-0.0171039 0.00603782 0)
(-0.0181129 0.00599924 0)
(-0.0191134 0.00594479 0)
(-0.0201028 0.00587539 0)
(-0.0210789 0.00579187 0)
(-0.0220391 0.00569491 0)
(-0.0229814 0.00558507 0)
(-0.0239036 0.00546281 0)
(-0.0248036 0.00532847 0)
(-0.0256794 0.00518231 0)
(-0.026529 0.00502453 0)
(-0.0273504 0.00485525 0)
(-0.0281419 0.00467452 0)
(-0.0289013 0.00448236 0)
(-0.0296269 0.00427877 0)
(-0.0303168 0.00406373 0)
(-0.030969 0.00383719 0)
(-0.0315818 0.00359915 0)
(-0.0321531 0.00334958 0)
(-0.0326812 0.00308853 0)
(-0.0331641 0.00281603 0)
(-0.0336002 0.00253221 0)
(-0.0339876 0.00223723 0)
(-0.0343245 0.00193133 0)
(-0.0346093 0.00161482 0)
(-0.0348404 0.0012881 0)
(-0.035016 0.000951659 0)
(-0.0351349 0.000606089 0)
(-0.0351957 0.000252081 0)
(-0.035197 -0.00010956 0)
(-0.0351379 -0.000477917 0)
(-0.0350175 -0.000851955 0)
(-0.0348349 -0.00123052 0)
(-0.0345896 -0.00161234 0)
(-0.0342813 -0.00199602 0)
(-0.03391 -0.00238006 0)
(-0.0334756 -0.00276283 0)
(-0.0329788 -0.00314261 0)
(-0.0324202 -0.00351758 0)
(-0.0318007 -0.00388582 0)
(-0.0311218 -0.00424533 0)
(-0.0303851 -0.00459405 0)
(-0.0295925 -0.00492986 0)