/*--------------------------------*- C++ -*----------------------------------*\
  =========                 |
  \\      /  F ield         | OpenFOAM: The Open Source CFD Toolbox
   \\    /   O peration     | Website:  https://openfoam.org
    \\  /    A nd           | Version:  7
     \\/     M anipulation  |
\*---------------------------------------------------------------------------*/
FoamFile
{
    version     2.0;
    format      ascii;
    class       volVectorField;
    location    "30.0003";
    object      U;
}
// * * * * * * * * * * * * * * * * * * * * * * * * * * * * * * * * * * * * * //

dimensions      [0 1 -1 0 0 0 0];

internalField   nonuniform List<vector> 
18750
(
(-0.0346625 0.0401341 -6.52601e-21)
(-0.122901 0.0500585 2.2929e-21)
(-0.219163 0.0478223 2.55241e-20)
(-0.303564 0.0460275 5.97656e-21)
(-0.387367 0.0444123 -1.47786e-20)
(-0.466011 0.0428739 -3.63592e-20)
(-0.542612 0.0413106 3.80632e-20)
(-0.615268 0.0396695 2.54227e-20)
(-0.685436 0.037919 -1.91803e-20)
(-0.752132 0.036059 -5.22683e-20)
(-0.816259 0.0340842 2.00734e-19)
(-0.877085 0.0319684 -1.6693e-19)
(-0.935014 0.0296765 1.0016e-19)
(-0.989299 0.0272464 -1.98293e-19)
(-1.04019 0.0248478 4.62246e-20)
(-0.0364316 0.0834325 3.72497e-21)
(-0.12436 0.10388 7.31137e-21)
(-0.219461 0.0985645 4.64852e-21)
(-0.302738 0.0942661 4.13024e-20)
(-0.385389 0.0904177 8.60897e-20)
(-0.462839 0.0868598 1.15224e-19)
(-0.538144 0.0833624 -9.94779e-20)
(-0.60937 0.0798423 1.65168e-19)
(-0.677926 0.076227 1.55665e-19)
(-0.742807 0.0725323 -5.12306e-20)
(-0.804909 0.0687502 -2.1314e-19)
(-0.863503 0.0648525 9.79387e-21)
(-0.918947 0.0607858 4.87128e-20)
(-0.970389 0.0566367 1.2894e-19)
(-1.01799 0.0527074 -1.99505e-19)
(-0.0396386 0.125566 1.3463e-20)
(-0.127004 0.156705 2.1809e-20)
(-0.220009 0.148501 -6.67741e-20)
(-0.301269 0.141768 5.22263e-21)
(-0.381864 0.135738 -1.60115e-19)
(-0.457203 0.130184 5.40643e-20)
(-0.530236 0.124757 -1.53863e-19)
(-0.598983 0.119344 -1.64895e-20)
(-0.664771 0.113837 -1.18351e-19)
(-0.726566 0.108266 3.63017e-19)
(-0.785256 0.102628 4.86487e-19)
(-0.840121 0.0969126 4.33244e-19)
(-0.89146 0.0910651 2.56904e-19)
(-0.938273 0.0852058 1.74939e-19)
(-0.980601 0.0797062 -3.27995e-19)
(-0.044168 0.165883 -7.64123e-20)
(-0.130752 0.207969 9.0933e-20)
(-0.220787 0.197182 -6.82015e-20)
(-0.299183 0.188133 -1.41552e-19)
(-0.376881 0.180013 2.45042e-19)
(-0.44927 0.172511 -2.27626e-19)
(-0.519157 0.165172 3.39224e-19)
(-0.584509 0.157863 -2.90361e-19)
(-0.646554 0.150441 2.0793e-19)
(-0.704227 0.142955 -5.10293e-19)
(-0.758412 0.13542 -7.39141e-19)
(-0.808426 0.127864 4.25083e-20)
(-0.854527 0.120258 -1.41738e-19)
(-0.895567 0.112739 -3.13245e-19)
(-0.931445 0.105683 1.20408e-18)
(-0.0498583 0.203769 -6.01796e-20)
(-0.135489 0.257121 1.34966e-19)
(-0.221758 0.24418 2.99032e-20)
(-0.296511 0.232993 1.11888e-19)
(-0.370556 0.222915 -1.49834e-19)
(-0.439258 0.213541 6.54382e-20)
(-0.505251 0.204331 8.13731e-19)
(-0.566458 0.195139 1.27232e-19)
(-0.623995 0.185795 2.30415e-19)
(-0.676779 0.176372 -8.23932e-20)
(-0.725699 0.166912 6.77799e-20)
(-0.770144 0.15751 -2.82703e-20)
(-0.810378 0.148182 -8.15985e-19)
(-0.845143 0.139077 -4.60559e-19)
(-0.874186 0.13052 -1.36625e-18)
(-0.0565331 0.238692 1.357e-19)
(-0.14108 0.303632 4.63786e-20)
(-0.222863 0.2891 -6.45545e-20)
(-0.293276 0.276019 -4.80223e-20)
(-0.363018 0.264158 5.07614e-20)
(-0.427414 0.253022 -6.94964e-19)
(-0.488906 0.242009 -8.6027e-20)
(-0.545389 0.23097 4.43936e-20)
(-0.597874 0.219724 -3.35951e-19)
(-0.645267 0.20837 -4.6871e-19)
(-0.688472 0.196988 3.44123e-19)
(-0.72699 0.185757 -3.42837e-19)
(-0.761154 0.174765 1.073e-18)
(-0.789653 0.164177 -8.47065e-19)
(-0.812083 0.154231 1.86698e-18)
(-0.0639849 0.270112 -1.22745e-19)
(-0.14734 0.34699 -2.07788e-19)
(-0.224001 0.331605 8.25438e-20)
(-0.289493 0.31693 6.26604e-19)
(-0.354399 0.303499 6.35863e-19)
(-0.41399 0.290746 -2.23404e-19)
(-0.470517 0.27803 1.15671e-19)
(-0.521864 0.265214 7.52424e-20)
(-0.568947 0.252118 7.33538e-19)
(-0.61068 0.238875 1.01948e-18)
(-0.647985 0.225614 -4.9764e-19)
(-0.680502 0.212606 -9.68129e-19)
(-0.708691 0.200033 -1.81282e-18)
(-0.731266 0.188097 3.14375e-19)
(-0.747665 0.176935 -2.28795e-18)
(-0.0719586 0.297472 -1.0926e-19)
(-0.154058 0.386779 -1.28471e-19)
(-0.225049 0.37142 -9.21028e-19)
(-0.285169 0.355497 3.29525e-19)
(-0.344823 0.340743 -3.80493e-19)
(-0.399235 0.326555 2.60474e-19)
(-0.450464 0.312274 2.8294e-19)
(-0.496412 0.297783 -1.23031e-18)
(-0.537913 0.282926 -8.24506e-19)
(-0.573902 0.267879 -1.40569e-18)
(-0.605319 0.252821 -2.33447e-19)
(-0.631951 0.238126 1.02929e-18)
(-0.654433 0.224082 4.06326e-18)
(-0.671576 0.210957 -6.28341e-19)
(-0.682661 0.198792 1.1227e-18)
(-0.0801334 0.320253 5.86345e-19)
(-0.160977 0.422628 2.35395e-19)
(-0.22588 0.408333 1.01324e-18)
(-0.280302 0.391544 -7.39299e-19)
(-0.334403 0.375743 3.51563e-19)
(-0.383373 0.360336 -5.87244e-19)
(-0.429093 0.344659 -1.35621e-18)
(-0.469503 0.328634 1.21041e-18)
(-0.505372 0.31214 1.46135e-19)
(-0.535672 0.29541 2.10344e-18)
(-0.561344 0.278681 -6.91154e-19)
(-0.582319 0.26242 -3.15058e-18)
(-0.59942 0.247034 -1.93491e-18)
(-0.611628 0.232886 2.03087e-19)
(-0.61808 0.219943 -9.5108e-19)
(-0.0881368 0.338012 -4.88484e-19)
(-0.167798 0.454238 -2.77218e-19)
(-0.226355 0.442182 3.55595e-19)
(-0.274884 0.424941 5.53844e-20)
(-0.323233 0.408391 -1.37975e-19)
(-0.366604 0.392016 -1.60473e-19)
(-0.406706 0.375151 6.18912e-19)
(-0.441542 0.357764 -7.43586e-19)
(-0.471824 0.339789 7.35605e-19)
(-0.496576 0.321531 9.29778e-19)
(-0.51673 0.303286 -1.65706e-18)
(-0.532325 0.285609 3.15411e-18)
(-0.544358 0.269021 3.6982e-19)
(-0.552033 0.254009 5.11299e-19)
(-0.554389 0.240506 1.17999e-18)
(-0.0955433 0.350349 9.18791e-19)
(-0.174177 0.481327 -3.00931e-19)
(-0.226325 0.472853 -1.33005e-18)
(-0.268895 0.455595 5.26439e-19)
(-0.311391 0.438622 -3.03766e-19)
(-0.349092 0.421558 3.55571e-19)
(-0.383558 0.403738 2.65772e-18)
(-0.412857 0.385189 1.28891e-18)
(-0.437663 0.365918 8.60749e-19)
(-0.457061 0.34631 -2.89335e-18)
(-0.471956 0.326731 3.18265e-18)
(-0.482453 0.307809 1.17651e-18)
(-0.489673 0.290163 -1.90212e-18)
(-0.49307 0.274418 2.31162e-18)
(-0.491687 0.260528 -7.95302e-20)
(-0.101876 0.356959 1.89076e-19)
(-0.179771 0.503781 4.65637e-20)
(-0.225651 0.500245 -9.1733e-20)
(-0.262316 0.483455 -9.4052e-19)
(-0.298929 0.466404 1.87862e-18)
(-0.330975 0.448955 -9.58713e-19)
(-0.359857 0.430439 -2.82332e-18)
(-0.383722 0.410957 8.77243e-19)
(-0.4032 0.390594 -1.39657e-18)
(-0.417453 0.369829 2.178e-18)
(-0.42735 0.349109 -3.94988e-18)
(-0.433019 0.329124 3.13059e-19)
(-0.435623 0.31056 1.69969e-18)
(-0.434845 0.294169 -3.5812e-18)
(-0.429908 0.280009 -8.43838e-19)
(-0.106537 0.35748 -6.08573e-19)
(-0.184192 0.521406 1.73871e-19)
(-0.224195 0.524258 5.37117e-19)
(-0.255101 0.508492 -2.51056e-20)
(-0.285888 0.491741 -2.5657e-18)
(-0.31236 0.474224 2.45661e-19)
(-0.335768 0.455283 9.19216e-19)
(-0.354336 0.435108 -2.51211e-18)
(-0.368661 0.413875 1.90297e-18)
(-0.377976 0.392157 -1.75832e-18)
(-0.383114 0.370489 4.83512e-18)
(-0.384198 0.349629 -2.01939e-18)
(-0.382342 0.33029 2.47509e-18)
(-0.377367 0.313315 5.03656e-18)
(-0.368862 0.298906 2.1858e-18)
(-0.109062 0.352245 -2.42271e-19)
(-0.187123 0.534244 -6.0114e-21)
(-0.221872 0.544747 -2.02615e-20)
(-0.247209 0.53073 -6.21518e-20)
(-0.272282 0.514662 -1.25821e-18)
(-0.293331 0.497397 -5.6014e-19)
(-0.311422 0.478315 9.04991e-19)
(-0.324867 0.457711 5.52866e-19)
(-0.334221 0.435839 -3.21908e-18)
(-0.338792 0.413368 -1.82536e-19)
(-0.339369 0.390939 -9.48777e-19)
(-0.336072 0.369382 1.94806e-18)
(-0.329919 0.349428 -2.73252e-18)
(-0.320668 0.331896 -3.84791e-19)
(-0.308358 0.317048 -2.47255e-18)
(-0.109128 0.341391 1.0836e-18)
(-0.188179 0.541879 -9.65849e-19)
(-0.218524 0.561652 -1.30575e-18)
(-0.23855 0.550197 2.32218e-18)
(-0.258143 0.53522 2.04502e-18)
(-0.273959 0.518523 2.62492e-18)
(-0.286921 0.499579 1.13373e-19)
(-0.295423 0.478801 1.81072e-18)
(-0.299995 0.456526 2.4404e-18)
(-0.300002 0.433509 3.66901e-18)
(-0.296175 0.410493 -1.70822e-18)
(-0.288644 0.3884 3.61573e-18)
(-0.27836 0.36799 -1.71904e-20)
(-0.264879 0.349957 -1.8435e-18)
(-0.248007 0.334433 -4.60686e-18)
(-0.106523 0.324895 -6.88283e-19)
(-0.187055 0.544058 1.06713e-18)
(-0.214023 0.574993 7.10292e-19)
(-0.229104 0.566975 -2.19306e-18)
(-0.243465 0.553484 -1.02047e-18)
(-0.2543 0.53764 -1.87692e-19)
(-0.262348 0.519127 -1.39244e-18)
(-0.266111 0.498448 -2.39444e-18)
(-0.266088 0.476008 -4.11172e-18)
(-0.261691 0.452639 -1.79629e-18)
(-0.253583 0.429203 2.53955e-18)
(-0.241881 0.406701 -5.32661e-18)
(-0.22761 0.385971 1.88541e-19)
(-0.210215 0.367558 3.42313e-18)
(-0.187613 0.351266 4.94451e-18)
(-0.101079 0.302773 -1.66144e-18)
(-0.183554 0.540651 1.28541e-18)
(-0.208197 0.584669 -2.21191e-18)
(-0.218889 0.581173 -1.06479e-18)
(-0.228315 0.56954 -5.7959e-20)
(-0.234412 0.554817 1.46536e-18)
(-0.237782 0.537008 2.37813e-18)
(-0.236993 0.516665 7.92051e-19)
(-0.232548 0.494275 1.15847e-18)
(-0.223895 0.470757 -3.28665e-18)
(-0.211617 0.447067 9.52122e-20)
(-0.195774 0.424271 -2.56616e-18)
(-0.177471 0.403293 -1.90339e-18)
(-0.1567 0.384596 -5.47994e-18)
(-0.127741 0.368094 -6.64984e-20)
(-0.0927586 0.275238 1.46226e-18)
(-0.177576 0.531522 2.31796e-19)
(-0.200954 0.590512 3.4126e-19)
(-0.207875 0.592758 2.63776e-18)
(-0.21274 0.583454 1.116e-18)
(-0.214377 0.570135 -1.36487e-18)
(-0.213305 0.553295 1.07981e-18)
(-0.208187 0.533515 -6.30774e-19)
(-0.199456 0.511368 -1.27243e-18)
(-0.186666 0.487894 1.4415e-18)
(-0.170319 0.464119 -4.92281e-18)
(-0.150352 0.441143 -2.0838e-19)
(-0.127917 0.419987 -2.82821e-18)
(-0.104112 0.401055 4.38042e-18)
(-0.0686255 0.385113 4.08434e-19)
(-0.0817783 0.242736 -5.6158e-19)
(-0.169131 0.516444 -1.56827e-18)
(-0.19229 0.59225 4.09643e-19)
(-0.196075 0.601646 -3.04591e-18)
(-0.196776 0.595238 -2.07432e-18)
(-0.194243 0.583612 -1.17264e-18)
(-0.188992 0.567959 -2.05696e-18)
(-0.179745 0.548966 1.99754e-18)
(-0.1669 0.527299 2.82949e-18)
(-0.150057 0.504059 5.55808e-18)
(-0.129727 0.480355 -2.58222e-19)
(-0.105679 0.457323 6.33854e-18)
(-0.0787959 0.436013 2.50303e-18)
(-0.0526427 0.416954 1.97674e-18)
(-0.00937121 0.402549 -4.37318e-18)
(-0.0687522 0.205944 9.68043e-19)
(-0.158352 0.495053 2.38779e-18)
(-0.182246 0.589434 1.63069e-18)
(-0.183548 0.607673 2.12372e-18)
(-0.180484 0.604888 5.09205e-21)
(-0.174094 0.595239 8.3464e-19)
(-0.164897 0.580995 2.16342e-20)
(-0.151758 0.56301 -1.5421e-18)
(-0.134939 0.542021 2.42735e-18)
(-0.114125 0.51919 -8.50335e-18)
(-0.0898828 0.495746 2.50281e-18)
(-0.061888 0.472808 -1.65932e-18)
(-0.0299255 0.45141 3.27111e-19)
(-0.00248781 0.432161 -2.50356e-18)
(0.0502927 0.420388 -2.83555e-18)
(-0.0548635 0.165832 -1.57937e-18)
(-0.145512 0.466813 2.09806e-18)
(-0.170868 0.58141 -5.21318e-19)
(-0.170365 0.610542 -9.01694e-19)
(-0.163968 0.612339 1.88247e-18)
(-0.154009 0.605025 1.98003e-19)
(-0.141147 0.592374 -5.61112e-19)
(-0.124287 0.575591 -6.59097e-20)
(-0.10369 0.555492 -1.56682e-18)
(-0.0789346 0.533236 4.08178e-18)
(-0.0507541 0.51016 2.51983e-18)
(-0.0192433 0.487562 1.34194e-18)
(0.018959 0.466109 -1.26874e-19)
(0.0459974 0.446104 3.22926e-18)
(0.110658 0.439329 -2.92511e-19)
(-0.0418404 0.123943 4.62119e-19)
(-0.130997 0.431014 -5.00235e-19)
(-0.158176 0.567332 3.92694e-19)
(-0.156593 0.609777 1.67003e-18)
(-0.147335 0.617436 -1.06649e-18)
(-0.134142 0.612901 -6.9759e-19)
(-0.117819 0.602084 -1.30756e-18)
(-0.0974931 0.586663 1.03637e-18)
(-0.0732407 0.56758 -1.08331e-18)
(-0.0446526 0.546043 -1.25927e-18)
(-0.0122623 0.523459 -2.17456e-18)
(0.0219312 0.501456 -1.26675e-18)
(0.0680835 0.480417 4.66459e-18)
(0.0925597 0.45796 -6.42656e-18)
(0.171805 0.459032 -1.73151e-19)
(-0.0311314 0.0828375 1.9756e-18)
(-0.115211 0.386882 -7.66157e-19)
(-0.144148 0.546249 -1.98535e-18)
(-0.142276 0.604674 -5.29123e-19)
(-0.130719 0.619832 2.79731e-18)
(-0.114588 0.618781 -6.01092e-20)
(-0.0951355 0.610019 1.36331e-18)
(-0.0714396 0.596115 -7.49246e-19)
(-0.0437909 0.578222 -2.93786e-18)
(-0.0115221 0.557532 6.83927e-18)
(0.0257829 0.535334 -5.06021e-18)
(0.061148 0.514125 1.50817e-18)
(0.117778 0.494617 -6.64344e-18)
(0.136536 0.466933 2.34987e-18)
(0.233819 0.479261 1.93799e-18)
(-0.0226126 0.0459181 -7.04754e-19)
(-0.0983935 0.333902 -2.26007e-18)
(-0.128728 0.517206 1.02187e-18)
(-0.127452 0.594245 1.80949e-19)
(-0.114213 0.618971 -2.51814e-18)
(-0.0955574 0.622389 1.56014e-18)
(-0.073163 0.616142 8.26994e-20)
(-0.0464454 0.603836 -3.84655e-19)
(-0.0153336 0.587108 -3.01468e-18)
(0.0198763 0.567528 -3.47687e-19)
(0.063606 0.545718 4.04206e-18)
(0.0979413 0.524868 3.42798e-19)
(0.168462 0.50987 9.64446e-19)
(0.177739 0.472017 2.77976e-18)
(0.295136 0.497005 -7.09401e-18)
(-0.0146801 0.0162903 -1.06854e-18)
(-0.0808079 0.272556 3.37658e-20)
(-0.11189 0.479301 -1.29498e-18)
(-0.112143 0.577179 1.0496e-18)
(-0.0979551 0.613987 1.42557e-18)
(-0.0771235 0.623399 -1.07037e-18)
(-0.0522821 0.620137 -1.8514e-19)
(-0.0225832 0.609714 -9.01352e-19)
(0.0119626 0.59417 2.25039e-18)
(0.049051 0.575767 4.3503e-19)
(0.101289 0.554376 -5.8636e-18)
(0.131393 0.532039 1.60495e-18)
(0.220453 0.526867 9.9823e-19)
(0.21748 0.476961 -4.4955e-18)
(0.35485 0.508354 1.01888e-18)
(-0.00616295 -0.00433782 2.41365e-19)
(-0.0633315 0.205536 6.49572e-19)
(-0.0938571 0.431613 1.21135e-18)
(-0.0963827 0.551883 -1.02478e-18)
(-0.082031 0.60371 -4.06884e-20)
(-0.0596016 0.621111 2.59252e-18)
(-0.0324245 0.621887 -1.19837e-19)
(-0.000686424 0.613425 -5.70921e-21)
(0.03852 0.598833 3.66413e-18)
(0.0749974 0.581932 -2.10438e-18)
(0.139294 0.562489 1.50742e-18)
(0.160744 0.533498 -4.2666e-18)
(0.271969 0.542214 3.68288e-19)
(0.257587 0.48553 -1.14052e-18)
(0.412769 0.516433 1.95707e-18)
(0.00214371 -0.0160753 -1.80659e-19)
(-0.0469587 0.138901 8.09243e-19)
(-0.0752592 0.373443 -1.07651e-18)
(-0.0802595 0.516561 2.26386e-18)
(-0.0665999 0.586599 -1.90383e-18)
(-0.0431276 0.614616 -1.70508e-18)
(-0.0141417 0.620507 -1.06274e-18)
(0.0192014 0.615065 -2.3007e-18)
(0.0638211 0.601163 -4.4758e-18)
(0.0975287 0.584174 6.78897e-19)
(0.176867 0.570983 3.53411e-18)
(0.187072 0.53091 2.83888e-18)
(0.321062 0.549936 4.82996e-19)
(0.297018 0.495217 -2.37709e-18)
(0.469211 0.522117 -1.20043e-18)
(0.00864867 -0.0210755 4.32599e-19)
(-0.03133 0.0808928 7.57816e-19)
(-0.0567553 0.304993 -3.23665e-18)
(-0.0640078 0.46965 -2.23787e-18)
(-0.051835 0.56069 -6.62134e-20)
(-0.0282753 0.602429 1.79116e-18)
(0.00297015 0.615449 -6.60423e-19)
(0.0352956 0.613195 5.11573e-18)
(0.0887699 0.601447 4.17974e-19)
(0.11531 0.581697 -2.89037e-18)
(0.213721 0.578786 -2.72212e-18)
(0.210574 0.527651 -4.35767e-18)
(0.366502 0.549632 4.80968e-18)
(0.335376 0.500459 3.20124e-18)
(0.521063 0.522715 -1.17526e-20)
(0.012799 -0.0222253 -1.20483e-18)
(-0.0155143 0.0375309 -2.23202e-18)
(-0.0390288 0.228523 1.61062e-18)
(-0.0480684 0.410067 1.9719e-18)
(-0.0379287 0.523791 1.22767e-18)
(-0.0155711 0.582417 -1.24865e-18)
(0.0180679 0.604915 3.19537e-18)
(0.0485763 0.607938 -4.57375e-18)
(0.110413 0.599206 5.09917e-18)
(0.130349 0.571832 3.27838e-18)
(0.245097 0.583216 -1.02654e-18)
(0.236905 0.526484 -1.44195e-18)
(0.399823 0.541935 -1.92808e-18)
(0.37854 0.503612 -3.85129e-18)
(0.561447 0.511146 4.63131e-18)
(0.0149973 -0.0216363 3.39122e-18)
(-0.000432329 0.00915065 2.60099e-18)
(-0.0229846 0.151833 5.90679e-19)
(-0.0332455 0.338213 -3.45713e-20)
(-0.0252269 0.47343 -4.26349e-19)
(-0.00569423 0.552264 -5.01395e-19)
(0.0310394 0.586927 -2.49761e-18)
(0.056445 0.594831 4.35477e-18)
(0.131236 0.59823 -3.4169e-18)
(0.140316 0.556545 -2.93483e-20)
(0.267215 0.572494 3.31387e-18)
(0.266707 0.529886 2.33701e-18)
(0.418257 0.521609 2.32749e-18)
(0.419541 0.509289 -2.46889e-20)
(0.598854 0.486548 -2.76608e-18)
(0.0161338 -0.0204419 -2.03479e-18)
(0.0121312 -0.00738479 -2.11025e-18)
(-0.00795473 0.0878203 6.53984e-19)
(-0.0201921 0.257879 -1.05978e-18)
(-0.0139201 0.408261 -5.01692e-19)
(0.00044083 0.508401 1.8091e-18)
(0.0407918 0.56036 -4.77942e-19)
(0.0608733 0.571468 -4.45441e-19)
(0.140248 0.586864 -1.38312e-18)
(0.162296 0.551453 -3.20255e-18)
(0.261509 0.543742 1.48774e-18)
(0.314874 0.528982 -1.76573e-18)
(0.405165 0.499382 -2.70919e-18)
(0.495778 0.50445 -1.22491e-18)
(0.561476 0.454934 4.92853e-18)
(0.0172592 -0.0190824 2.29236e-18)
(0.0221348 -0.0159977 -1.80031e-18)
(0.00729315 0.0439281 -2.95949e-18)
(-0.00828574 0.178413 3.04167e-19)
(-0.00430468 0.330158 7.11729e-19)
(0.00322766 0.448446 -5.04447e-19)
(0.0441226 0.520232 1.37473e-18)
(0.063898 0.540151 2.91591e-19)
(0.137327 0.559606 -2.09174e-19)
(0.17745 0.535092 9.65352e-20)
(0.264894 0.532116 -1.54554e-18)
(0.324348 0.488135 1.98354e-19)
(0.434506 0.507311 8.71448e-19)
(0.480562 0.445224 -6.84489e-19)
(0.624488 0.47276 4.65218e-18)
(0.019079 -0.0178997 4.80531e-19)
(0.0308385 -0.0200635 -1.03143e-18)
(0.0220376 0.0180868 2.87756e-18)
(0.00397964 0.112683 2.22691e-18)
(0.00358167 0.247107 -2.23706e-18)
(0.00320513 0.373496 -1.52677e-19)
(0.0403922 0.463629 -1.03555e-18)
(0.0615392 0.49364 -3.98726e-19)
(0.12721 0.525437 2.86821e-18)
(0.182381 0.491875 1.46597e-18)
(0.256398 0.515775 2.02372e-18)
(0.348224 0.448109 -1.60407e-18)
(0.423635 0.490354 1.07822e-18)
(0.50141 0.401346 -6.17039e-19)
(0.649676 0.475903 -5.93282e-18)
(0.0218666 -0.0172535 3.835e-19)
(0.0389859 -0.0220617 6.16355e-19)
(0.034732 0.00387927 -1.58403e-18)
(0.0166422 0.067485 -1.80668e-18)
(0.00971067 0.171814 -1.66005e-18)
(0.00144502 0.290153 1.42428e-19)
(0.0290645 0.39192 1.21128e-18)
(0.0548198 0.429247 -2.20209e-18)
(0.10216 0.472849 -1.16688e-18)
(0.190479 0.447001 6.42816e-19)
(0.213775 0.45237 -1.85921e-18)
(0.394182 0.436029 1.8934e-19)
(0.346924 0.404305 1.28607e-18)
(0.590517 0.404764 -1.72732e-18)
(0.545022 0.387727 1.40094e-18)
(0.025488 -0.0173818 -8.63442e-19)
(0.0463364 -0.0237876 1.9585e-18)
(0.0442663 -0.00497933 1.29482e-18)
(0.0271083 0.0389678 8.67788e-19)
(0.0135506 0.112896 1.4194e-18)
(-0.00204459 0.209404 -1.42778e-19)
(0.012155 0.310118 -1.11973e-18)
(0.0405786 0.351897 2.44155e-19)
(0.0703189 0.39731 1.53577e-18)
(0.175369 0.388159 -2.43845e-18)
(0.178754 0.370894 -1.14929e-18)
(0.37509 0.383105 9.70357e-20)
(0.27984 0.295668 -3.66155e-19)
(0.609931 0.373143 2.05975e-18)
(0.405725 0.24785 -1.97729e-18)
(0.0293626 -0.0182406 9.41823e-19)
(0.0518421 -0.0262934 6.28273e-19)
(0.0495074 -0.0129604 -7.49924e-20)
(0.0322019 0.0184609 -5.6269e-19)
(0.0132705 0.0691008 1.26446e-19)
(-0.00944088 0.139343 -1.66045e-18)
(-0.00697542 0.226841 3.6971e-19)
(0.0140733 0.265505 -7.31269e-19)
(0.0401736 0.312556 -7.48027e-19)
(0.130504 0.296244 1.66657e-18)
(0.15752 0.295395 2.42968e-18)
(0.298602 0.279189 1.14036e-18)
(0.280678 0.234646 1.19256e-18)
(0.580768 0.310859 -1.54935e-18)
(0.543592 0.26674 -1.63879e-18)
(0.0325534 -0.0195037 7.78622e-19)
(0.0541081 -0.0298337 -1.48142e-18)
(0.049175 -0.0222615 -7.15204e-19)
(0.0298313 -0.000581508 -1.599e-18)
(0.00618399 0.0335597 7.19729e-19)
(-0.0225669 0.0805442 1.75353e-18)
(-0.0293615 0.148202 -2.00762e-18)
(-0.0213924 0.176096 7.02905e-19)
(0.00554273 0.223075 1.33714e-18)
(0.0772708 0.191396 3.58559e-19)
(0.117203 0.20288 -1.55159e-18)
(0.257673 0.192396 -6.5573e-19)
(0.370749 0.228844 -2.41157e-21)
(0.66979 0.313532 9.12084e-19)
(0.835686 0.388673 3.6252e-18)
(0.0339912 -0.0206598 -1.2616e-18)
(0.0519433 -0.0339807 -1.26414e-18)
(0.0424516 -0.0331027 7.06403e-19)
(0.0192917 -0.0207239 2.84154e-18)
(-0.00942407 0.000528839 -1.8479e-18)
(-0.0423314 0.0286337 5.22893e-19)
(-0.0584976 0.075013 7.82114e-19)
(-0.0609705 0.0891916 -6.29731e-20)
(-0.0375485 0.129371 1.69447e-19)
(0.0249099 0.0933088 7.26365e-19)
(0.107441 0.119849 -6.58791e-19)
(0.334955 0.177639 -1.40094e-18)
(0.556743 0.269969 -1.30653e-18)
(0.846755 0.374072 1.09443e-18)
(0.983816 0.435643 3.5654e-19)
(0.0327657 -0.0211352 -3.10669e-19)
(0.0448119 -0.0378694 2.50234e-18)
(0.0295079 -0.0444582 5.24413e-19)
(0.00146725 -0.0415866 7.47748e-19)
(-0.0328636 -0.0322477 6.82665e-19)
(-0.0699176 -0.019065 6.57414e-19)
(-0.0957073 0.00724727 -2.36668e-19)
(-0.103104 0.00903622 4.26249e-19)
(-0.0790656 0.0414838 2.06774e-19)
(0.027919 0.0369983 9.11495e-19)
(0.226016 0.114737 5.25544e-20)
(0.511786 0.224774 9.73702e-19)
(0.763709 0.335444 -8.29361e-19)
(0.960349 0.408832 -8.44779e-19)
(1.06105 0.452315 5.89386e-19)
(0.0283794 -0.0204279 1.12063e-18)
(0.0329492 -0.0403741 -1.02743e-18)
(0.0114755 -0.0543754 1.04456e-19)
(-0.0216649 -0.060637 -1.52551e-18)
(-0.0615575 -0.0618069 -1.26584e-18)
(-0.103424 -0.0597784 2.18182e-18)
(-0.134514 -0.0497188 6.23751e-19)
(-0.130264 -0.0519704 -8.92755e-19)
(-0.0662753 -0.0133496 2.3862e-19)
(0.148547 0.0544759 -2.47379e-18)
(0.431505 0.174186 8.61668e-19)
(0.703485 0.290334 -1.04743e-18)
(0.896923 0.373985 1.31175e-18)
(1.0336 0.426551 -1.35087e-19)
(1.12157 0.465265 -8.55442e-19)
(0.020975 -0.0182019 -1.74824e-18)
(0.0174623 -0.0402753 -1.77885e-18)
(-0.00947816 -0.0602938 -1.8268e-18)
(-0.0466423 -0.0734097 -1.37133e-18)
(-0.0893594 -0.081433 9.23083e-19)
(-0.13081 -0.0849211 -3.73239e-18)
(-0.153325 -0.0808211 3.4012e-19)
(-0.107716 -0.0728743 3.25648e-19)
(0.045521 -0.00516422 1.72439e-19)
(0.349163 0.120206 1.15717e-18)
(0.630292 0.241504 -9.54181e-19)
(0.842137 0.334389 2.31552e-18)
(0.988448 0.397309 -5.05096e-19)
(1.09008 0.439421 -1.02373e-18)
(1.14301 0.460667 5.83405e-19)
(0.0113716 -0.0144372 3.08346e-19)
(0.000250399 -0.0367194 1.44192e-18)
(-0.0301362 -0.0599231 2.05565e-18)
(-0.0682066 -0.0760923 3.3951e-19)
(-0.107782 -0.0855267 1.63885e-18)
(-0.138284 -0.0866276 9.13913e-19)
(-0.136377 -0.0775736 2.83489e-19)
(-0.0222867 -0.047666 -1.42813e-18)
(0.235197 0.0642617 -8.49927e-20)
(0.544586 0.191656 6.16949e-19)
(0.780088 0.292194 2.35816e-18)
(0.944587 0.365603 -3.04372e-19)
(1.0531 0.413278 8.66919e-19)
(1.116 0.439481 8.3941e-19)
(1.1592 0.456627 1.40179e-18)
(0.000822461 -0.00950953 5.66045e-19)
(-0.0165935 -0.0297641 -1.89485e-18)
(-0.0475501 -0.053018 -4.10813e-19)
(-0.0820438 -0.068384 2.19573e-20)
(-0.112087 -0.0742895 -3.05406e-18)
(-0.122435 -0.0677899 7.93001e-19)
(-0.0846726 -0.0528341 -4.01282e-19)
(0.121647 0.0154121 4.73359e-19)
(0.432851 0.143979 1.55896e-18)
(0.704494 0.249782 -5.36646e-19)
(0.89504 0.331108 -1.84197e-18)
(1.01779 0.387 -2.59731e-19)
(1.08982 0.418384 -2.94779e-19)
(1.13709 0.439535 -6.46018e-19)
(1.1684 0.450673 -1.50652e-18)
(-0.00936706 -0.00411596 1.18106e-19)
(-0.0314688 -0.0204496 5.12734e-19)
(-0.0601813 -0.041192 -1.32531e-18)
(-0.0872296 -0.0530767 5.55327e-19)
(-0.103311 -0.0532597 1.26587e-18)
(-0.0899777 -0.0396861 -5.40669e-19)
(-0.00174304 -0.0192001 -1.11039e-19)
(0.298263 0.0920782 -1.26206e-18)
(0.602234 0.208297 2.62759e-19)
(0.831854 0.295224 -9.05608e-19)
(0.978328 0.359489 8.89639e-19)
(1.06478 0.39881 -7.4932e-19)
(1.11709 0.422227 1.34944e-18)
(1.14716 0.436097 -5.27203e-19)
(1.16843 0.441586 -1.11616e-18)
(-0.0181901 0.000989872 6.04689e-19)
(-0.0435058 -0.0102811 3.78867e-19)
(-0.0679507 -0.0270146 3.42118e-19)
(-0.0851953 -0.0344944 8.37579e-20)
(-0.0853459 -0.0292593 5.79215e-19)
(-0.0479387 -0.0154255 -1.39943e-18)
(0.119417 0.0332751 7.75666e-19)
(0.466839 0.158843 1.82207e-18)
(0.742979 0.261268 -1.82648e-19)
(0.928372 0.330519 1.3738e-18)
(1.0364 0.379162 8.4267e-19)
(1.09851 0.407016 1.40023e-19)
(1.1312 0.421606 2.8803e-19)
(1.15206 0.431232 5.59543e-19)
(1.17253 0.435838 1.30853e-18)
(-0.0251083 0.00519817 9.20179e-19)
(-0.0525126 -0.000762692 1.31221e-18)
(-0.0716021 -0.0130339 -1.18324e-18)
(-0.0782158 -0.0164268 1.07506e-18)
(-0.063178 -0.00829562 -2.48601e-18)
(0.00852687 -0.000589739 6.05303e-19)
(0.280124 0.0993384 -2.14774e-19)
(0.617754 0.216596 -1.13537e-18)
(0.854406 0.30344 -2.02912e-18)
(0.999066 0.356429 -7.77862e-19)
(1.07723 0.393111 -1.95158e-18)
(1.11786 0.409984 1.23203e-18)
(1.14042 0.420408 -1.69514e-18)
(1.15659 0.42758 1.18124e-18)
(1.17013 0.427982 8.25106e-19)
(-0.0300163 0.00816374 -2.18062e-18)
(-0.0587642 0.00697773 7.62538e-20)
(-0.0722108 -0.00110333 1.55635e-19)
(-0.0684527 -0.000833673 2.99827e-19)
(-0.0400972 0.00419868 1.63779e-19)
(0.0961203 0.027231 1.18307e-18)
(0.44458 0.160457 6.51314e-19)
(0.746085 0.26452 -1.84019e-19)
(0.939777 0.33577 9.15107e-19)
(1.04957 0.375605 5.98143e-19)
(1.10306 0.401717 2.79716e-19)
(1.13135 0.411747 -6.99236e-19)
(1.14592 0.418886 2.34164e-18)
(1.15633 0.422224 4.15401e-19)
(1.16978 0.421978 -8.78895e-19)
(-0.0331719 0.00982518 2.00677e-18)
(-0.0627848 0.0123201 -1.43648e-18)
(-0.0707116 0.00780254 4.58551e-19)
(-0.0582127 0.0111814 -4.77731e-20)
(-0.00763324 0.00550014 2.38171e-18)
(0.230722 0.0825973 -1.95555e-19)
(0.589789 0.214048 -7.83318e-19)
(0.849304 0.303581 1.92872e-18)
(1.00313 0.360423 1.81214e-19)
(1.08372 0.388844 7.92707e-19)
(1.12061 0.407603 -1.58956e-18)
(1.13869 0.411652 3.42163e-20)
(1.14769 0.416543 -7.40359e-19)
(1.1576 0.418407 -1.56469e-19)
(1.1682 0.416566 -5.20732e-19)
(-0.0350664 0.0103296 -5.36604e-19)
(-0.0651321 0.0150759 1.50118e-18)
(-0.0676742 0.013948 9.08024e-19)
(-0.0490879 0.0163546 7.26217e-19)
(0.0487348 0.010676 -3.93138e-19)
(0.388089 0.143262 -1.57553e-19)
(0.715899 0.2596 1.03214e-18)
(0.930729 0.334398 -8.15655e-19)
(1.04894 0.378344 2.53211e-19)
(1.10698 0.398301 -1.3287e-18)
(1.13058 0.410774 9.23719e-20)
(1.14283 0.411013 2.0851e-19)
(1.14939 0.41516 -3.08399e-19)
(1.15641 0.413994 -1.85848e-18)
(1.16514 0.411073 7.90752e-19)
(-0.0362961 0.0098987 -9.45747e-19)
(-0.066167 0.0154293 -1.18474e-18)
(-0.0642703 0.018015 6.23741e-19)
(-0.0359541 0.0126616 -8.08876e-20)
(0.144646 0.0473318 -9.74464e-19)
(0.529561 0.196008 -4.15702e-20)
(0.818631 0.297477 -7.22856e-19)
(0.992055 0.358453 -1.4399e-18)
(1.08105 0.391604 -5.90281e-19)
(1.12125 0.404523 5.48804e-19)
(1.1367 0.412697 5.09504e-19)
(1.14503 0.41026 -5.15721e-20)
(1.14854 0.413142 -8.28882e-19)
(1.1554 0.410113 1.5286e-18)
(1.16356 0.407363 4.83509e-19)
(-0.0374077 0.00870201 9.31155e-19)
(-0.0660263 0.0143331 1.78848e-21)
(-0.0620211 0.0193296 -1.53008e-18)
(-0.00670591 0.00218863 -3.35041e-20)
(0.28333 0.106424 2.34074e-19)
(0.654406 0.241964 4.27931e-19)
(0.90136 0.328381 -7.71493e-19)
(1.0381 0.376953 3.99531e-19)
(1.10293 0.400857 -1.77878e-20)
(1.13035 0.408855 4.49791e-19)
(1.13962 0.413559 -4.07342e-19)
(1.14515 0.40919 -1.15536e-18)
(1.14805 0.411866 -5.7394e-20)
(1.15398 0.406655 -7.41475e-19)
(1.1596 0.403209 -6.50077e-19)
(-0.0387115 0.00692007 3.79628e-19)
(-0.0649973 0.0134129 -7.75036e-19)
(-0.0598539 0.0160216 7.78434e-19)
(0.0500602 0.00504135 -2.48296e-19)
(0.429428 0.161414 -1.34359e-19)
(0.761343 0.280369 -3.86431e-19)
(0.965561 0.35301 6.07343e-19)
(1.07081 0.390872 3.95838e-19)
(1.1172 0.407611 -2.37042e-19)
(1.13502 0.41171 -6.78063e-19)
(1.14059 0.413876 -2.47328e-19)
(1.14487 0.408548 1.18454e-18)
(1.14624 0.410361 7.30672e-19)
(1.15158 0.40312 7.28382e-19)
(1.15706 0.400511 -2.28019e-19)
(-0.0401262 0.00485177 -2.38273e-19)
(-0.0640532 0.013359 8.57593e-20)
(-0.0520104 0.00741557 -3.2253e-19)
(0.139884 0.0418355 -2.81769e-21)
(0.554446 0.208759 -2.50684e-19)
(0.848359 0.313402 -3.76424e-19)
(1.01462 0.372879 1.31614e-19)
(1.09413 0.401449 -7.87075e-19)
(1.12612 0.412294 7.04204e-19)
(1.13742 0.413719 9.03356e-19)
(1.14047 0.41398 1.1779e-19)
(1.14325 0.407771 -1.03082e-18)
(1.14433 0.409113 -1.01305e-18)
(1.14962 0.400393 -7.72871e-19)
(1.15301 0.397841 3.15452e-19)
(-0.0414541 0.00326212 -7.69096e-19)
(-0.064404 0.0125461 2.11265e-19)
(-0.0292501 -0.00518115 -1.55036e-19)
(0.265506 0.0993942 -3.29707e-22)
(0.665283 0.250055 -6.23875e-20)
(0.919257 0.340403 -1.4371e-19)
(1.05152 0.388384 2.67034e-19)
(1.10971 0.409249 -1.55304e-19)
(1.13115 0.415785 -2.02101e-19)
(1.13778 0.41521 -3.92961e-19)
(1.13919 0.413895 -3.4995e-19)
(1.14153 0.407412 -1.6215e-19)
(1.14197 0.407954 6.28968e-19)
(1.14645 0.39756 -2.53781e-20)
(1.14933 0.395867 5.04816e-19)
(-0.0426092 0.00337918 3.197e-19)
(-0.0655952 0.00906731 5.30712e-19)
(0.0159553 -0.0100785 9.06891e-20)
(0.402267 0.152637 3.29739e-19)
(0.761484 0.284702 7.27377e-19)
(0.974577 0.36247 2.69852e-19)
(1.07805 0.40068 9.95041e-19)
(1.11993 0.415323 5.25756e-19)
(1.1336 0.418414 3.35514e-19)
(1.13714 0.416381 7.72007e-19)
(1.13761 0.41393 2.40082e-19)
(1.13905 0.407068 4.422e-19)
(1.13914 0.40679 2.20455e-19)
(1.1437 0.39548 1.04677e-19)
(1.14523 0.394339 3.49322e-19)
(-0.0434213 0.00596182 4.45798e-19)
(-0.0650874 0.00287931 -7.55995e-19)
(0.0837053 0.00798286 -1.46727e-19)
(0.521309 0.197786 3.4682e-19)
(0.841846 0.315702 -7.34015e-19)
(1.01792 0.380842 -3.0134e-19)
(1.09716 0.41032 -6.14798e-19)
(1.12608 0.419922 -2.09352e-20)
(1.13418 0.420561 -1.66218e-19)
(1.13558 0.417475 -6.51211e-19)
(1.13525 0.413966 4.97578e-19)
(1.13638 0.406995 3.81302e-20)
(1.13625 0.40587 -2.13487e-20)
(1.14003 0.393498 1.8444e-19)
(1.14073 0.39296 -4.28283e-19)
(-0.0440674 0.0101026 -3.25005e-20)
(-0.0578677 -0.00603586 3.31854e-19)
(0.175621 0.0513342 9.31584e-20)
(0.623472 0.237925 -4.87309e-19)
(0.907925 0.342336 3.25558e-19)
(1.05099 0.395986 1.04481e-19)
(1.11004 0.418034 -2.74382e-19)
(1.12934 0.42374 -1.30586e-19)
(1.13354 0.422475 -3.97412e-19)
(1.13348 0.418509 7.08082e-20)
(1.13278 0.41421 -4.82473e-19)
(1.1333 0.40703 -3.44038e-19)
(1.1328 0.404908 9.27943e-20)
(1.13647 0.392062 9.67965e-20)
(1.1364 0.39211 -1.68606e-19)
(-0.0451029 0.0127962 -1.65463e-19)
(-0.0384443 -0.0144597 -1.05156e-19)
(0.287223 0.103912 2.26165e-19)
(0.712803 0.27195 4.19146e-19)
(0.960808 0.364767 8.16277e-20)
(1.07569 0.408564 -2.25168e-19)
(1.11872 0.424381 2.84181e-19)
(1.13062 0.426945 2.48456e-19)
(1.132 0.424271 1.29464e-19)
(1.13092 0.419641 2.47109e-20)
(1.12973 0.414555 1.55571e-19)
(1.12991 0.407224 6.90324e-20)
(1.12934 0.404228 -4.89848e-20)
(1.13236 0.390877 -6.19811e-20)
(1.13146 0.391149 5.53098e-20)
(-0.0466952 0.0109648 -7.69323e-20)
(-0.00486109 -0.0164615 -9.02954e-20)
(0.403682 0.152943 7.41841e-20)
(0.790882 0.302017 -9.86998e-20)
(1.00276 0.383434 -2.12581e-19)
(1.09357 0.418863 1.62703e-20)
(1.12385 0.429728 1.31316e-19)
(1.1304 0.429933 -1.18876e-19)
(1.12983 0.426138 7.88695e-20)
(1.12798 0.420845 1.59698e-19)