/*--------------------------------*- C++ -*----------------------------------*\
  =========                 |
  \\      /  F ield         | OpenFOAM: The Open Source CFD Toolbox
   \\    /   O peration     | Website:  https://openfoam.org
    \\  /    A nd           | Version:  7
     \\/     M anipulation  |
\*---------------------------------------------------------------------------*/
FoamFile
{
    version     2.0;
    format      ascii;
    class       volScalarField;
    location    "35.9997";
    object      p;
}
// * * * * * * * * * * * * * * * * * * * * * * * * * * * * * * * * * * * * * //

dimensions      [0 2 -2 0 0 0 0];

internalField   nonuniform List<scalar> 
18750
(
-0.0478924
-0.0543212
-0.0664464
-0.0854278
-0.110116
-0.140117
-0.17481
-0.213699
-0.256178
-0.301613
-0.349316
-0.39871
-0.44936
-0.500773
-0.55204
-0.0380854
-0.0450472
-0.0575828
-0.0767882
-0.101522
-0.131398
-0.165813
-0.204299
-0.24628
-0.291136
-0.33814
-0.38667
-0.436368
-0.487039
-0.538125
-0.0312238
-0.0385313
-0.0512927
-0.0705623
-0.0952095
-0.124851
-0.1589
-0.196904
-0.238315
-0.282522
-0.328773
-0.376395
-0.425078
-0.474874
-0.52553
-0.0273863
-0.0348411
-0.0476418
-0.0668147
-0.0912437
-0.120547
-0.154148
-0.191608
-0.232391
-0.275899
-0.32137
-0.368094
-0.415762
-0.46457
-0.514532
-0.0265431
-0.0339453
-0.0466027
-0.0655222
-0.0896066
-0.118475
-0.151556
-0.188416
-0.228527
-0.271296
-0.31597
-0.361833
-0.408524
-0.456277
-0.505338
-0.0285476
-0.0357081
-0.048052
-0.0665725
-0.0901948
-0.118537
-0.151032
-0.187246
-0.226654
-0.268665
-0.312535
-0.357554
-0.403311
-0.449957
-0.497858
-0.0331427
-0.0398914
-0.0517678
-0.0697565
-0.0928088
-0.120541
-0.152387
-0.187908
-0.226579
-0.267811
-0.310884
-0.355118
-0.400078
-0.445709
-0.492326
-0.0399942
-0.04619
-0.0574684
-0.0748121
-0.0972008
-0.124248
-0.155387
-0.190171
-0.228067
-0.26849
-0.310733
-0.354143
-0.398325
-0.44321
-0.4888
-0.0486942
-0.0542313
-0.0648095
-0.0814193
-0.103068
-0.129366
-0.159747
-0.19375
-0.230838
-0.270427
-0.311819
-0.35436
-0.39765
-0.441627
-0.4862
-0.0587863
-0.063596
-0.0734043
-0.0892203
-0.110074
-0.135572
-0.16515
-0.198334
-0.234578
-0.273303
-0.313828
-0.355488
-0.397827
-0.44071
-0.484016
-0.0697917
-0.0738343
-0.0828432
-0.0978393
-0.117865
-0.142529
-0.171268
-0.203598
-0.238962
-0.276786
-0.316408
-0.357169
-0.398553
-0.440334
-0.48237
-0.0812396
-0.0844811
-0.0927147
-0.1069
-0.126089
-0.149901
-0.177777
-0.209226
-0.243681
-0.280568
-0.319246
-0.359062
-0.39946
-0.440157
-0.481024
-0.0926577
-0.0951033
-0.102629
-0.116041
-0.134405
-0.157363
-0.184364
-0.214913
-0.248439
-0.284365
-0.322068
-0.360902
-0.400274
-0.439879
-0.479691
-0.103598
-0.105315
-0.112233
-0.12493
-0.142501
-0.164617
-0.190743
-0.220383
-0.252963
-0.28791
-0.32462
-0.362465
-0.4008
-0.439281
-0.478082
-0.113669
-0.114792
-0.121221
-0.133272
-0.150094
-0.171396
-0.196656
-0.225385
-0.257013
-0.290969
-0.326671
-0.363531
-0.400876
-0.43822
-0.475931
-0.122546
-0.123298
-0.129329
-0.140817
-0.156944
-0.177471
-0.201884
-0.229706
-0.260381
-0.293343
-0.328024
-0.363897
-0.400333
-0.436625
-0.473006
-0.130037
-0.130633
-0.136339
-0.147359
-0.162854
-0.182656
-0.206242
-0.233167
-0.262892
-0.294864
-0.328522
-0.363386
-0.398975
-0.434444
-0.469185
-0.136099
-0.136635
-0.142094
-0.152742
-0.167673
-0.186804
-0.209584
-0.235623
-0.264401
-0.295392
-0.32804
-0.361872
-0.39658
-0.431563
-0.464497
-0.140752
-0.141233
-0.146566
-0.156849
-0.171309
-0.189808
-0.211802
-0.236964
-0.264796
-0.294808
-0.326472
-0.35928
-0.393016
-0.42768
-0.45913
-0.144089
-0.144468
-0.149689
-0.159693
-0.173741
-0.191591
-0.212825
-0.237114
-0.263995
-0.293018
-0.323715
-0.355553
-0.388281
-0.422413
-0.453307
-0.146286
-0.14645
-0.151498
-0.161267
-0.174922
-0.19215
-0.212626
-0.23603
-0.261944
-0.289956
-0.319681
-0.350612
-0.382322
-0.415888
-0.446377
-0.147554
-0.147318
-0.152094
-0.161609
-0.174866
-0.191487
-0.211191
-0.233688
-0.258609
-0.28558
-0.314306
-0.344404
-0.375018
-0.408219
-0.438063
-0.148084
-0.147208
-0.151616
-0.160814
-0.173634
-0.189634
-0.208538
-0.230089
-0.253982
-0.279872
-0.307528
-0.336897
-0.366289
-0.399317
-0.428361
-0.147997
-0.146249
-0.150237
-0.159014
-0.171323
-0.186657
-0.204718
-0.225265
-0.248072
-0.27285
-0.299284
-0.328065
-0.356104
-0.389067
-0.417297
-0.147334
-0.144599
-0.148171
-0.156373
-0.168057
-0.182657
-0.199814
-0.219276
-0.240894
-0.26457
-0.28954
-0.317859
-0.344475
-0.377424
-0.404895
-0.146111
-0.142515
-0.14566
-0.153077
-0.16399
-0.177763
-0.19393
-0.212215
-0.232472
-0.255083
-0.278329
-0.306205
-0.331425
-0.364357
-0.391282
-0.144387
-0.140361
-0.142941
-0.149344
-0.159319
-0.172142
-0.187191
-0.204213
-0.22285
-0.244418
-0.265766
-0.293013
-0.317034
-0.34966
-0.376775
-0.142313
-0.138474
-0.140218
-0.145428
-0.15429
-0.166004
-0.179737
-0.195421
-0.212146
-0.232532
-0.25207
-0.278164
-0.301592
-0.333008
-0.361511
-0.140113
-0.136974
-0.137667
-0.14163
-0.149195
-0.159604
-0.171755
-0.185963
-0.200584
-0.219383
-0.237467
-0.26151
-0.285461
-0.314411
-0.345423
-0.138084
-0.135758
-0.135486
-0.138262
-0.144354
-0.153242
-0.163494
-0.175969
-0.18846
-0.204936
-0.222358
-0.242904
-0.268834
-0.293519
-0.330913
-0.136369
-0.134699
-0.133848
-0.135574
-0.140083
-0.147239
-0.155308
-0.165542
-0.176183
-0.189327
-0.206866
-0.222989
-0.251235
-0.271045
-0.309362
-0.134995
-0.133752
-0.132797
-0.133663
-0.136651
-0.141899
-0.147646
-0.15497
-0.163869
-0.173262
-0.190436
-0.203717
-0.230705
-0.251736
-0.283863
-0.133926
-0.132954
-0.132181
-0.132488
-0.134219
-0.137502
-0.140882
-0.144813
-0.151588
-0.1574
-0.17356
-0.184867
-0.21121
-0.231033
-0.263406
-0.133089
-0.132333
-0.131815
-0.131919
-0.132773
-0.134263
-0.135267
-0.135697
-0.139811
-0.142186
-0.15701
-0.166692
-0.194652
-0.211657
-0.246828
-0.132399
-0.13185
-0.131604
-0.13177
-0.132116
-0.132206
-0.13089
-0.128196
-0.128986
-0.128628
-0.14055
-0.150493
-0.1778
-0.196223
-0.233226
-0.131762
-0.131432
-0.131467
-0.131829
-0.13194
-0.131117
-0.127655
-0.122652
-0.119508
-0.11746
-0.124887
-0.136597
-0.160474
-0.184674
-0.219052
-0.131091
-0.130994
-0.131305
-0.1319
-0.131923
-0.13059
-0.125391
-0.118917
-0.112167
-0.108729
-0.113423
-0.126187
-0.146521
-0.176448
-0.204566
-0.13032
-0.130465
-0.131008
-0.131804
-0.131791
-0.130195
-0.123914
-0.116518
-0.10735
-0.102462
-0.106157
-0.119751
-0.13744
-0.168297
-0.194465
-0.129424
-0.129799
-0.130498
-0.131405
-0.13136
-0.129642
-0.122963
-0.114958
-0.104924
-0.0991309
-0.10185
-0.116056
-0.132867
-0.160746
-0.187684
-0.128425
-0.128996
-0.129766
-0.130678
-0.13063
-0.128718
-0.122464
-0.114117
-0.104464
-0.0988638
-0.100604
-0.113987
-0.130967
-0.155417
-0.182109
-0.127401
-0.128113
-0.128865
-0.129684
-0.129621
-0.127768
-0.122554
-0.114579
-0.105465
-0.100774
-0.102268
-0.11365
-0.130343
-0.152019
-0.177067
-0.126475
-0.127271
-0.127954
-0.128663
-0.128638
-0.127188
-0.123616
-0.116865
-0.107704
-0.103865
-0.10545
-0.114973
-0.130319
-0.149658
-0.172475
-0.125785
-0.126614
-0.127215
-0.127905
-0.128024
-0.127161
-0.125546
-0.119728
-0.111086
-0.107294
-0.109007
-0.117064
-0.130615
-0.147804
-0.168164
-0.125429
-0.126259
-0.126835
-0.127549
-0.127909
-0.127653
-0.127381
-0.122188
-0.114691
-0.110818
-0.112364
-0.119261
-0.131025
-0.146049
-0.164054
-0.125434
-0.126232
-0.126809
-0.127571
-0.12817
-0.128554
-0.127493
-0.124119
-0.117787
-0.11413
-0.115344
-0.121179
-0.131262
-0.144243
-0.160079
-0.125757
-0.126489
-0.127057
-0.12782
-0.128556
-0.12958
-0.126877
-0.125027
-0.120052
-0.11693
-0.117794
-0.122619
-0.131205
-0.142303
-0.156153
-0.126308
-0.12694
-0.127445
-0.128112
-0.129122
-0.129013
-0.126953
-0.12517
-0.121449
-0.119027
-0.119619
-0.123548
-0.130765
-0.140154
-0.152253
-0.126992
-0.127494
-0.127858
-0.128307
-0.129952
-0.127452
-0.127003
-0.125081
-0.122167
-0.120366
-0.120774
-0.123931
-0.129918
-0.137802
-0.148329
-0.127734
-0.128089
-0.128196
-0.128649
-0.129703
-0.126995
-0.126627
-0.124764
-0.122383
-0.121011
-0.121259
-0.123784
-0.128674
-0.135221
-0.144357
-0.128495
-0.128701
-0.128402
-0.129446
-0.127582
-0.127308
-0.126234
-0.124291
-0.122223
-0.121064
-0.12114
-0.123123
-0.127034
-0.132429
-0.140317
-0.129276
-0.129292
-0.128672
-0.130482
-0.125898
-0.127061
-0.125771
-0.123708
-0.121752
-0.120626
-0.120486
-0.121984
-0.12503
-0.129429
-0.136179
-0.130112
-0.1298
-0.129521
-0.129857
-0.126648
-0.12665
-0.125145
-0.123004
-0.121023
-0.119782
-0.119377
-0.120411
-0.122678
-0.12622
-0.131931
-0.131059
-0.130257
-0.131194
-0.127527
-0.127919
-0.126584
-0.124485
-0.122163
-0.120048
-0.118592
-0.117878
-0.118447
-0.120012
-0.12281
-0.127547
-0.132117
-0.130886
-0.133133
-0.125844
-0.12801
-0.126433
-0.123839
-0.121207
-0.118852
-0.117102
-0.116039
-0.116141
-0.117058
-0.119192
-0.123015
-0.133257
-0.132175
-0.1339
-0.127563
-0.127941
-0.126091
-0.123146
-0.120137
-0.117446
-0.115341
-0.1139
-0.113526
-0.113847
-0.115378
-0.118324
-0.134492
-0.134542
-0.132765
-0.131211
-0.128774
-0.125765
-0.122339
-0.118923
-0.11584
-0.113333
-0.111487
-0.110635
-0.110401
-0.111367
-0.113479
-0.135834
-0.13783
-0.130575
-0.133297
-0.129841
-0.1256
-0.121481
-0.117571
-0.114042
-0.111094
-0.108821
-0.107485
-0.106732
-0.107168
-0.108495
-0.13745
-0.141085
-0.130011
-0.133411
-0.130361
-0.125468
-0.120608
-0.116096
-0.112056
-0.108632
-0.105911
-0.104093
-0.102849
-0.102784
-0.103394
-0.13965
-0.143278
-0.133133
-0.133433
-0.130325
-0.125144
-0.119659
-0.114502
-0.109891
-0.105954
-0.102765
-0.100464
-0.0987548
-0.0982184
-0.0981956
-0.142747
-0.144064
-0.138926
-0.134891
-0.130268
-0.124582
-0.118538
-0.112749
-0.107537
-0.103058
-0.0993833
-0.0966034
-0.0944519
-0.0934749
-0.0929047
-0.146998
-0.143813
-0.144452
-0.137667
-0.13069
-0.123913
-0.117198
-0.110785
-0.104969
-0.099934
-0.0957637
-0.092509
-0.0899382
-0.088555
-0.0875147
-0.152613
-0.143759
-0.148566
-0.140737
-0.131577
-0.123284
-0.11566
-0.108571
-0.102151
-0.096563
-0.0918965
-0.0881776
-0.0852118
-0.0834558
-0.0820062
-0.159567
-0.146313
-0.151366
-0.143382
-0.132583
-0.122688
-0.113951
-0.106091
-0.0990527
-0.0929202
-0.0877678
-0.083602
-0.0802653
-0.0781671
-0.0763572
-0.167415
-0.152535
-0.153753
-0.145268
-0.133306
-0.121977
-0.112053
-0.103337
-0.095651
-0.0889814
-0.0833598
-0.0787705
-0.0750894
-0.0726757
-0.0705424
-0.175301
-0.161638
-0.156619
-0.146436
-0.133463
-0.120945
-0.109893
-0.100288
-0.0919308
-0.084727
-0.0786544
-0.0736677
-0.0696684
-0.0669671
-0.0645514
-0.182226
-0.171249
-0.16013
-0.147118
-0.132949
-0.11942
-0.107371
-0.0969067
-0.087874
-0.080141
-0.0736339
-0.0682746
-0.0639833
-0.0610276
-0.0583806
-0.187183
-0.179079
-0.163599
-0.147453
-0.131795
-0.117312
-0.104397
-0.0931446
-0.0834595
-0.0752094
-0.0682836
-0.062572
-0.0580109
-0.0548378
-0.0520234
-0.19003
-0.184198
-0.166081
-0.147323
-0.13007
-0.11461
-0.100914
-0.0889544
-0.0786612
-0.0699174
-0.0625904
-0.0565433
-0.0517292
-0.0483714
-0.0454545
-0.191113
-0.186826
-0.167213
-0.146535
-0.127794
-0.111338
-0.0968971
-0.0842996
-0.0734527
-0.0642493
-0.0565435
-0.0501788
-0.0451243
-0.0415991
-0.0386155
-0.191301
-0.187604
-0.167016
-0.144958
-0.124937
-0.107508
-0.0923425
-0.0791567
-0.0678099
-0.0581874
-0.0501318
-0.0434744
-0.0381984
-0.0345088
-0.0314058
-0.19123
-0.187142
-0.165649
-0.142542
-0.12145
-0.103111
-0.0872455
-0.0735105
-0.0617126
-0.051714
-0.0433433
-0.036429
-0.0309693
-0.0271283
-0.0237011
-0.191218
-0.185873
-0.163297
-0.139292
-0.117289
-0.0981239
-0.0815953
-0.0673481
-0.0551438
-0.0448128
-0.0361665
-0.0290403
-0.0234592
-0.0195273
-0.0154225
-0.19131
-0.184026
-0.160101
-0.135229
-0.11242
-0.0925132
-0.0753718
-0.0606541
-0.0480892
-0.0374724
-0.0285955
-0.0213097
-0.0156816
-0.0117538
-0.00664354
-0.191341
-0.1817
-0.156155
-0.13037
-0.106814
-0.0862419
-0.0685479
-0.0534103
-0.040537
-0.0296886
-0.020635
-0.0132509
-0.00764912
-0.00372416
0.00233371
-0.191023
-0.178896
-0.15149
-0.124713
-0.100439
-0.0792715
-0.0610936
-0.0455987
-0.03248
-0.0214666
-0.0123006
-0.00489103
0.00061576
0.00479236
0.0111959
-0.190032
-0.175488
-0.146076
-0.118235
-0.0932598
-0.0715663
-0.0529843
-0.0372092
-0.0239192
-0.0128179
-0.0036102
0.00373722
0.00915325
0.0137387
0.0199869
-0.188103
-0.17118
-0.139818
-0.110893
-0.085244
-0.0630997
-0.0442087
-0.0282459
-0.0148656
-0.00374851
0.00543185
0.0126561
0.0180247
0.022969
0.0287954
-0.184968
-0.165721
-0.132595
-0.102632
-0.0763621
-0.0538612
-0.0347738
-0.0187242
-0.00533617
0.00576519
0.0148325
0.0218924
0.0272481
0.0323791
0.0376822
-0.180413
-0.158935
-0.124286
-0.0933972
-0.0665969
-0.0438619
-0.0246971
-0.00864575
0.00470527
0.015711
0.0245943
0.0314608
0.0367985
0.041931
0.0466727
-0.174267
-0.150696
-0.114784
-0.0831481
-0.0559546
-0.0331241
-0.0139675
0.00202058
0.0152553
0.0260785
0.034715
0.0413587
0.0466293
0.0516336
0.0557742
-0.166414
-0.140941
-0.104003
-0.0718607
-0.0444652
-0.0216308
-0.00255772
0.0132752
0.0263018
0.0368568
0.0451868
0.0515735
0.0567135
0.0615019
0.0649893
-0.15679
-0.129668
-0.0918691
-0.0595316
-0.0321241
-0.00935511
0.00953025
0.0251073
0.0378293
0.048032
0.0559968
0.0620897
0.067042
0.0715464
0.0743138
-0.145371
-0.116935
-0.0783568
-0.0461491
-0.0188816
0.00369213
0.022281
0.0374993
0.0498195
0.0595875
0.06713
0.0728933
0.0776074
0.0817614
0.083724
-0.132168
-0.102795
-0.0635399
-0.0316379
-0.00473043
0.0174909
0.03567
0.0504275
0.0622507
0.0715055
0.0785737
0.0839723
0.088389
0.0921004
0.0931738
-0.11722
-0.08719
-0.0475346
-0.0160202
0.0103162
0.0320164
0.0496674
0.0638634
0.0750991
0.0837693
0.0903189
0.0953147
0.0993452
0.102461
0.10257
-0.100612
-0.0699081
-0.030506
0.000590898
0.0262169
0.0472384
0.0642393
0.0777745
0.0883388
0.0963641
0.102359
0.106903
0.110414
0.112695
0.111673
-0.0824661
-0.0508363
-0.0125303
0.0180716
0.0429049
0.0631165
0.0793483
0.092126
0.101943
0.109275
0.114684
0.118703
0.121515
0.122623
0.120073
-0.0628822
-0.0302195
0.00649135
0.0363374
0.0603009
0.0795988
0.0949523
0.106881
0.115885
0.122483
0.127266
0.130654
0.132542
0.13209
0.127616
-0.0418528
-0.00846879
0.0265507
0.0553427
0.0783301
0.0966243
0.111003
0.122001
0.130134
0.135959
0.140054
0.14267
0.143398
0.141155
0.135075
-0.0193403
0.0140234
0.0475283
0.075049
0.0969262
0.114128
0.127449
0.137444
0.144656
0.149662
0.152981
0.154661
0.154064
0.150296
0.14402
0.00445534
0.0372091
0.0692781
0.0953922
0.116025
0.132043
0.144232
0.153164
0.159408
0.163541
0.165977
0.166584
0.164644
0.159805
0.156044
0.0293333
0.0610772
0.0916693
0.116282
0.135556
0.150304
0.161294
0.16911
0.174341
0.177535
0.178994
0.178463
0.175328
0.169951
0.167856
0.0550974
0.0855667
0.114587
0.137618
0.15544
0.168839
0.178571
0.185225
0.189395
0.191587
0.192001
0.190348
0.18624
0.18069
0.17916
0.0815733
0.110581
0.137921
0.159297
0.175592
0.187577
0.196
0.20145
0.204514
0.205646
0.204982
0.202258
0.197324
0.191639
0.190013
0.108591
0.135996
0.161561
0.181213
0.195923
0.20644
0.21351
0.217719
0.219636
0.219671
0.217924
0.214196
0.208542
0.202632
0.200502
0.13599
0.16168
0.185393
0.203265
0.216341
0.225349
0.231033
0.233969
0.234708
0.233621
0.230797
0.226104
0.219754
0.213497
0.21073
0.163608
0.187496
0.209299
0.225348
0.236755
0.244224
0.248495
0.250135
0.249673
0.247455
0.243571
0.237949
0.230907
0.224182
0.220704
0.191289
0.213306
0.233159
0.247358
0.257071
0.262982
0.265824
0.266152
0.264477
0.261127
0.256193
0.249652
0.241906
0.234656
0.230445
0.21888
0.238977
0.256857
0.269191
0.277197
0.28154
0.282945
0.281956
0.279067
0.27459
0.268623
0.261179
0.252712
0.244878
0.239919
0.246227
0.264375
0.280274
0.290742
0.297041
0.299818
0.299788
0.297483
0.293384
0.287789
0.280799
0.272462
0.263275
0.254844
0.249115
0.273185
0.289372
0.303296
0.31191
0.316514
0.317735
0.31628
0.312671
0.307375
0.300678
0.292684
0.283465
0.273555
0.2645
0.257997
0.299609
0.313841
0.32581
0.332596
0.335525
0.335212
0.332352
0.327457
0.320981
0.313199
0.30422
0.29414
0.283522
0.273838
0.266542
0.32536
0.337661
0.347708
0.352702
0.353989
0.35217
0.347934
0.34178
0.334151
0.32531
0.315368
0.304447
0.293129
0.28281
0.274722
0.350304
0.360715
0.368884
0.372134
0.371822
0.368537
0.362959
0.355579
0.346826
0.336955
0.326082
0.314352
0.302355
0.291396
0.282511
0.374313
0.382889
0.389238
0.390801
0.388941
0.384239
0.377364
0.368798
0.358959
0.348093
0.336321
0.32381
0.311155
0.299563
0.289884
0.397263
0.404075
0.408673
0.408618
0.405271
0.399207
0.391085
0.38138
0.370498
0.358677
0.346048
0.332793
0.319503
0.307282
0.296819
0.41904
0.424172
0.427097
0.425501
0.420737
0.413374
0.404065
0.393274
0.381396
0.368665
0.35522
0.341261
0.327366
0.31453
0.303296
0.439532
0.443084
0.444425
0.441373
0.43527
0.42668
0.416247
0.404427
0.391608
0.378019
0.363807
0.349187
0.334713
0.321278
0.309296
0.458636
0.460719
0.460574
0.456162
0.448804
0.439064
0.427578
0.414795
0.401092
0.386699
0.371773
0.356537
0.34152
0.327507
0.314802
0.476257
0.476996
0.475471
0.469799
0.461278
0.450471
0.438009
0.424332
0.409811
0.394673
0.379087
0.363283
0.347759
0.333194
0.319799
0.492304
0.491838
0.489048
0.482222
0.472637
0.460852
0.447495
0.432998
0.417725
0.401907
0.385719
0.369399
0.353406
0.338321
0.324276
0.506696
0.50518
0.501243
0.493375
0.482827
0.47016
0.455994
0.440755
0.424804
0.408372
0.391645
0.374861
0.358441
0.342871
0.328221
0.519368
0.516957
0.511999
0.503203
0.491802
0.478351
0.463467
0.447571
0.431018
0.414041
0.396838
0.379646
0.362842
0.346828
0.331626
0.530277
0.527097
0.52126
0.511661
0.499519
0.485389
0.469883
0.453415
0.436339
0.418891
0.401278
0.383733
0.366592
0.350178
0.334482
0.539376
0.535546
0.528978
0.518705
0.505942
0.491241
0.47521
0.458262
0.440745
0.4229
0.404942
0.387101
0.369671
0.352909
0.336789
0.54662
0.542263
0.535114
0.5243
0.511039
0.495878
0.479425
0.462088
0.444214
0.426049
0.407814
0.389733
0.372066
0.355017
0.338553
0.551969
0.547215
0.539635
0.528419
0.514783
0.499277
0.482506
0.464875
0.446733
0.428326
0.409881
0.391622
0.37378
0.356513
0.339786
0.555389
0.550377
0.542517
0.531037
0.517155
0.50142
0.484437
0.466611
0.448289
0.42972
0.411138
0.392766
0.374815
0.357401
0.340478
0.556859
0.55173
0.543743
0.532139
0.51814
0.502294
0.485207
0.467283
0.448871
0.430223
0.411574
0.393147
0.375141
0.357645
0.34059
0.556362
0.551262
0.5433
0.531715
0.517727
0.501889
0.484807
0.466884
0.448472
0.429823
0.411173
0.392739
0.374713
0.357186
0.34013
0.553894
0.548967
0.541185
0.529759
0.515915
0.500204
0.483234
0.465412
0.44709
0.42852
0.409937
0.391554
0.373566
0.356089
0.339132
0.549458
0.544847
0.537398
0.526275
0.512703
0.497238
0.480491
0.46287
0.444729
0.42632
0.407875
0.389608
0.371729
0.354392
0.337609
0.543066
0.538909
0.531949
0.521269
0.5081
0.493
0.476582
0.459261
0.441392
0.423227
0.404991
0.386902
0.369202
0.352085
0.335558
0.534741
0.53117
0.524852
0.514756
0.502118
0.487499
0.471519
0.454595
0.437087
0.419243
0.401285
0.383436
0.365975
0.349149
0.332965
0.52451
0.52165
0.516132
0.506758
0.494777
0.480754
0.465315
0.448884
0.431824
0.414381
0.396768
0.379218
0.362049
0.345577
0.329818
0.512405
0.510385
0.505819
0.497301
0.4861
0.472786
0.457991
0.442146
0.42562
0.408655
0.391457
0.374263
0.357438
0.341373
0.326113
0.498453
0.497425
0.493955
0.48642
0.476118
0.463621
0.449569
0.434402
0.418493
0.402082
0.385367
0.368588
0.352155
0.336547
0.321849
0.482693
0.482826
0.480585
0.474155
0.464866
0.453291
0.440079
0.425677
0.410465
0.394682
0.378517
0.362211
0.346218
0.331111
0.317032
0.465186
0.466642
0.465756
0.460551
0.452384
0.441833
0.429553
0.416
0.401562
0.386478
0.370928
0.355151
0.339644
0.325078
0.311668
0.446002
0.448929
0.449522
0.445658
0.438719
0.429287
0.418026
0.405403
0.391812
0.377496
0.362623
0.34743
0.33245
0.318462
0.305768
0.425223
0.429757
0.431945
0.429531
0.423921
0.415699
0.405541
0.393922
0.381249
0.367765
0.35363
0.339072
0.324659
0.311279
0.299341
0.402936
0.409201
0.413093
0.412233
0.408045
0.401119
0.392141
0.381599
0.369907
0.357315
0.343975
0.330103
0.316295
0.30355
0.2924
0.379236
0.387344
0.39304
0.393831
0.391151
0.3856
0.377876
0.368475
0.357827
0.346185
0.333692
0.320553
0.307382
0.295293
0.284959
0.354226
0.364276
0.371867
0.374397
0.373306
0.369203
0.362798
0.3546
0.345049
0.334407
0.32281
0.310448
0.297949
0.286535
0.277037
0.328015
0.340094
0.349661
0.354009
0.354578
0.351989
0.346963
0.34002
0.331617
0.322023
0.311371
0.299828
0.288026
0.277296
0.268651
0.300719
0.314901
0.326514
0.332749
0.335041
0.334024
0.33043
0.324793
0.317581
0.309077
0.299405
0.288716
0.277638
0.267606
0.259824
0.272464
0.288805
0.302522
0.310706
0.314775
0.315379
0.313262
0.30897
0.302987
0.295608
0.286956
0.277159
0.26683
0.257494
0.250577
0.243378
0.261921
0.277789
0.28797
0.29386
0.296126
0.295524
0.292613
0.287892
0.281669
0.274066
0.265184
0.255619
0.246982
0.240937
0.213598
0.234367
0.252421
0.264637
0.272383
0.276342
0.277284
0.275781
0.272346
0.267302
0.260771
0.252835
0.244058
0.236118
0.23093
0.183266
0.206269
0.226528
0.240807
0.25043
0.256105
0.258612
0.258537
0.256409
0.252564
0.247128
0.240153
0.232166
0.224908
0.220583
0.152529
0.177754
0.200227
0.216582
0.228094
0.235496
0.23958
0.240944
0.240134
0.237501
0.23317
0.22717
0.219991
0.213415
0.209932
0.121538
0.148957
0.173635
0.192066
0.205468
0.214598
0.220261
0.223068
0.223583
0.222172
0.218961
0.213947
0.207564
0.201637
0.198995
0.0904495
0.120013
0.146874
0.167367
0.182646
0.193495
0.200729
0.204974
0.206812
0.206625
0.204537
0.200508
0.194918
0.189629
0.187818
0.0594244
0.0910641
0.120066
0.142593
0.159724
0.172271
0.181059
0.186728
0.189878
0.190918
0.189966
0.186933
0.182114
0.177396
0.176399
0.0286258
0.062252
0.0933366
0.117853
0.136799
0.151014
0.161328
0.168394
0.172838
0.175096
0.175285
0.173251
0.169174
0.164955
0.164771
-0.0017791
0.0337217
0.0668087
0.0932555
0.113967
0.129807
0.141611
0.150041
0.155747
0.159207
0.160551
0.159551
0.156213
0.152346
0.152882
-0.0316198
0.00561656
0.0406037
0.0689092
0.0913254
0.108736
0.121982
0.131734
0.13866
0.14329
0.145792
0.145865
0.143276
0.139583
0.140682
-0.0607201
-0.0219276
0.0148391
0.044923
0.0689689
0.0878827
0.102516
0.11354
0.121634
0.127383
0.131034
0.13225
0.130526
0.12688
0.127973
-0.0888958
-0.0487944
-0.0103709
0.0214076
0.0469905
0.0673245
0.0832814
0.0955265
0.10473
0.111529
0.116284
0.118699
0.117995
0.114409
0.114528
-0.115947
-0.0749043
-0.0349092
-0.00152526
0.0254775
0.047136
0.0643462
0.0777558
0.0880107
0.0957789
0.101553
0.105178
0.10574
0.102614
0.100299
-0.141659
-0.100232
-0.0586439
-0.0237689
0.00450785
0.0273882
0.0457742
0.0602863
0.0715373
0.0801959
0.0868724
0.0916208
0.0936159
0.0915422
0.085781
-0.165812
-0.124757
-0.0814183
-0.045239
-0.0158503
0.00815025
0.0276266
0.0431703
0.0553631
0.0648464
0.0723008
0.0780045
0.0814032
0.0809582
0.0753351
-0.188136
-0.148413
-0.103081
-0.0658894
-0.035532
-0.0105082
0.00996116
0.0264541
0.039532
0.0497894
0.057919
0.0643959
0.0690144
0.0705928
0.0671351
-0.208914
-0.170512
-0.123526
-0.0856885
-0.0544638
-0.0285188
-0.00716891
0.0101791
0.0240792
0.0350705
0.0438109
0.0509141
0.0565168
0.0599155
0.0589762
-0.228052
-0.190693
-0.14282
-0.104577
-0.0725597
-0.0458191
-0.0237165
-0.00561631
0.00903411
0.0207203
0.0300369
0.037663
0.044027
0.0488107
0.0497684
-0.245404
-0.208793
-0.161087
-0.122438
-0.0897346
-0.0623591
-0.0396405
-0.0208959
-0.00557679
0.00675647
0.0166239
0.0247011
0.0316311
0.0373919
0.0396665
-0.260838
-0.225113
-0.178119
-0.139122
-0.105925
-0.0781021
-0.0549043
-0.0356255
-0.0197292
-0.0068106
0.00357513
0.0120492
0.0193817
0.0258102
0.0291834
-0.274274
-0.239845
-0.19376
-0.154524
-0.121098
-0.0930211
-0.0694746
-0.0497742
-0.0334007
-0.0199726
-0.00911419
-0.000290467
0.0073244
0.0142192
0.0186139
-0.285673
-0.252987
-0.207874
-0.168702
-0.135254
-0.107094
-0.0833222
-0.0633162
-0.0465709
-0.0327192
-0.0214454
-0.0123152
-0.00449878
0.00274609
0.00806483
-0.29503
-0.264457
-0.220442
-0.181728
-0.148421
-0.120302
-0.0964243
-0.0762321
-0.0592214
-0.0450376
-0.0334115
-0.0240152
-0.0160593
-0.00854067
-0.00240708
-0.302378
-0.274204
-0.231521
-0.193596
-0.16069
-0.132636
-0.108769
-0.0885084
-0.0713355
-0.0569136
-0.0450007
-0.0353743
-0.0273418
-0.0196275
-0.0127659
-0.307803
-0.282249
-0.241199
-0.204317
-0.172017
-0.144189
-0.120365
-0.100135
-0.0828988
-0.0683347
-0.056202
-0.0463751
-0.0383292
-0.0305291
-0.0230027
-0.311454
-0.288686
-0.249583
-0.213935
-0.182377
-0.15494
-0.131299
-0.111103
-0.0939035
-0.0792907
-0.0670105
-0.0570077
-0.0489824
-0.0412698
-0.0331247
-0.313544
-0.29368
-0.256814
-0.222518
-0.191785
-0.164859
-0.14153
-0.121482
-0.104359
-0.0897746
-0.0774269
-0.0672775
-0.0592534
-0.0518534
-0.0431463
-0.314342
-0.297465
-0.263054
-0.230143
-0.200274
-0.173941
-0.151037
-0.131262
-0.114295
-0.0997964
-0.0874553
-0.0772095
-0.0691312
-0.0622175
-0.0531048
-0.314184
-0.300381
-0.268472
-0.236888
-0.207885
-0.182207
-0.15982
-0.140424
-0.123703
-0.10936
-0.0971067
-0.0868364
-0.0786641
-0.0722225
-0.0630763
-0.313414
-0.302822
-0.2732
-0.242811
-0.214658
-0.189693
-0.167903
-0.148966
-0.132571
-0.118458
-0.106367
-0.0961645
-0.0879553
-0.0817079
-0.0731522
-0.312467
-0.304975
-0.277292
-0.247942
-0.220635
-0.196444
-0.17532
-0.156904
-0.140899
-0.12708
-0.115218
-0.105162
-0.0969812
-0.0907421
-0.083296
-0.311749
-0.306866
-0.28071
-0.252276
-0.225847
-0.202505
-0.182108
-0.16426
-0.148693
-0.135223
-0.123647
-0.113799
-0.105712
-0.0995121
-0.0931484
-0.311513
-0.308404
-0.283341
-0.255784
-0.230324
-0.207919
-0.188299
-0.171056
-0.155968
-0.142893
-0.13165
-0.122062
-0.114137
-0.108069
-0.102432
-0.311758
-0.309319
-0.284984
-0.258417
-0.234098
-0.212726
-0.193917
-0.177308
-0.16274
-0.150103
-0.139232
-0.12995
-0.122246
-0.116361
-0.111091
-0.3121
-0.309046
-0.285369
-0.260143
-0.237216
-0.216955
-0.198973
-0.183028
-0.169027
-0.156871
-0.146408
-0.137467
-0.130019
-0.124327
-0.11921
-0.311694
-0.306673
-0.284205
-0.260981
-0.239732
-0.220616
-0.203466
-0.188228
-0.174847
-0.163217
-0.153191
-0.144614
-0.13744
-0.131942
-0.126918
-0.309332
-0.301193
-0.281358
-0.261055
-0.241687
-0.223687
-0.207391
-0.192927
-0.180228
-0.169161
-0.159593
-0.151397
-0.144508
-0.139219
-0.13432
-0.303993
-0.292044
-0.277092
-0.260589
-0.243058
-0.226122
-0.210757
-0.197161
-0.185199
-0.174721
-0.165629
-0.157828
-0.151236
-0.146187
-0.141479
-0.295914
-0.279921
-0.272416
-0.259789
-0.243744
-0.227896
-0.213612
-0.200982
-0.189792
-0.179915
-0.17131
-0.163922
-0.157649
-0.152874
-0.148421
-0.286185
-0.267526
-0.268663
-0.25856
-0.24364
-0.229073
-0.216054
-0.204449
-0.194033
-0.184759
-0.176653
-0.1697
-0.163769
-0.1593
-0.155155
-0.276285
-0.258526
-0.26595
-0.256544
-0.242806
-0.229841
-0.21821
-0.207614
-0.197943
-0.189269
-0.181676
-0.175183
-0.169619
-0.165482
-0.161683
-0.267419
-0.254682
-0.263146
-0.253533
-0.241538
-0.230462
-0.220186
-0.210506
-0.201538
-0.193464
-0.186399
-0.180388
-0.175217
-0.171436
-0.168018
-0.26015
-0.255049
-0.2587
-0.249783
-0.240329
-0.231164
-0.222024
-0.213134
-0.20484
-0.197371
-0.190843
-0.185329
-0.180575
-0.177179
-0.174186
-0.254802
-0.256087
-0.251959
-0.24608
-0.239679
-0.232006
-0.223693
-0.215509
-0.207883
-0.20102
-0.195025
-0.190015
-0.185698
-0.182721
-0.180216
-0.250962
-0.255906
-0.244019
-0.243743
-0.23975
-0.232823
-0.225148
-0.217668
-0.210708
-0.204437
-0.198958
-0.19445
-0.190591
-0.188066
-0.186128
-0.248229
-0.253694
-0.238587
-0.243579
-0.240034
-0.233387
-0.22641
-0.219672
-0.213355
-0.207639
-0.202647
-0.198633
-0.195248
-0.193211
-0.191936
-0.246235
-0.249772
-0.238224
-0.244047
-0.239689
-0.233675
-0.227595
-0.221582
-0.215843
-0.210632
-0.206092
-0.202558
-0.199666
-0.198145
-0.19763
-0.244587
-0.245322
-0.24131
-0.242148
-0.238443
-0.233927
-0.228801
-0.223414
-0.218174
-0.213415
-0.209285
-0.206213
-0.203832
-0.202859
-0.203194
-0.243052
-0.241893
-0.243498
-0.237284
-0.237045
-0.234404
-0.230016
-0.225145
-0.220344
-0.215979
-0.212211
-0.209578
-0.207731
-0.207338
-0.208596
-0.241624
-0.239911
-0.24336
-0.233163
-0.23684
-0.234989
-0.231133
-0.226778
-0.222358
-0.218312
-0.214845
-0.212617
-0.211337
-0.211569
-0.213812
-0.240246
-0.238958
-0.241076
-0.23399
-0.237123
-0.23533
-0.232185
-0.228348
-0.224213
-0.220388
-0.217146
-0.21529
-0.214613
-0.21553
-0.218823
-0.238942
-0.238331
-0.238354
-0.237617
-0.235609
-0.235345
-0.23333
-0.229904
-0.225905
-0.222169
-0.219058
-0.217528
-0.217508
-0.219206
-0.223622
-0.237749
-0.237627
-0.236707
-0.239362
-0.233152
-0.235755
-0.234565
-0.231408
-0.227411
-0.223598
-0.220504
-0.21926
-0.219962
-0.222569
-0.228216
-0.236609
-0.23679
-0.236125
-0.238339
-0.234019
-0.236455
-0.235717
-0.232882
-0.228715
-0.22459
-0.221372
-0.220389
-0.221917
-0.225605
-0.232612
-0.235453
-0.23582
-0.235831
-0.236891
-0.237514
-0.236193
-0.236744
-0.234375
-0.229766
-0.225009
-0.221529
-0.220821
-0.223302
-0.228287
-0.236829
-0.234241
-0.23481
-0.235364
-0.236148
-0.239205
-0.235912
-0.238011
-0.235867
-0.230439
-0.224667
-0.220806
-0.220453
-0.224068
-0.230591
-0.240873
-0.232986
-0.233777
-0.234691
-0.235956
-0.238371
-0.238078
-0.239046
-0.237214
-0.230533
-0.223329
-0.219049
-0.219191
-0.224141
-0.232492
-0.244771
-0.231768
-0.232763
-0.233918
-0.235604
-0.237623
-0.240882
-0.239547
-0.238388
-0.229687
-0.220743
-0.216108
-0.216962
-0.223477
-0.233954
-0.248547
-0.230729
-0.23189
-0.233173
-0.235088
-0.237271
-0.240927
-0.240793
-0.238897
-0.227387
-0.216749
-0.211913
-0.213677
-0.222022
-0.234988
-0.252234
-0.230067
-0.231351
-0.232687
-0.23468
-0.236895
-0.239611
-0.242658
-0.237228
-0.22323
-0.21133
-0.206436
-0.20931
-0.219777
-0.235594
-0.255903
-0.229987
-0.231365
-0.232761
-0.234761
-0.236686
-0.238514
-0.241666
-0.233204
-0.217247
-0.204663
-0.19969
-0.203848
-0.216834
-0.235861
-0.259608
-0.230639
-0.232092
-0.233627
-0.235701
-0.237351
-0.238099
-0.237789
-0.228084
-0.209758
-0.19703
-0.191795
-0.197564
-0.213373
-0.235938
-0.263489
-0.232018
-0.233525
-0.235318
-0.237579
-0.239177
-0.238798
-0.234385
-0.221752
-0.202262
-0.18881
-0.183028
-0.191067
-0.209786
-0.23608
-0.267676
-0.23395
-0.235449
-0.237522
-0.240224
-0.241894
-0.240713
-0.233111
-0.217683
-0.196856
-0.180677
-0.174654
-0.185487
-0.206468
-0.236941
-0.272345