/*--------------------------------*- C++ -*----------------------------------*\
  =========                 |
  \\      /  F ield         | OpenFOAM: The Open Source CFD Toolbox
   \\    /   O peration     | Website:  https://openfoam.org
    \\  /    A nd           | Version:  7
     \\/     M anipulation  |
\*---------------------------------------------------------------------------*/
FoamFile
{
    version     2.0;
    format      ascii;
    class       surfaceScalarField;
    location    "35.9997";
    object      phi;
}
// * * * * * * * * * * * * * * * * * * * * * * * * * * * * * * * * * * * * * //

dimensions      [0 3 -1 0 0 0 0];

internalField   nonuniform List<scalar> 
37105
(
-9.3198e-06
-3.21478e-05
4.14676e-05
-2.22071e-05
-4.44116e-05
5.72989e-05
-3.56845e-05
-4.69797e-05
6.04571e-05
-4.98015e-05
-4.9759e-05
6.3876e-05
-6.46708e-05
-5.26885e-05
6.75578e-05
-8.03492e-05
-5.55745e-05
7.12529e-05
-9.68778e-05
-5.83042e-05
7.48328e-05
-0.000114265
-6.07412e-05
7.81288e-05
-0.000132509
-6.28007e-05
8.10443e-05
-0.000151591
-6.44027e-05
8.34845e-05
-0.000171487
-6.54833e-05
8.53791e-05
-0.000192155
-6.58987e-05
8.65672e-05
-0.000213572
-6.54455e-05
8.68624e-05
-0.000235777
-6.403e-05
8.62348e-05
-6.19385e-05
8.50541e-05
-0.000258892
-9.50755e-06
-2.26402e-05
-2.25598e-05
-3.13593e-05
-3.61982e-05
-3.33413e-05
-5.0495e-05
-3.54623e-05
-6.55703e-05
-3.76132e-05
-8.14932e-05
-3.96516e-05
-9.83187e-05
-4.14787e-05
-0.000116071
-4.29888e-05
-0.000134765
-4.41072e-05
-0.000154401
-4.47661e-05
-0.000174979
-4.49056e-05
-0.000196466
-4.44119e-05
-0.000218811
-4.31003e-05
-0.000242001
-4.08402e-05
-3.78452e-05
-0.000266094
-9.55504e-06
-1.30852e-05
-2.2635e-05
-1.82794e-05
-3.62997e-05
-1.96765e-05
-5.06297e-05
-2.11323e-05
-6.57481e-05
-2.24949e-05
-8.17298e-05
-2.36698e-05
-9.86376e-05
-2.45709e-05
-0.000116505
-2.51215e-05
-0.000135355
-2.52568e-05
-0.000155201
-2.49205e-05
-0.000176051
-2.40551e-05
-0.000197883
-2.25805e-05
-0.000220618
-2.03653e-05
-0.00024419
-1.72682e-05
-1.33553e-05
-0.00026868
-9.46149e-06
-3.62369e-06
-2.2432e-05
-5.30884e-06
-3.599e-05
-6.1186e-06
-5.02077e-05
-6.91456e-06
-6.5207e-05
-7.49557e-06
-8.10624e-05
-7.81442e-06
-9.78376e-05
-7.79575e-06
-0.000115568
-7.39151e-06
-0.000134276
-6.54803e-06
-0.000153972
-5.22462e-06
-0.00017466
-3.367e-06
-0.000196321
-9.19987e-07
-0.000218876
2.18976e-06
-0.000242193
6.04904e-06
1.07622e-05
-0.000266311
-9.22889e-06
5.6052e-06
-2.19551e-05
7.41735e-06
-3.52763e-05
7.20261e-06
-4.92402e-05
7.0493e-06
-6.39631e-05
7.22737e-06
-7.95126e-05
7.73511e-06
-9.59455e-05
8.63714e-06
-0.00011329
9.95331e-06
-0.000131567
1.17286e-05
-0.00015078
1.3988e-05
-0.000170921
1.67741e-05
-0.000191948
2.01075e-05
-0.000213753
2.39946e-05
-0.000236173
2.84691e-05
3.38036e-05
-0.000259215
-8.86105e-06
1.44663e-05
-2.12116e-05
1.97678e-05
-3.41717e-05
2.01628e-05
-4.77477e-05
2.06253e-05
-6.20468e-05
2.15265e-05
-7.71253e-05
2.28136e-05
-9.30281e-05
2.454e-05
-0.000109771
2.66963e-05
-0.000127358
2.93157e-05
-0.000145772
3.24022e-05
-0.000164979
3.59803e-05
-0.000184919
4.00481e-05
-0.000205525
4.46004e-05
-0.000226652
4.95961e-05
5.52008e-05
-0.000248049
-8.36376e-06
2.283e-05
-2.02131e-05
3.16172e-05
-3.26952e-05
3.26448e-05
-4.57585e-05
3.36886e-05
-5.94978e-05
3.52658e-05
-7.39541e-05
3.72699e-05
-8.91566e-05
3.97425e-05
-0.000105105
4.26449e-05
-0.000121787
4.59974e-05
-0.000139168
4.97834e-05
-0.000157191
5.40037e-05
-0.000175757
5.86137e-05
-0.000194739
6.35829e-05
-0.000214039
6.88956e-05
7.45217e-05
-0.00023336
-7.74419e-06
3.05742e-05
-1.8974e-05
4.2847e-05
-3.08698e-05
4.45406e-05
-4.33081e-05
4.61268e-05
-5.63672e-05
4.83249e-05
-7.00706e-05
5.09733e-05
-8.44286e-05
5.41005e-05
-9.94219e-05
5.76382e-05
-0.000115016
6.15911e-05
-0.000131154
6.59221e-05
-0.000147765
7.06144e-05
-0.000164747
7.55956e-05
-0.000181985
8.08214e-05
-0.000199363
8.62732e-05
9.20892e-05
-0.000216931
-7.01138e-06
3.75856e-05
-1.75105e-05
5.33461e-05
-2.87218e-05
5.57519e-05
-4.04363e-05
5.78413e-05
-5.27119e-05
6.06006e-05
-6.5553e-05
6.38143e-05
-7.89501e-05
6.74976e-05
-9.28647e-05
7.15528e-05
-0.000107241
7.59671e-05
-0.000122
8.06816e-05
-0.00013705
8.56644e-05
-0.000152279
9.08242e-05
-0.000167571
9.61134e-05
-0.000182837
0.00010154
0.000107293
-0.000198041
-6.17843e-06
4.3764e-05
-1.58405e-05
6.30082e-05
-2.62789e-05
6.61903e-05
-3.71858e-05
6.87482e-05
-4.8592e-05
7.20068e-05
-6.04825e-05
7.57048e-05
-7.2828e-05
7.98431e-05
-8.55719e-05
8.42968e-05
-9.86401e-05
8.90353e-05
-0.000111937
9.3979e-05
-0.000125356
9.90832e-05
-0.000138777
0.000104245
-0.000152095
0.000109431
-0.000165239
0.000114684
0.000120227
-0.000178174
-5.26574e-06
4.90297e-05
-1.39811e-05
7.17236e-05
-2.35703e-05
7.57795e-05
-3.36007e-05
7.87786e-05
-4.40689e-05
8.2475e-05
-5.49411e-05
8.65771e-05
-6.61689e-05
9.10709e-05
-7.76795e-05
9.58074e-05
-8.93831e-05
0.000100739
-0.000101173
0.000105768
-0.000112933
0.000110844
-0.000124543
0.000115855
-0.000135898
0.000120785
-0.000146944
0.00012573
0.000130904
-0.000157621
-4.25329e-06
5.3283e-05
-1.19436e-05
7.9414e-05
-2.06248e-05
8.44606e-05
-2.97256e-05
8.78794e-05
-3.92036e-05
9.1953e-05
-4.90086e-05
9.63821e-05
-5.9075e-05
0.000101137
-6.93156e-05
0.000106048
-7.96278e-05
0.000111051
-8.98959e-05
0.000116037
-0.000100005
0.000120953
-0.000109839
0.000125689
-0.000119282
0.000130229
-0.000128281
0.000134729
0.000139437
-0.000136814
-3.15342e-06
5.64365e-05
-9.74564e-06
8.60062e-05
-1.74719e-05
9.21869e-05
-2.56044e-05
9.60119e-05
-3.40552e-05
0.000100404
-4.27612e-05
0.000105088
-5.16411e-05
0.000110017
-6.05963e-05
0.000115003
-6.95141e-05
0.000119969
-7.82723e-05
0.000124795
-8.67586e-05
0.000129439
-9.48736e-05
0.000133804
-0.000102492
0.000137847
-0.000109501
0.000141738
0.000145891
-0.000115955
-1.97828e-06
5.84147e-05
-7.40801e-06
9.14359e-05
-1.41427e-05
9.89215e-05
-2.12797e-05
0.000103149
-2.86804e-05
0.000107805
-3.62699e-05
0.000112678
-4.39543e-05
0.000117702
-5.1625e-05
0.000122674
-5.91629e-05
0.000127507
-6.64409e-05
0.000132073
-7.3345e-05
0.000136343
-7.97998e-05
0.000140259
-8.57045e-05
0.000143752
-9.0822e-05
0.000146856
0.000150288
-9.52184e-05
-7.27403e-07
5.91421e-05
-4.96282e-06
9.56713e-05
-1.06692e-05
0.000104628
-1.67934e-05
0.000109273
-2.31323e-05
0.000114143
-2.96013e-05
0.000119147
-3.60939e-05
0.000124194
-4.24934e-05
0.000129073
-4.8677e-05
0.000133691
-5.4516e-05
0.000137912
-5.98877e-05
0.000141715
-6.47264e-05
0.000145097
-6.90139e-05
0.00014804
-7.24481e-05
0.00015029
0.000152577
-7.4737e-05
5.23375e-07
5.86188e-05
-2.45377e-06
9.86485e-05
-7.08339e-06
0.000109257
-1.21865e-05
0.000114376
-1.74617e-05
0.000119418
-2.28167e-05
0.000124502
-2.81311e-05
0.000129509
-3.3282e-05
0.000134224
-3.8144e-05
0.000138553
-4.25906e-05
0.000142358
-4.64911e-05
0.000145616
-4.97527e-05
0.000148359
-5.24415e-05
0.000150728
-5.43845e-05
0.000152233
0.000152815
-5.4623e-05
1.71463e-06
5.69041e-05
7.72511e-08
0.000100286
-3.42552e-06
0.00011276
-7.50047e-06
0.000118451
-1.17157e-05
0.000123634
-1.59742e-05
0.00012876
-2.01312e-05
0.000133666
-2.40629e-05
0.000138156
-2.76397e-05
0.000142129
-3.07387e-05
0.000145457
-3.32315e-05
0.000148108
-3.49761e-05
0.000150104
-3.59726e-05
0.000151725
-3.65693e-05
0.00015283
0.000151236
-3.49902e-05
2.91202e-06
5.39921e-05
2.67111e-06
0.000100527
2.36041e-07
0.000115195
-2.77414e-06
0.000121461
-5.94544e-06
0.000126805
-9.12821e-06
0.000131943
-1.2153e-05
0.00013669
-1.49004e-05
0.000140903
-1.72319e-05
0.000144461
-1.90234e-05
0.000147249
-2.01627e-05
0.000149248
-2.04873e-05
0.000150428
-1.98388e-05
0.000151076
-1.88785e-05
0.000151869
0.000148373
-1.60152e-05
4.05522e-06
4.99369e-05
5.23755e-06
9.93444e-05
4.028e-06
0.000116405
1.97941e-06
0.00012351
-2.37584e-07
0.000129022
-2.33698e-06
0.000134042
-4.26088e-06
0.000138614
-5.85903e-06
0.000142501
-6.98792e-06
0.00014559
-7.51312e-06
0.000147774
-7.3286e-06
0.000149063
-6.30473e-06
0.000149404
-4.33218e-06
0.000149104
-1.04187e-06
0.000148579
0.000145271
2.05989e-06
5.08571e-06
4.48512e-05
7.7235e-06
9.67066e-05
7.7317e-06
0.000116397
6.72392e-06
0.000124518
5.53589e-06
0.00013021
4.41341e-06
0.000135165
3.53131e-06
0.000139496
3.0308e-06
0.000143002
3.05801e-06
0.000145563
3.75666e-06
0.000147075
5.23224e-06
0.000147588
7.60264e-06
0.000147034
1.11035e-05
0.000145603
1.53294e-05
0.000144353
0.000139809
2.07914e-05
5.93425e-06
3.89169e-05
1.00548e-05
9.25861e-05
1.13439e-05
0.000115108
1.13782e-05
0.000124483
1.11549e-05
0.000130433
1.10289e-05
0.000135291
1.11766e-05
0.000139349
1.17463e-05
0.000142432
1.28906e-05
0.000144418
1.47714e-05
0.000145194
1.74862e-05
0.000144873
2.11198e-05
0.0001434
2.61788e-05
0.000140544
3.17576e-05
0.000138775
0.000132767
3.88001e-05
6.51866e-06
3.23983e-05
1.21478e-05
8.6957e-05
1.47973e-05
0.000112458
1.58985e-05
0.000123382
1.66241e-05
0.000129708
1.74494e-05
0.000134465
1.85785e-05
0.00013822
2.01736e-05
0.000140837
2.23864e-05
0.000142206
2.54121e-05
0.000142169
2.93813e-05
0.000140904
3.41836e-05
0.000138598
4.08109e-05
0.000133917
4.79325e-05
0.000131653
0.000124256
5.64426e-05
6.7536e-06
2.56447e-05
1.39062e-05
7.98044e-05
1.80025e-05
0.000108362
2.0224e-05
0.000121161
2.18973e-05
0.000128034
2.36342e-05
0.000132729
2.56989e-05
0.000136155
2.82743e-05
0.000138262
3.1509e-05
0.000138971
3.56096e-05
0.000138068
4.08805e-05
0.000135633
4.67698e-05
0.000132709
5.49344e-05
0.000125752
6.37133e-05
0.000122874
0.000114118
7.38513e-05
6.58133e-06
1.90634e-05
1.52212e-05
7.11646e-05
2.08491e-05
0.000102734
2.42756e-05
0.000117734
2.69153e-05
0.000125395
2.95358e-05
0.000130108
3.24817e-05
0.000133209
3.59885e-05
0.000134755
4.02187e-05
0.000134741
4.52676e-05
0.000133019
5.1898e-05
0.000129002
5.88368e-05
0.00012577
6.84536e-05
0.000116135
7.89569e-05
0.000112371
0.00010188
9.11951e-05
6.01308e-06
1.30503e-05
1.59734e-05
6.12042e-05
2.32046e-05
9.55026e-05
2.79537e-05
0.000112985
3.16072e-05
0.000121741
3.50923e-05
0.000126623
3.88738e-05
0.000129428
4.32383e-05
0.00013039
4.84631e-05
0.000129516
5.43314e-05
0.000127151
6.2355e-05
0.000120979
7.03983e-05
0.000117727
8.11835e-05
0.00010535
9.33044e-05
0.00010025
8.68133e-05
0.000108371
5.13923e-06
7.91104e-06
1.60397e-05
5.03037e-05
2.49183e-05
8.6624e-05
3.11332e-05
0.00010677
3.58804e-05
0.000116994
4.02335e-05
0.00012227
4.48053e-05
0.000124856
4.99252e-05
0.000125271
5.6176e-05
0.000123265
6.27504e-05
0.000120576
7.19912e-05
0.000111738
8.14963e-05
0.000108221
9.33854e-05
9.34609e-05
0.000106268
8.73669e-05
6.8297e-05
0.000124785
4.08881e-06
3.82223e-06
1.53197e-05
3.90728e-05
2.58305e-05
7.61131e-05
3.36554e-05
9.89455e-05
3.96109e-05
0.000111039
4.48546e-05
0.000117026
5.02274e-05
0.000119483
5.59533e-05
0.000119545
6.31998e-05
0.000116019
7.05311e-05
0.000113245
8.05718e-05
0.000101697
9.16567e-05
9.71365e-05
0.000105424
7.96935e-05
0.000118474
7.43173e-05
4.69013e-05
0.000139869
2.99392e-06
8.28312e-07
1.38031e-05
2.82636e-05
2.57854e-05
6.41308e-05
3.53169e-05
8.9414e-05
4.26314e-05
0.000103724
4.88239e-05
0.000110834
5.50131e-05
0.000113294
6.12941e-05
0.000113264
6.93543e-05
0.000107958
7.767e-05
0.00010493
8.79462e-05
9.14211e-05
0.000100337
8.47459e-05
0.000116221
6.38095e-05
0.000130386
6.01518e-05
2.37268e-05
0.000153561
1.99931e-06
-1.171e-06
1.16478e-05
1.86151e-05
2.46524e-05
5.11262e-05
3.58749e-05
7.81915e-05
4.47145e-05
9.48846e-05
5.19507e-05
0.000103597
5.90406e-05
0.000106204
6.58162e-05
0.000106488
7.43018e-05
9.94726e-05
8.41404e-05
9.5091e-05
9.444e-05
8.11215e-05
0.000107372
7.18143e-05
0.000124505
4.66757e-05
0.000141213
4.34441e-05
-3.40274e-07
0.00016528
1.22286e-06
-2.39386e-06
9.15406e-06
1.06839e-05
2.23627e-05
3.79176e-05
3.50748e-05
6.54794e-05
4.55794e-05
8.438e-05
5.39864e-05
9.51904e-05
6.19864e-05
9.82037e-05
6.97019e-05
9.87726e-05
7.7683e-05
9.14915e-05
8.89241e-05
8.38498e-05
9.98e-05
7.02456e-05
0.000113958
5.76567e-05
0.000128198
3.24358e-05
0.000151625
2.00169e-05
-1.84282e-05
0.000169713
7.04784e-07
-3.09864e-06
6.76227e-06
4.62643e-06
1.9039e-05
2.56408e-05
3.27264e-05
5.1792e-05
4.4875e-05
7.22314e-05
5.46826e-05
8.53828e-05
6.34153e-05
8.9471e-05
7.23625e-05
8.98255e-05
8.04109e-05
8.34431e-05
9.14322e-05
7.28285e-05
0.000103471
5.82064e-05
0.000118672
4.24565e-05
0.00013238
1.87272e-05
0.000156345
-3.9474e-06
-3.26613e-05
0.000170578
4.09426e-07
-3.50806e-06
4.76388e-06
2.71978e-07
1.51496e-05
1.52551e-05
2.88675e-05
3.80741e-05
4.22684e-05
5.88306e-05
5.36188e-05
7.40324e-05
6.31431e-05
7.99467e-05
7.3016e-05
7.99525e-05
8.18977e-05
7.45615e-05
9.33388e-05
6.13873e-05
0.00010333
4.82151e-05
0.000121925
2.38621e-05
0.000133728
6.92363e-06
0.000155278
-2.54972e-05
-5.13016e-05
0.000173918
2.88752e-07
-3.79682e-06
3.35886e-06
-2.79813e-06
1.14062e-05
7.20781e-06
2.3929e-05
2.55512e-05
3.76967e-05
4.50629e-05
5.03152e-05
6.14139e-05
6.07097e-05
6.95522e-05
7.15329e-05
6.91293e-05
8.01504e-05
6.5944e-05
9.41213e-05
4.74164e-05
0.000101258
4.1078e-05
0.000121855
3.2649e-06
0.00013065
-1.87064e-06
0.000154106
-4.89539e-05
-6.81938e-05
0.000170999
3.03589e-07
-4.10041e-06
2.54446e-06
-5.039e-06
8.39289e-06
1.35938e-06
1.87154e-05
1.52287e-05
3.15806e-05
3.21977e-05
4.4652e-05
4.83424e-05
5.56525e-05
5.85517e-05
6.73891e-05
5.73927e-05
7.5757e-05
5.7576e-05
8.995e-05
3.32234e-05
9.88042e-05
3.22239e-05
0.000118179
-1.61103e-05
0.000125795
-9.48636e-06
0.000153803
-7.69613e-05
-7.36536e-05
0.000159262
3.9823e-07
-4.49864e-06
2.14014e-06
-6.78091e-06
6.26226e-06
-2.76274e-06
1.40048e-05
7.48621e-06
2.47968e-05
2.14057e-05
3.69841e-05
3.61551e-05
4.80689e-05
4.74669e-05
5.95616e-05
4.59001e-05
6.90373e-05
4.81003e-05
8.03592e-05
2.19016e-05
9.23118e-05
2.02712e-05
0.00010581
-2.96088e-05
0.000117051
-2.07268e-05
0.000142571
-0.000102481
-8.0633e-05
0.00014955
4.89914e-07
-4.98855e-06
1.87228e-06
-8.16328e-06
4.7152e-06
-5.60566e-06
1.00702e-05
2.1312e-06
1.81694e-05
1.33065e-05
2.81712e-05
2.61533e-05
3.84517e-05
3.71863e-05
4.84599e-05
3.5892e-05
5.82584e-05
3.83017e-05
6.7042e-05
1.3118e-05
7.86639e-05
8.64924e-06
8.57169e-05
-3.66618e-05
0.00010426
-3.92697e-05
0.000123486
-0.000121708
-0.000119471
0.000162324
4.87676e-07
-5.47623e-06
1.46374e-06
-9.13934e-06
3.25582e-06
-7.39775e-06
6.60016e-06
-1.21313e-06
1.19527e-05
7.95393e-06
1.91326e-05
1.89735e-05
2.74855e-05
2.88334e-05
3.52427e-05
2.81348e-05
4.37845e-05
2.97599e-05
5.08668e-05
6.03577e-06
6.17586e-05
-2.24253e-06
7.24516e-05
-4.73548e-05
0.000105518
-7.23357e-05
0.000138396
-0.000154586
-0.00018442
0.000203345
3.23411e-07
-5.79964e-06
7.23381e-07
-9.53931e-06
1.45975e-06
-8.13412e-06
3.05873e-06
-2.81211e-06
5.8952e-06
5.11746e-06
1.02004e-05
1.46683e-05
1.58306e-05
2.32032e-05
2.11306e-05
2.28348e-05
2.74752e-05
2.34153e-05
3.35927e-05
-8.17491e-08
5.06999e-05
-1.93497e-05
7.83174e-05
-7.49723e-05
0.00012841
-0.000122429
0.000176299
-0.000202476
-0.000242093
0.000233972
-2.49032e-08
-5.77473e-06
-3.98351e-07
-9.16586e-06
-8.23811e-07
-7.70866e-06
-8.79674e-07
-2.75624e-06
-3.8862e-07
4.62641e-06
1.34286e-06
1.29368e-05
3.74056e-06
2.08055e-05
6.83619e-06
1.97391e-05
1.27736e-05
1.74778e-05
2.50946e-05
-1.24027e-05
5.85469e-05
-5.2802e-05
0.000103637
-0.000120062
0.000160557
-0.000179349
0.000202691
-0.000244609
-0.00028133
0.000241928
-5.18693e-07
-5.25604e-06
-1.79864e-06
-7.88592e-06
-3.42216e-06
-6.08513e-06
-5.06817e-06
-1.11023e-06
-6.49148e-06
6.04971e-06
-7.52928e-06
1.39746e-05
-7.56156e-06
2.08378e-05
-4.74328e-06
1.69209e-05
7.80503e-06
4.92952e-06
3.64091e-05
-4.10068e-05
8.46548e-05
-0.000101048
0.000134873
-0.000170281
0.000182711
-0.000227186
0.000214833
-0.000276731
-0.000312664
0.000246167
-1.07267e-06
-4.18337e-06
-3.26639e-06
-5.6922e-06
-6.02488e-06
-3.32663e-06
-9.01332e-06
1.8782e-06
-1.19363e-05
8.97265e-06
-1.43875e-05
1.64259e-05
-1.46124e-05
2.10627e-05
-7.37902e-06
9.68749e-06
1.85176e-05
-2.09671e-05
6.24092e-05
-8.48984e-05
0.000113951
-0.00015259
0.000157725
-0.000214054
0.000193759
-0.000263221
0.000221338
-0.00030431
-0.000335902
0.000244576
-1.56317e-06
-2.6202e-06
-4.49348e-06
-2.7619e-06
-8.06602e-06
2.45911e-07
-1.18106e-05
5.62275e-06
-1.51611e-05
1.23232e-05
-1.68568e-05
1.81216e-05
-1.38438e-05
1.80497e-05
3.26803e-06
-7.42436e-06
4.20387e-05
-5.97378e-05
9.03149e-05
-0.000133175
0.000135293
-0.000197568
0.000171119
-0.00024988
0.000199839
-0.000291941
0.000221377
-0.000325847
-0.0003541
0.000239574
-1.87499e-06
-7.45209e-07
-5.21178e-06
5.74893e-07
-9.0599e-06
4.09404e-06
-1.27428e-05
9.30566e-06
-1.52517e-05
1.48321e-05
-1.4377e-05
1.72469e-05
-5.21984e-06
8.89254e-06
2.33293e-05
-3.59735e-05
6.8579e-05
-0.000104988
0.00011243
-0.000177026
0.000149383
-0.000234521
0.000178594
-0.000279091
0.000200696
-0.000314044
0.000218225
-0.000343376
-0.000370308
0.000234434
-1.94458e-06
1.19937e-06
-5.28855e-06
3.91886e-06
-8.88338e-06
7.68887e-06
-1.17475e-05
1.21697e-05
-1.24917e-05
1.55764e-05
-8.42839e-06
1.31836e-05
9.08964e-06
-8.6255e-06
4.65358e-05
-7.34197e-05
9.0368e-05
-0.00014882
0.000128098
-0.000214756
0.000157964
-0.000264387
0.000180865
-0.000301992
0.000198805
-0.000331983
0.000213836
-0.000358408
-0.00038364
0.000227168
-1.78573e-06
2.9851e-06
-4.79583e-06
6.92896e-06
-7.72844e-06
1.06215e-05
-9.36336e-06
1.38047e-05
-7.97835e-06
1.41913e-05
-9.78148e-08
5.30304e-06
2.65763e-05
-3.52997e-05
6.77163e-05
-0.00011456
0.000106769
-0.000187873
0.000138202
-0.000246189
0.000161908
-0.000288093
0.000180347
-0.00032043
0.000195135
-0.000346771
0.000207675
-0.000370949
-0.000396126
0.000220162
-1.46733e-06
4.45243e-06
-3.92103e-06
9.38267e-06
-5.98277e-06
1.26832e-05
-6.31738e-06
1.41393e-05
-3.22799e-06
1.11019e-05
1.07612e-05
-8.68613e-06
4.54908e-05
-7.00293e-05
8.4795e-05
-0.000153864
0.000118261
-0.000221339
0.000143761
-0.000271689
0.000162779
-0.000307111
0.000177643
-0.000335294
0.000189946
-0.000359073
0.000201511
-0.000382514
-0.000407364
0.000212748
-1.08204e-06
5.53447e-06
-2.89215e-06
1.11928e-05
-4.06854e-06
1.38596e-05
-3.16623e-06
1.3237e-05
1.82881e-06
6.1069e-06
2.35521e-05
-3.04095e-05
6.27382e-05
-0.000109215
9.78386e-05
-0.000188964
0.000125514
-0.000249014
0.000145996
-0.000292171
0.000161225
-0.000322339
0.000173548
-0.000347617
0.000184416
-0.000369941
0.000194684
-0.000392783
-0.000417575
0.000204896
-7.17259e-07
6.25173e-06
-1.90944e-06
1.2385e-05
-2.27178e-06
1.42219e-05
-6.61553e-07
1.16267e-05
8.56784e-06
-3.12249e-06
3.84245e-05
-6.02661e-05
7.62276e-05
-0.000147018
0.000106798
-0.000219534
0.000129385
-0.000271602
0.0001457
-0.000308486
0.000158156
-0.000334796
0.000168713
-0.000358174
0.000178182
-0.00037941
0.000187712
-0.000402313
-0.000427277
0.000197414
-4.36684e-07
6.68841e-06
-1.11329e-06
1.30616e-05
-7.74487e-07
1.38831e-05
1.56556e-06
9.28668e-06
1.73151e-05
-1.8872e-05
5.29549e-05
-9.59058e-05
8.66281e-05
-0.000180692
0.000112324
-0.000245231
0.000130581
-0.000289858
0.000143703
-0.000321608
0.000154065
-0.000345157
0.000163183
-0.000367291
0.000171865
-0.000388093
0.000180725
-0.000411172
-0.000435955
0.000189403
-2.73561e-07
6.96197e-06
-5.23027e-07
1.3311e-05
1.78367e-07
1.31817e-05
4.71435e-06
4.7507e-06
2.82246e-05
-4.23823e-05
6.44395e-05
-0.000132121
9.38816e-05
-0.000210134
0.000115027
-0.000266376
0.000129771
-0.000304603
0.000140455
-0.000332292
0.000149264
-0.000353967
0.000157434
-0.000375461
0.000165318
-0.000395978
0.000173443
-0.000419297
-0.000444199
0.000181686
-2.23007e-07
7.18498e-06
-1.09488e-07
1.31975e-05
6.62845e-07
1.24094e-05
1.00107e-05
-4.59717e-06
4.03552e-05
-7.27268e-05
7.31284e-05
-0.000164894
9.82857e-05
-0.000235291
0.000115588
-0.000283678
0.00012751
-0.000316524
0.000136381
-0.000341164
0.00014408
-0.000361666
0.000151372
-0.000382752
0.000158649
-0.000403255
0.000166303
-0.000426951
-0.000451655
0.000173759
-2.58545e-07
7.44352e-06
3.57586e-08
1.29032e-05
1.29687e-06
1.11483e-05
1.6765e-05
-2.00653e-05
5.08646e-05
-0.000106826
7.95577e-05
-0.000193587
0.000100398
-0.000256131
0.000114452
-0.000297732
0.000124208
-0.00032628
0.000131743
-0.000348699
0.000138553
-0.000368476
0.000145214
-0.000389413
0.000151957
-0.000409998
0.000158929
-0.000433923
-0.000458563
0.000165837
-2.79362e-07
7.72289e-06
-1.00163e-08
1.26339e-05
3.29363e-06
7.84465e-06
2.55615e-05
-4.23331e-05
5.83561e-05
-0.000139621
8.35889e-05
-0.00021882
0.000100742
-0.000273284
0.000112128
-0.000309118
0.000120204
-0.000334356
0.000126723
-0.000355218
0.000132877
-0.00037463
0.000138936
-0.000395473
0.00014513
-0.000416192
0.000151623
-0.000440417
-0.000464905
0.000157966
-2.70344e-07
7.99323e-06
-1.81139e-07
1.25447e-05
7.20375e-06
4.59761e-07
3.5026e-05
-7.01554e-05
6.40235e-05
-0.000168619
8.55437e-05
-0.00024034
9.96533e-05
-0.000287394
0.000108921
-0.000318386
0.000115709
-0.000341143
0.000121465
-0.000360974
0.000127034
-0.000380199
0.000132585
-0.000401023
0.00013833
-0.000421937
0.000144216
-0.000446302
-0.000470639
0.00014995
-2.68837e-07
8.26207e-06
-2.05754e-07
1.24816e-05
1.19241e-05
-1.16701e-05
4.28223e-05
-0.000101054
6.80521e-05
-0.000193848
8.58944e-05
-0.000258182
9.74476e-05
-0.000298947
0.000105099
-0.000326037
0.00011091
-0.000346955
0.000116038
-0.000366101
0.000121125
-0.000385286
0.000126202
-0.0004061
0.000131438
-0.000427174
0.000136805
-0.000451669
-0.000475903
0.000142068
-1.8143e-07
8.4435e-06
6.54969e-07
1.16452e-05
1.77748e-05
-2.87899e-05
4.79116e-05
-0.00013119
7.04038e-05
-0.000216341
8.51263e-05
-0.000272905
9.44919e-05
-0.000308313
0.000100846
-0.000332391
0.000105889
-0.000351998
0.000110511
-0.000370723
0.000115138
-0.000389913
0.000119758
-0.000410721
0.000124566
-0.000431981
0.000129393
-0.000456496
-0.000480571
0.000134061
-1.46913e-07
8.59041e-06
2.67607e-06
8.82219e-06
2.4535e-05
-5.06489e-05
5.14753e-05
-0.000158131
7.11223e-05
-0.000235988
8.33616e-05
-0.000285144
9.09767e-05
-0.000315928
9.63085e-05
-0.000337723
0.000100743
-0.000356433
0.000104911
-0.000374891
0.000109116
-0.000394118
0.000113314
-0.000414918
0.000117644
-0.000436311
0.000121949
-0.000460801
-0.000484794
0.000126172
-1.67978e-07
8.75839e-06
5.4783e-06
3.17592e-06
3.0651e-05
-7.58216e-05
5.40832e-05
-0.000181563
7.06084e-05
-0.000252513
8.07663e-05
-0.000295302
8.70613e-05
-0.000322223
9.15952e-05
-0.000342256
9.55094e-05
-0.000360347
9.92708e-05
-0.000378653
0.000103064
-0.000397911
0.000106829
-0.000418683
0.000110723
-0.000440205
0.000114541
-0.000464619
-0.000488492
0.000118239
-1.73524e-07
8.93191e-06
8.50047e-06
-5.49807e-06
3.512e-05
-0.000102441
5.56215e-05
-0.000202064
6.92714e-05
-0.000266163
7.75924e-05
-0.000303623
8.28415e-05
-0.000327472
8.67561e-05
-0.000346171
9.02342e-05
-0.000363825
9.36061e-05
-0.000382025
9.69972e-05
-0.000401302
0.000100356
-0.000422042
0.000103791
-0.00044364
0.000107105
-0.000467933
-0.000491772
0.000110385
-1.07668e-07
9.03958e-06
1.17494e-05
-1.73552e-05
3.77038e-05
-0.000128396
5.60944e-05
-0.000220455
6.73374e-05
-0.000277406
7.40641e-05
-0.00031035
7.84432e-05
-0.000331851
8.18476e-05
-0.000349575
8.49305e-05
-0.000366908
8.79307e-05
-0.000385025
9.09275e-05
-0.000404299
9.38665e-05
-0.000424981
9.68599e-05
-0.000446634
9.97185e-05
-0.000470792
-0.000494602
0.000102548
3.89579e-08
9.00062e-06
1.55731e-05
-3.28893e-05
3.89482e-05
-0.000151771
5.54097e-05
-0.000236916
6.48773e-05
-0.000286873
7.03168e-05
-0.000315789
7.3951e-05
-0.000335485
7.69005e-05
-0.000352525
7.96197e-05
-0.000369627
8.22561e-05
-0.000387661
8.48596e-05
-0.000406903
8.73956e-05
-0.000427517
8.99453e-05
-0.000449183
9.2331e-05
-0.000473177
-0.000497007
9.4736e-05
4.38335e-07
8.56229e-06
1.88587e-05
-5.13096e-05
3.97567e-05
-0.000172669
5.39364e-05
-0.000251096
6.19313e-05
-0.000294868
6.64046e-05
-0.000320262
6.94269e-05
-0.000338508
7.19573e-05
-0.000355055
7.43149e-05
-0.000371985
7.65889e-05
-0.000389935
7.88056e-05
-0.000409119
8.09307e-05
-0.000429642
8.30423e-05
-0.000451295
8.49942e-05
-0.000475129
-0.000498965
8.69523e-05
1.17348e-06
7.38881e-06
2.15273e-05
-7.16635e-05
3.99652e-05
-0.000191107
5.19832e-05
-0.000263114
5.86441e-05
-0.000301529
6.236e-05
-0.000323978
6.48899e-05
-0.000341038
6.70311e-05
-0.000357197
6.90312e-05
-0.000373985
7.09412e-05
-0.000391845
7.27687e-05
-0.000410947
7.44921e-05
-0.000431365
7.61706e-05
-0.000452973
7.76727e-05
-0.000476631
-0.000500486
7.91939e-05
2.28353e-06
5.10528e-06
2.34283e-05
-9.28082e-05
3.96929e-05
-0.000207371
4.97146e-05
-0.000273136
5.51601e-05
-0.000306975
5.82344e-05
-0.000327053
6.03521e-05
-0.000343155
6.21358e-05
-0.00035898
6.37782e-05
-0.000375627
6.53189e-05
-0.000393386
6.67595e-05
-0.000412387
6.80769e-05
-0.000432683
6.93208e-05
-0.000454217
7.03873e-05
-0.000477698
-0.000501542
7.1443e-05
3.80039e-06
1.30489e-06
2.455e-05
-0.000113558
3.90037e-05
-0.000221825
4.7244e-05
-0.000281376
5.15934e-05
-0.000311324
5.40826e-05
-0.000329542
5.5825e-05
-0.000344898
5.72692e-05
-0.000360424
5.85604e-05
-0.000376919
5.97318e-05
-0.000394557
6.07823e-05
-0.000413438
6.16972e-05
-0.000433598
6.25114e-05
-0.000455031
6.31258e-05
-0.000478312
-0.000502117
6.37009e-05
5.5936e-06
-4.28871e-06
2.49265e-05
-0.000132891
3.78747e-05
-0.000234773
4.46237e-05
-0.000288125
4.8005e-05
-0.000314706
4.99473e-05
-0.000331484
5.1326e-05
-0.000346276
5.24393e-05
-0.000361538
5.33825e-05
-0.000377862
5.41833e-05
-0.000395358
5.48448e-05
-0.000414099
5.53538e-05
-0.000434107
5.57351e-05
-0.000455413
5.59079e-05
-0.000478485
-0.000502219
5.60097e-05
7.48709e-06
-1.17758e-05
2.47735e-05
-0.000150177
3.62729e-05
-0.000246272
4.18552e-05
-0.000293707
4.44232e-05
-0.000317274
4.58575e-05
-0.000332918
4.68701e-05
-0.000347289
4.76495e-05
-0.000362317
4.82472e-05
-0.000378459
4.86805e-05
-0.000395791
4.89514e-05
-0.00041437
4.90538e-05
-0.000434209
4.90065e-05
-0.000455365
4.87348e-05
-0.000478213
-0.000501836
4.8352e-05
9.27636e-06
-2.10522e-05
2.46059e-05
-0.000165507
3.438e-05
-0.000256047
3.89267e-05
-0.000298254
4.08407e-05
-0.000319188
4.18209e-05
-0.000333899
4.24696e-05
-0.000347938
4.29104e-05
-0.000362758
4.3161e-05
-0.00037871
4.3227e-05
-0.000395857
4.31088e-05
-0.000414252
4.28009e-05
-0.000433901
4.23201e-05
-0.000454885
4.16151e-05
-0.000477508
-0.000500977
4.07563e-05
1.0479e-05
-3.15312e-05
2.41466e-05
-0.000179174
3.23011e-05
-0.000264201
3.58785e-05
-0.000301831
3.72476e-05
-0.000320557
3.78346e-05
-0.000334486
3.81306e-05
-0.000348234
3.82278e-05
-0.000362855
3.81293e-05
-0.000378612
3.78301e-05
-0.000395558
3.7324e-05
-0.000413746
3.6605e-05
-0.000433182
3.56889e-05
-0.000453969
3.45479e-05
-0.000476367
-0.000499638
3.32091e-05
1.11445e-05
-4.26757e-05
2.33349e-05
-0.000191365
3.00723e-05
-0.000270939
3.27762e-05
-0.000304535
3.36632e-05
-0.000321444
3.38967e-05
-0.000334719
3.38549e-05
-0.000348192
3.36092e-05
-0.000362609
3.31592e-05
-0.000378162
3.24943e-05
-0.000394893
3.16043e-05
-0.000412856
3.0478e-05
-0.000432056
2.91216e-05
-0.000452612
2.75302e-05
-0.000474776
-0.000497834
2.57261e-05
1.13488e-05
-5.40245e-05
2.22283e-05
-0.000202244
2.7732e-05
-0.000276442
2.96656e-05
-0.000306469
3.01121e-05
-0.00032189
3.00126e-05
-0.00033462
2.96434e-05
-0.000347823
2.90573e-05
-0.000362023
2.82553e-05
-0.00037736
2.72259e-05
-0.000393864
2.59557e-05
-0.000411586
2.44332e-05
-0.000430533
2.26507e-05
-0.00045083
2.0566e-05
-0.000472691
-0.000495562
1.82935e-05
1.11991e-05
-6.52236e-05
2.08748e-05
-0.00021192
2.53098e-05
-0.000280877
2.65749e-05
-0.000307734
2.66131e-05
-0.000321928
2.61898e-05
-0.000334196
2.5499e-05
-0.000347132
2.45761e-05
-0.0003611
2.34231e-05
-0.000376207
2.2029e-05
-0.00039247
2.03808e-05
-0.000409938
1.84713e-05
-0.000428624
1.62931e-05
-0.000448651
1.36949e-05
-0.000470093
-0.000492778
1.09115e-05
1.08008e-05
-7.60244e-05
1.93466e-05
-0.000220465
2.28423e-05
-0.000284373
2.35225e-05
-0.000308414
2.31801e-05
-0.000321586
2.24367e-05
-0.000333453
2.14258e-05
-0.000346121
2.01682e-05
-0.000359843
1.86661e-05
-0.000374704
1.69091e-05
-0.000390713
1.48835e-05
-0.000407912
1.25873e-05
-0.000426328
1.00288e-05
-0.000446093
7.0179e-06
-0.000467082
-0.000489274
3.51344e-06
1.02255e-05
-8.62499e-05
1.76953e-05
-0.000227935
2.03589e-05
-0.000287037
2.05239e-05
-0.000308579
1.98226e-05
-0.000320885
1.876e-05
-0.00033239
1.74282e-05
-0.000344789
1.58377e-05
-0.000358252
1.39883e-05
-0.000372855
1.18693e-05
-0.000388594
9.46795e-06
-0.000405511
6.78709e-06
-0.000423647
3.78458e-06
-0.00044309
7.26739e-07
-0.000464024
-0.000484997
-3.55002e-06
9.51522e-06
-9.57652e-05
1.59706e-05
-0.000234391
1.78927e-05
-0.000288959
1.75935e-05
-0.00030828
1.6548e-05
-0.000319839
1.51654e-05
-0.000331008
1.35104e-05
-0.000343134
1.15865e-05
-0.000356328
9.39137e-06
-0.00037066
6.91134e-06
-0.000386114
4.13914e-06
-0.000402738
1.04729e-06
-0.000420555
-2.32794e-06
-0.000439715
-5.98341e-06
-0.000460369
-0.000480728
-1.0252e-05
8.66717e-06
-0.000104432
1.42128e-05
-0.000239936
1.54697e-05
-0.000290216
1.47439e-05
-0.000307554
1.3361e-05
-0.000318456
1.16566e-05
-0.000329303
9.67529e-06
-0.000341153
7.41532e-06
-0.000354068
4.87334e-06
-0.000368118
2.02989e-06
-0.00038327
-1.09887e-06
-0.00039961
-4.5097e-06
-0.000417144
-8.18767e-06
-0.000436037
-1.24491e-05
-0.000456107
-0.000476255
-1.69224e-05
7.84932e-06
-0.000112282
1.24673e-05
-0.000244554
1.31063e-05
-0.000290855
1.19791e-05
-0.000306427
1.02639e-05
-0.000316741
8.23557e-06
-0.000327275
5.92289e-06
-0.00033884
3.31975e-06
-0.000351465
4.07317e-07
-0.000365206
-2.74379e-06
-0.000380119
-6.20743e-06
-0.000396146
-9.96414e-06
-0.000413387
-1.40427e-05
-0.000431959
-1.87236e-05
-0.000451426
-0.000471458
-2.35212e-05
7.0458e-06
-0.000119327
1.07627e-05
-0.000248271
1.08134e-05
-0.000290905
9.29977e-06
-0.000304913
7.25708e-06
-0.000314698
4.90042e-06
-0.000324918
2.24519e-06
-0.000336185
-7.04106e-07
-0.000348516
-3.89002e-06
-0.00036202
-7.40724e-06
-0.000376602
-1.12225e-05
-0.000392331
-1.53398e-05
-0.00040927
-1.9838e-05
-0.00042746
-2.48543e-05
-0.00044641
-0.00046629
-3.00214e-05
6.25034e-06
-0.000125578
9.113e-06
-0.000251134
8.60024e-06
-0.000290393
6.70909e-06
-0.000303022
4.33805e-06
-0.000312327
1.63841e-06
-0.000322219
-1.33575e-06
-0.000333211
-4.56629e-06
-0.000345285
-8.11607e-06
-0.00035847
-1.19778e-05
-0.00037274
-1.61415e-05
-0.000388167
-2.06311e-05