/*--------------------------------*- C++ -*----------------------------------*\
  =========                 |
  \\      /  F ield         | OpenFOAM: The Open Source CFD Toolbox
   \\    /   O peration     | Website:  https://openfoam.org
    \\  /    A nd           | Version:  7
     \\/     M anipulation  |
\*---------------------------------------------------------------------------*/
FoamFile
{
    version     2.0;
    format      ascii;
    class       volVectorField;
    location    "35.9997";
    object      U;
}
// * * * * * * * * * * * * * * * * * * * * * * * * * * * * * * * * * * * * * //

dimensions      [0 1 -1 0 0 0 0];

internalField   nonuniform List<vector> 
18750
(
(-0.0274293 -0.160112 -1.49309e-20)
(-0.108356 -0.21141 4.28929e-21)
(-0.198601 -0.213676 3.72924e-20)
(-0.277509 -0.216109 7.76379e-21)
(-0.356135 -0.218644 -1.66776e-20)
(-0.430297 -0.220426 -3.78943e-20)
(-0.502749 -0.221166 3.84418e-20)
(-0.571755 -0.220491 2.55254e-20)
(-0.638373 -0.218326 -1.98697e-20)
(-0.70145 -0.214605 -5.04713e-20)
(-0.761435 -0.209347 1.95516e-19)
(-0.817726 -0.202347 -1.62371e-19)
(-0.871011 -0.19341 9.69844e-20)
(-0.920923 -0.182766 -1.92536e-19)
(-0.967204 -0.171515 4.42786e-20)
(-0.0261452 -0.11998 1.09971e-20)
(-0.106974 -0.160739 7.33643e-21)
(-0.197969 -0.165688 -4.02907e-21)
(-0.277755 -0.170368 4.22784e-20)
(-0.357296 -0.17484 8.4328e-20)
(-0.432494 -0.178371 1.18612e-19)
(-0.506153 -0.180814 -9.8531e-20)
(-0.576619 -0.181859 1.54856e-19)
(-0.645008 -0.181484 1.43289e-19)
(-0.710205 -0.179628 -4.37667e-20)
(-0.772606 -0.176334 -2.07027e-19)
(-0.831525 -0.171433 1.31522e-20)
(-0.887706 -0.164716 4.33732e-20)
(-0.941107 -0.156256 1.26402e-19)
(-0.991863 -0.146943 -1.89452e-19)
(-0.0262776 -0.0793684 1.70579e-20)
(-0.106776 -0.109678 1.45752e-20)
(-0.197639 -0.117331 -6.48031e-20)
(-0.277451 -0.124224 1.62534e-21)
(-0.357045 -0.130583 -1.56106e-19)
(-0.432397 -0.135793 4.24277e-20)
(-0.506316 -0.139844 -1.28985e-19)
(-0.577214 -0.142488 -2.46672e-20)
(-0.646228 -0.143762 -1.17917e-19)
(-0.712274 -0.143606 3.29292e-19)
(-0.775701 -0.142088 4.40539e-19)
(-0.835741 -0.139095 3.89279e-19)
(-0.893135 -0.134475 2.28208e-19)
(-0.948112 -0.128218 1.5876e-19)
(-1.00116 -0.120977 -2.97483e-19)
(-0.0278142 -0.0388947 -4.65184e-20)
(-0.107752 -0.0587646 5.48923e-20)
(-0.197602 -0.0690322 -4.20757e-20)
(-0.276598 -0.0780615 -1.06479e-19)
(-0.35539 -0.0862275 1.97454e-19)
(-0.430023 -0.0930283 -1.96087e-19)
(-0.503262 -0.0985847 2.98272e-19)
(-0.573561 -0.102716 -2.50485e-19)
(-0.642045 -0.105513 1.69459e-19)
(-0.707632 -0.106918 -4.44113e-19)
(-0.770614 -0.107011 -6.47888e-19)
(-0.830151 -0.105759 2.28806e-20)
(-0.886956 -0.103164 -1.33914e-19)
(-0.94144 -0.0991033 -2.78681e-19)
(-0.99435 -0.0938481 1.08204e-18)
(-0.0306916 0.00081264 -2.2576e-20)
(-0.109853 -0.00854123 6.23377e-20)
(-0.197836 -0.0212263 2.18029e-20)
(-0.2752 -0.0322733 8.42387e-20)
(-0.352363 -0.042137 -1.16686e-19)
(-0.425435 -0.0504322 4.53823e-20)
(-0.497079 -0.0574002 6.30583e-19)
(-0.565766 -0.0629258 1.08071e-19)
(-0.63258 -0.0671563 1.7103e-19)
(-0.696456 -0.0700361 -6.03329e-20)
(-0.75767 -0.0716344 6.62157e-20)
(-0.81533 -0.0719402 -3.7744e-20)
(-0.869939 -0.0710852 -6.89693e-19)
(-0.921832 -0.0690191 -3.86259e-19)
(-0.972114 -0.0658393 -1.19513e-18)
(-0.0347927 0.0391158 5.71849e-20)
(-0.112991 0.0404331 1.08057e-20)
(-0.198297 0.0256344 -3.282e-20)
(-0.273258 0.0127254 -2.01185e-20)
(-0.348018 0.00130258 4.17149e-20)
(-0.418747 -0.00837309 -4.95229e-19)
(-0.487972 -0.0166469 -8.82165e-20)
(-0.554166 -0.0234624 2.99009e-20)
(-0.618332 -0.0290176 -2.80576e-19)
(-0.679365 -0.0332836 -3.60666e-19)
(-0.737464 -0.0363671 2.82255e-19)
(-0.791728 -0.0382899 -2.8928e-19)
(-0.842655 -0.0392447 9.04713e-19)
(-0.890616 -0.0392119 -6.97033e-19)
(-0.936837 -0.0377519 1.58481e-18)
(-0.0399567 0.0754363 -4.66772e-20)
(-0.117048 0.0876577 -8.96577e-20)
(-0.198939 0.071155 5.1062e-20)
(-0.270782 0.0565799 3.65655e-19)
(-0.342426 0.0437679 3.97351e-19)
(-0.410098 0.0328473 -1.42429e-19)
(-0.476154 0.023384 6.75237e-20)
(-0.539057 0.015382 5.14865e-20)
(-0.599722 0.00860905 5.53393e-19)
(-0.657039 0.00308666 8.04746e-19)
(-0.711163 -0.00132079 -3.96498e-19)
(-0.761189 -0.00468299 -7.66811e-19)
(-0.807455 -0.00731695 -1.4508e-18)
(-0.84987 -0.00942175 2.72965e-19)
(-0.889503 -0.010796 -1.90192e-18)
(-0.0459812 0.109248 -4.10974e-20)
(-0.121873 0.132681 -5.26593e-20)
(-0.199701 0.114992 -4.52934e-19)
(-0.267786 0.0989885 1.66712e-19)
(-0.335682 0.0849828 -2.3801e-19)
(-0.399677 0.0729651 1.79952e-19)
(-0.461926 0.0624305 1.88102e-19)
(-0.520874 0.0533336 -8.72255e-19)
(-0.577326 0.0454089 -6.13284e-19)
(-0.63016 0.038671 -1.0503e-18)
(-0.679488 0.0329779 -1.74915e-19)
(-0.724455 0.0282883 8.10194e-19)
(-0.765522 0.0243603 3.22778e-18)
(-0.802763 0.0209377 -4.91766e-19)
(-0.83691 0.0177035 9.08295e-19)
(-0.0526227 0.14005 2.38478e-19)
(-0.12728 0.17506 1.0758e-19)
(-0.200502 0.156807 4.9548e-19)
(-0.264272 0.139654 -4.05723e-19)
(-0.327883 0.124675 2.07232e-19)
(-0.38768 0.111725 -3.76034e-19)
(-0.4456 0.100249 -9.16756e-19)
(-0.500073 0.0901617 8.49298e-19)
(-0.551792 0.08117 1.08436e-19)
(-0.59964 0.0732748 1.57168e-18)
(-0.643686 0.0663058 -5.18802e-19)
(-0.683061 0.060204 -2.42228e-18)
(-0.718217 0.0548129 -1.51338e-18)
(-0.749314 0.0501918 1.70258e-19)
(-0.777078 0.0465234 -7.68112e-19)
(-0.059608 0.167396 -2.0142e-19)
(-0.133054 0.214384 -1.1879e-19)
(-0.201244 0.196296 1.78573e-19)
(-0.260236 0.178319 2.67031e-20)
(-0.319121 0.162611 -8.30383e-20)
(-0.3743 0.148911 -9.69422e-20)
(-0.427485 0.136635 4.13773e-19)
(-0.477092 0.125668 -5.12744e-19)
(-0.523706 0.115703 5.2259e-19)
(-0.56624 0.106742 6.74547e-19)
(-0.604761 0.0986115 -1.22582e-18)
(-0.638415 0.0912351 2.39783e-18)
(-0.667587 0.0844467 2.95787e-19)
(-0.69245 0.0783971 4.09598e-19)
(-0.713846 0.073436 9.30178e-19)
(-0.0666601 0.190924 4.1088e-19)
(-0.138962 0.250275 -1.4244e-19)
(-0.201812 0.233205 -6.68913e-19)
(-0.255662 0.214778 2.91657e-19)
(-0.309481 0.198601 -1.74028e-19)
(-0.359726 0.184351 2.15256e-19)
(-0.407878 0.171428 1.72902e-18)
(-0.452351 0.159701 8.804e-19)
(-0.493625 0.148857 6.03802e-19)
(-0.530652 0.138906 -2.08226e-18)
(-0.563524 0.129695 2.34579e-18)
(-0.59145 0.121184 8.81072e-19)
(-0.614765 0.113239 -1.44294e-18)
(-0.633597 0.106064 1.77598e-18)
(-0.648831 0.100058 -8.15878e-20)
(-0.073487 0.210285 1.08814e-19)
(-0.144739 0.282391 1.89125e-20)
(-0.202058 0.267334 -5.67462e-20)
(-0.250524 0.248869 -5.27105e-19)
(-0.299043 0.232498 1.10291e-18)
(-0.344133 0.21791 -5.9078e-19)
(-0.387056 0.204508 -1.82762e-18)
(-0.426238 0.192156 5.92257e-19)
(-0.462059 0.180545 -9.74784e-19)
(-0.493516 0.169693 1.55964e-18)
(-0.520735 0.159479 -2.88344e-18)
(-0.543008 0.149918 2.28151e-19)
(-0.560652 0.140952 1.28681e-18)
(-0.573792 0.132852 -2.74189e-18)
(-0.583401 0.125918 -6.59597e-19)
(-0.0797603 0.225135 -2.89042e-19)
(-0.150116 0.310473 8.59693e-20)
(-0.201834 0.29854 2.87372e-19)
(-0.244795 0.280475 -1.81692e-20)
(-0.287872 0.264189 -1.53144e-18)
(-0.327679 0.249491 1.47721e-19)
(-0.365268 0.235791 5.96915e-19)
(-0.399092 0.222962 -1.68127e-18)
(-0.429442 0.210711 1.32295e-18)
(-0.455369 0.199076 -1.25058e-18)
(-0.477036 0.187973 3.51914e-18)
(-0.493824 0.177468 -1.48739e-18)
(-0.506014 0.167579 1.85598e-18)
(-0.513749 0.15866 3.83604e-18)
(-0.518245 0.150945 1.68143e-18)
(-0.085113 0.235198 -1.26667e-19)
(-0.154804 0.334323 -1.02598e-20)
(-0.201003 0.326722 -4.27236e-21)
(-0.238446 0.309519 -3.39685e-20)
(-0.276029 0.2936 -7.76968e-19)
(-0.310502 0.279028 -3.63499e-19)
(-0.34273 0.265221 5.9154e-19)
(-0.371205 0.252074 3.79508e-19)
(-0.396137 0.239326 -2.21711e-18)
(-0.416639 0.227043 -1.2301e-19)
(-0.432916 0.215188 -6.89805e-19)
(-0.444456 0.203892 1.43367e-18)
(-0.451452 0.193212 -2.05456e-18)
(-0.453993 0.183527 -3.05846e-19)
(-0.453766 0.17513 -1.90119e-18)
(-0.0891312 0.240237 5.94444e-19)
(-0.158503 0.353793 -5.47857e-19)
(-0.19943 0.351793 -7.44668e-19)
(-0.231455 0.335956 1.37846e-18)
(-0.263559 0.320688 1.24798e-18)
(-0.292722 0.306481 1.65793e-18)
(-0.319631 0.292767 7.80704e-20)
(-0.342826 0.279471 1.22587e-18)
(-0.362448 0.266378 1.68466e-18)
(-0.377666 0.25359 2.59512e-18)
(-0.388729 0.241131 -1.2391e-18)
(-0.395265 0.229207 2.65733e-18)
(-0.397409 0.217911 -9.17035e-21)
(-0.394952 0.207535 -1.39012e-18)
(-0.389992 0.198427 -3.50574e-18)
(-0.0913892 0.240174 -3.96868e-19)
(-0.160916 0.368764 6.00534e-19)
(-0.197013 0.373662 4.19672e-19)
(-0.22379 0.35976 -1.32464e-18)
(-0.250509 0.345433 -6.2699e-19)
(-0.274446 0.331842 -1.20262e-19)
(-0.296131 0.31842 -9.24213e-19)
(-0.314162 0.305149 -1.62029e-18)
(-0.328618 0.291874 -2.85602e-18)
(-0.338725 0.278736 -1.27757e-18)
(-0.344744 0.265817 1.8395e-18)
(-0.346483 0.253423 -3.91273e-18)
(-0.344149 0.241738 1.37563e-19)
(-0.336969 0.230835 2.57625e-18)
(-0.326763 0.2208 3.76051e-18)
(-0.0915949 0.235257 -1.00373e-18)
(-0.161766 0.379155 7.65578e-19)
(-0.193643 0.392192 -1.33676e-18)
(-0.215441 0.380933 -6.72613e-19)
(-0.236909 0.367846 -3.71873e-20)
(-0.25576 0.355112 9.52333e-19)
(-0.27237 0.342179 1.58716e-18)
(-0.285383 0.329117 5.48256e-19)
(-0.294842 0.315824 8.14658e-19)
(-0.300025 0.302496 -2.32636e-18)
(-0.301177 0.289276 7.30824e-20)
(-0.298216 0.276555 -1.88909e-18)
(-0.291689 0.264651 -1.41593e-18)
(-0.280517 0.253513 -4.11796e-18)
(-0.263972 0.242467 -5.28512e-20)
(-0.0895783 0.225661 8.79147e-19)
(-0.160792 0.384696 1.4832e-19)
(-0.189221 0.40732 1.90149e-19)
(-0.20634 0.399448 1.65154e-18)
(-0.222799 0.387942 7.22366e-19)
(-0.236754 0.376317 -8.96561e-19)
(-0.248461 0.364061 7.22981e-19)
(-0.256633 0.351385 -4.34147e-19)
(-0.261269 0.338243 -8.98762e-19)
(-0.261724 0.324892 1.01486e-18)
(-0.258193 0.31153 -3.56324e-18)
(-0.2506 0.298595 -1.55449e-19)
(-0.239891 0.286594 -2.10969e-18)
(-0.225719 0.275633 3.28997e-18)
(-0.201605 0.26371 2.97109e-19)
(-0.0852764 0.211535 -3.54261e-19)
(-0.15777 0.385206 -9.90902e-19)
(-0.183672 0.418952 2.51441e-19)
(-0.196516 0.41531 -1.95389e-18)
(-0.20821 0.405802 -1.34461e-18)
(-0.217489 0.39546 -7.81047e-19)
(-0.22452 0.384069 -1.39474e-18)
(-0.228033 0.371965 1.37313e-18)
(-0.228031 0.359137 1.98472e-18)
(-0.223925 0.345915 3.9717e-18)
(-0.215928 0.332582 -1.97574e-19)
(-0.203794 0.319604 4.66182e-18)
(-0.188501 0.307614 1.86324e-18)
(-0.17253 0.296762 1.48835e-18)
(-0.140478 0.285616 -3.30187e-18)
(-0.0787586 0.193143 6.22627e-19)
(-0.152616 0.380518 1.52302e-18)
(-0.176856 0.426835 1.0567e-18)
(-0.185992 0.428574 1.37168e-18)
(-0.193239 0.421481 1.14596e-21)
(-0.198059 0.412566 5.58393e-19)
(-0.200629 0.402239 9.09988e-21)
(-0.199696 0.390865 -1.07576e-18)
(-0.195226 0.378504 1.71769e-18)
(-0.186714 0.365568 -6.0935e-18)
(-0.174407 0.35242 1.82072e-18)
(-0.157957 0.339554 -1.21593e-18)
(-0.137805 0.327768 2.44462e-19)
(-0.119698 0.316594 -1.88281e-18)
(-0.0813437 0.308393 -2.14509e-18)
(-0.0703099 0.170947 -1.02245e-18)
(-0.145343 0.370427 1.37631e-18)
(-0.168718 0.430708 -3.25626e-19)
(-0.174752 0.439129 -6.03587e-19)
(-0.177928 0.434937 1.25816e-18)
(-0.178576 0.427683 1.38171e-19)
(-0.176908 0.418585 -3.78856e-19)
(-0.171729 0.408091 -4.46271e-20)
(-0.16299 0.39634 -1.11193e-18)
(-0.150167 0.383808 2.93043e-18)
(-0.133677 0.370991 1.84216e-18)
(-0.11314 0.358484 9.89591e-19)
(-0.0878109 0.346985 -9.71958e-20)
(-0.0678677 0.335575 2.42903e-18)
(-0.0218992 0.331336 -2.24875e-19)
(-0.0604997 0.145631 3.0285e-19)
(-0.136046 0.354656 -3.13508e-19)
(-0.159257 0.430203 2.72078e-19)
(-0.16282 0.446773 1.11704e-18)
(-0.162335 0.446129 -7.19308e-19)
(-0.159121 0.440807 -4.82241e-19)
(-0.15345 0.433094 -9.06528e-19)
(-0.144257 0.4236 7.28029e-19)
(-0.131404 0.412594 -7.69599e-19)
(-0.114409 0.400618 -9.14783e-19)
(-0.0937057 0.388252 -1.58479e-18)
(-0.0695172 0.376208 -9.31421e-19)
(-0.0382207 0.365224 3.48777e-18)
(-0.0176502 0.353672 -4.83419e-18)
(0.0383056 0.354428 -1.35103e-19)
(-0.0501674 0.118165 1.31152e-18)
(-0.124905 0.332862 -4.97437e-19)
(-0.148484 0.424814 -1.32764e-18)
(-0.150248 0.451204 -3.57067e-19)
(-0.146549 0.45497 1.91556e-18)
(-0.139784 0.451909 -4.44206e-20)
(-0.130384 0.445723 9.59259e-19)
(-0.117358 0.437362 -5.2703e-19)
(-0.100637 0.427213 -2.11231e-18)
(-0.0795259 0.415869 4.95907e-18)
(-0.0544859 0.404049 -3.71138e-18)
(-0.0273382 0.392806 1.12037e-18)
(0.0114134 0.382339 -4.96658e-18)
(0.0304903 0.369949 1.76118e-18)
(0.0995637 0.378153 1.4602e-18)
(-0.0401876 0.089952 -4.63857e-19)
(-0.112166 0.304709 -1.51891e-18)
(-0.136407 0.413921 6.90327e-19)
(-0.1371 0.451955 1.22408e-19)
(-0.130682 0.461267 -1.73471e-18)
(-0.120694 0.460921 1.0831e-18)
(-0.107822 0.456441 6.48809e-20)
(-0.0912223 0.44928 -2.70865e-19)
(-0.0707268 0.440088 -2.17525e-18)
(-0.0458583 0.429566 -2.44901e-19)
(-0.0157381 0.4182 2.98104e-18)
(0.0128811 0.407756 2.57017e-19)
(0.0613762 0.398894 7.21944e-19)
(0.0763307 0.383137 2.09912e-18)
(0.161847 0.402548 -5.37811e-18)
(-0.031037 0.0628656 -7.14576e-19)
(-0.0981172 0.270077 2.08035e-20)
(-0.123045 0.396829 -8.8006e-19)
(-0.123432 0.448351 7.20497e-19)
(-0.114852 0.464666 9.89011e-19)
(-0.101988 0.467706 -7.48833e-19)
(-0.0859681 0.465152 -1.3006e-19)
(-0.0659312 0.459323 -6.50614e-19)
(-0.0418845 0.451062 1.61093e-18)
(-0.013709 0.441438 3.13278e-19)
(0.0226006 0.430563 -4.33926e-18)
(0.0508955 0.420919 1.1985e-18)
(0.112095 0.415112 7.51559e-19)
(0.118889 0.391968 -3.39253e-18)
(0.225085 0.425819 7.7156e-19)
(-0.0225956 0.0389405 1.6371e-19)
(-0.0831275 0.229422 4.41422e-19)
(-0.108466 0.372819 8.27385e-19)
(-0.109304 0.439479 -7.07235e-19)
(-0.0991846 0.46459 -3.02581e-20)
(-0.0838441 0.472009 1.82337e-18)
(-0.0649546 0.471748 -8.80415e-20)
(-0.0419177 0.467276 -1.2675e-20)
(-0.0138513 0.459973 2.65915e-18)
(0.0160949 0.451498 -1.54352e-18)
(0.0609412 0.440874 1.11579e-18)
(0.0855975 0.430494 -3.18631e-18)
(0.164459 0.433844 2.77887e-19)
(0.158674 0.39624 -8.67877e-19)
(0.287273 0.443854 1.47747e-18)
(-0.0145572 0.0197726 -1.21498e-19)
(-0.0677753 0.184278 5.4803e-19)
(-0.0928701 0.341217 -7.35943e-19)
(-0.0947889 0.424204 1.56249e-18)
(-0.0838146 0.460206 -1.33191e-18)
(-0.0664561 0.473374 -1.201e-18)
(-0.0450419 0.475952 -7.51635e-19)
(-0.0193759 0.47316 -1.6579e-18)
(0.013031 0.466405 -3.2653e-18)
(0.0434132 0.458967 4.96769e-19)
(0.098932 0.450378 2.63284e-18)
(0.11676 0.433882 2.13179e-18)
(0.21682 0.452643 3.68509e-19)
(0.19844 0.404117 -1.80436e-18)
(0.347764 0.45261 -9.1981e-19)
(-0.00703807 0.00599129 2.93968e-19)
(-0.0527035 0.137729 5.09469e-19)
(-0.076666 0.301587 -2.20591e-18)
(-0.0800197 0.401256 -1.54486e-18)
(-0.0689119 0.450354 -4.64772e-20)
(-0.0501111 0.471101 1.26141e-18)
(-0.0262862 0.47734 -4.77078e-19)
(0.000747383 0.476433 3.6912e-18)
(0.0394202 0.470683 2.9848e-19)
(0.0669046 0.462903 -2.14521e-18)
(0.137144 0.459924 -2.03332e-18)
(0.143359 0.430762 -3.28172e-18)
(0.267941 0.465329 3.63177e-18)
(0.237097 0.413596 2.43877e-18)
(0.406542 0.459731 -1.27717e-20)
(-0.000682089 -0.00277233 -8.18555e-19)
(-0.0381505 0.0942536 -1.50307e-18)
(-0.060371 0.254223 1.0955e-18)
(-0.0652386 0.369427 1.35548e-18)
(-0.0546656 0.433556 8.53845e-19)
(-0.0352369 0.464016 -8.84731e-19)
(-0.00892826 0.475268 2.2764e-18)
(0.0184063 0.476871 -3.31072e-18)
(0.0636343 0.472049 3.73851e-18)
(0.0878772 0.46117 2.42748e-18)
(0.172604 0.471759 -7.775e-19)
(0.169998 0.424608 -1.09623e-18)
(0.309263 0.467094 -1.45929e-18)
(0.281888 0.420896 -2.93733e-18)
(0.451095 0.456695 3.54373e-18)
(0.00401848 -0.00774157 2.29244e-18)
(-0.0242217 0.0580761 1.74472e-18)
(-0.044548 0.200999 3.99062e-19)
(-0.0508362 0.327932 -2.50796e-20)
(-0.041339 0.408078 -2.98511e-19)
(-0.0223099 0.450594 -3.47193e-19)
(0.00663794 0.468384 -1.78055e-18)
(0.032676 0.473089 3.14861e-18)
(0.0868529 0.473726 -2.51488e-18)
(0.103248 0.449477 -2.56711e-20)
(0.203238 0.477329 2.49188e-18)
(0.201018 0.428761 1.77531e-18)
(0.334014 0.449597 1.7735e-18)
(0.329523 0.435169 -2.06994e-20)
(0.490883 0.434047 -2.13161e-18)
(0.00722579 -0.0102975 -1.37424e-18)
(-0.0113516 0.031014 -1.41427e-18)
(-0.0297479 0.146427 4.33753e-19)
(-0.0373504 0.277107 -7.13271e-19)
(-0.0292279 0.372189 -3.49028e-19)
(-0.0119924 0.428677 1.26092e-18)
(0.019929 0.455846 -3.31827e-19)
(0.0434499 0.461656 -3.19064e-19)
(0.103884 0.473342 -1.02004e-18)
(0.125845 0.442008 -2.40716e-18)
(0.208037 0.456817 1.12715e-18)
(0.256497 0.445742 -1.34695e-18)
(0.320697 0.419762 -2.07262e-18)
(0.420383 0.450769 -9.38073e-19)
(0.449312 0.39869 3.78845e-18)
(0.00937678 -0.0114031 1.5382e-18)
(-0.00020999 0.0124898 -1.20248e-18)
(-0.0161003 0.0974548 -1.9774e-18)
(-0.0251986 0.219689 2.10156e-19)
(-0.0187128 0.325149 4.73491e-19)
(-0.0045874 0.395613 -3.57271e-19)
(0.0289644 0.435614 9.54383e-19)
(0.0530113 0.443469 1.99077e-19)
(0.109737 0.459972 -1.48726e-19)
(0.151215 0.441203 7.16343e-20)
(0.210633 0.433768 -1.17146e-18)
(0.284783 0.433877 1.49437e-19)
(0.343713 0.417121 6.69319e-19)
(0.43513 0.421455 -5.24076e-19)
(0.488705 0.396424 3.54805e-18)
(0.0110349 -0.0116727 3.19787e-19)
(0.00900793 0.000721316 -6.86271e-19)
(-0.00336087 0.0594303 1.91548e-18)
(-0.014172 0.161706 1.48413e-18)
(-0.0101823 0.268662 -1.50618e-18)
(9.10403e-05 0.350066 -1.14308e-19)
(0.0320253 0.403754 -7.19144e-19)
(0.0597785 0.418 -2.9092e-19)
(0.109351 0.436389 2.1071e-18)
(0.164347 0.421239 1.10296e-18)
(0.220074 0.429308 1.54306e-18)
(0.294052 0.389589 -1.23323e-18)
(0.369189 0.427162 8.26943e-19)
(0.423172 0.363664 -4.75772e-19)
(0.548026 0.416826 -4.52504e-18)
(0.0127238 -0.0115476 2.55137e-19)
(0.016746 -0.00630739 4.11627e-19)
(0.00832141 0.0332488 -1.05256e-18)
(-0.00375561 0.110827 -1.20014e-18)
(-0.00365694 0.208211 -1.1e-18)
(0.0022002 0.293431 9.30726e-20)
(0.0290962 0.358745 8.35828e-19)
(0.0609429 0.379272 -1.54071e-18)
(0.101893 0.406222 -8.3502e-19)
(0.172929 0.383573 4.85914e-19)
(0.208578 0.405852 -1.42352e-18)
(0.327003 0.364717 1.47079e-19)
(0.345408 0.393698 9.8848e-19)
(0.466235 0.341437 -1.30863e-18)
(0.542848 0.399816 1.06379e-18)
(0.0147524 -0.0114054 -5.75764e-19)
(0.0234755 -0.0104682 1.30272e-18)
(0.0183401 0.0163988 8.58142e-19)
(0.00581895 0.071859 5.73039e-19)
(0.0010975 0.151468 9.38816e-19)
(0.00186361 0.230959 -9.40911e-20)
(0.0207437 0.302097 -7.59607e-19)
(0.056239 0.326817 1.64962e-19)
(0.0840309 0.359512 1.11554e-18)
(0.176762 0.344849 -1.79478e-18)
(0.176949 0.343553 -8.7101e-19)
(0.355216 0.350306 7.76426e-20)
(0.27666 0.301166 -2.83363e-19)
(0.541314 0.345977 1.5551e-18)
(0.444775 0.300037 -1.49502e-18)
(0.0171281 -0.0115156 6.27703e-19)
(0.0291511 -0.0133204 4.1792e-19)
(0.025895 0.00519613 -4.90601e-20)
(0.0131855 0.0441149 -3.70388e-19)
(0.00384405 0.103863 8.36105e-20)
(-0.00160901 0.169831 -1.08814e-18)
(0.0090854 0.23855 2.46713e-19)
(0.0423753 0.26347 -4.94993e-19)
(0.0634565 0.297734 -5.17407e-19)
(0.155768 0.28861 1.22539e-18)
(0.156693 0.274768 1.83707e-18)
(0.321158 0.290376 8.57112e-19)
(0.236168 0.211288 9.07085e-19)
(0.55771 0.315548 -1.16574e-18)
(0.384868 0.203768 -1.22657e-18)
(0.0195281 -0.0119568 5.19131e-19)
(0.0331784 -0.0159486 -9.84961e-19)
(0.0300486 -0.00365817 -4.74137e-19)
(0.0165448 0.0233466 -1.05749e-18)
(0.00312041 0.0656772 4.72981e-19)
(-0.00911079 0.11485 1.15073e-18)
(-0.0049908 0.173975 -1.32293e-18)
(0.018958 0.193204 4.69216e-19)
(0.0412555 0.229145 9.41741e-19)
(0.11651 0.21009 2.48368e-19)
(0.137753 0.209167 -1.14883e-18)
(0.264172 0.203859 -4.94537e-19)
(0.283372 0.189507 -4.98088e-21)
(0.572391 0.282556 6.82158e-19)
(0.593954 0.280019 2.72604e-18)
(0.0213559 -0.0125928 -8.41218e-19)
(0.0346666 -0.0188475 -8.41893e-19)
(0.0298481 -0.0122501 4.69326e-19)
(0.0144569 0.00530852 1.87781e-18)
(-0.00302651 0.0335948 -1.21541e-18)
(-0.0211532 0.0666301 3.41607e-19)
(-0.0233729 0.111609 5.14556e-19)
(-0.0102981 0.121692 -3.86088e-20)
(0.0123709 0.155058 1.16073e-19)
(0.0738095 0.127469 5.02235e-19)
(0.115694 0.137016 -4.56102e-19)
(0.276943 0.157185 -1.01437e-18)
(0.421502 0.222351 -9.58266e-19)
(0.692503 0.313604 8.05453e-19)
(0.846212 0.395982 2.64864e-19)
(0.0218996 -0.0131277 -2.07282e-19)
(0.0328146 -0.0219317 1.66925e-18)
(0.0246909 -0.0212419 3.50408e-19)
(0.00625335 -0.0121876 4.96735e-19)
(-0.0157078 0.0044518 4.50242e-19)
(-0.0382885 0.0232053 4.30409e-19)
(-0.0481741 0.0525108 -1.55901e-19)
(-0.0426932 0.0531911 2.81071e-19)
(-0.0219244 0.0791779 1.38355e-19)
(0.0492921 0.0613296 6.17879e-19)
(0.159667 0.0996495 5.23772e-20)
(0.397338 0.18168 7.09208e-19)
(0.611112 0.280804 -5.98228e-19)
(0.850886 0.377554 -6.26624e-19)
(0.956102 0.431659 4.39139e-19)
(0.0205468 -0.0132004 7.49227e-19)
(0.0272487 -0.0246719 -6.84762e-19)
(0.0147639 -0.0300891 7.13906e-20)
(-0.00749867 -0.0290326 -1.01284e-18)
(-0.0341865 -0.0227254 -8.37575e-19)
(-0.0608443 -0.0154641 1.44048e-18)
(-0.0779728 -0.000673272 4.10199e-19)
(-0.0724124 -0.0062536 -5.88444e-19)
(-0.0368451 0.0177852 1.52725e-19)
(0.0980467 0.0438833 -1.67402e-18)
(0.311541 0.133726 5.99559e-19)
(0.572153 0.24352 -7.25232e-19)
(0.785694 0.344326 9.39297e-19)
(0.939161 0.406656 -9.01202e-20)
(1.02186 0.447736 -6.30386e-19)
(0.0169898 -0.0124817 -1.16871e-18)
(0.0181892 -0.0262888 -1.18833e-18)
(0.00106597 -0.0373915 -1.21838e-18)
(-0.025046 -0.0432685 -9.13881e-19)
(-0.0555228 -0.0451357 6.12012e-19)
(-0.0848457 -0.0453909 -2.46382e-18)
(-0.102095 -0.0401396 2.2513e-19)
(-0.0771572 -0.0423532 2.10318e-19)
(0.012292 -0.00378701 1.11891e-19)
(0.242603 0.084877 7.80399e-19)
(0.504279 0.20172 -6.38021e-19)
(0.735086 0.305427 1.60703e-18)
(0.891546 0.377409 -3.53824e-19)
(1.00199 0.424116 -7.36212e-19)
(1.07103 0.459386 4.22509e-19)
(0.0113757 -0.0107674 2.06073e-19)
(0.00654422 -0.0259619 9.63359e-19)
(-0.0145038 -0.0413369 1.37202e-18)
(-0.0431542 -0.0519013 2.26274e-19)
(-0.0742292 -0.0581806 1.08899e-18)
(-0.0998985 -0.060297 6.03326e-19)
(-0.104033 -0.0553204 1.85367e-19)
(-0.0341876 -0.0422611 -9.32885e-19)
(0.143293 0.0330371 -5.56044e-20)
(0.427779 0.154796 4.0712e-19)
(0.671986 0.264285 1.57935e-18)
(0.848076 0.344553 -2.13925e-19)
(0.967422 0.399768 6.08074e-19)
(1.04684 0.435691 5.97737e-19)
(1.08659 0.454462 1.01619e-18)
(0.00431154 -0.00808154 3.77641e-19)
(-0.00628562 -0.0232105 -1.26407e-18)
(-0.0296201 -0.0406217 -2.75022e-19)
(-0.0578729 -0.0528878 1.53177e-20)
(-0.0845334 -0.0592067 -2.02903e-18)
(-0.0978552 -0.0574526 5.25239e-19)
(-0.0761567 -0.0464865 -2.61944e-19)
(0.0624914 -0.00594448 3.09266e-19)
(0.323016 0.107489 1.01948e-18)
(0.595912 0.221274 -3.54979e-19)
(0.79647 0.310061 -1.23263e-18)
(0.932915 0.37326 -1.824e-19)
(1.01832 0.413613 -2.05735e-19)
(1.06708 0.435469 -4.5175e-19)
(1.10186 0.45176 -1.09073e-18)
(-0.00330546 -0.00470205 7.89996e-20)
(-0.018774 -0.0181471 3.42274e-19)
(-0.0422516 -0.0353061 -8.8268e-19)
(-0.0666223 -0.0465359 3.70355e-19)
(-0.083999 -0.0496218 8.41032e-19)
(-0.0784501 -0.0414679 -3.56954e-19)
(-0.0186333 -0.0245048 -7.64777e-20)
(0.207373 0.0579173 -8.2819e-19)
(0.495397 0.178004 1.73593e-19)
(0.731462 0.272944 -5.93814e-19)
(0.891554 0.344839 5.93673e-19)
(0.990732 0.391525 -5.11166e-19)
(1.04721 0.418052 9.38267e-19)
(1.08467 0.436061 -3.73862e-19)
(1.10834 0.446026 -8.10092e-19)
(-0.010573 -0.00110307 4.01854e-19)
(-0.0297595 -0.0115652 2.5193e-19)
(-0.0512691 -0.0266593 2.27894e-19)
(-0.0689089 -0.0350269 5.64772e-20)
(-0.0736951 -0.0336114 3.84346e-19)
(-0.0464345 -0.0212509 -9.26704e-19)
(0.0719969 0.0115085 5.12745e-19)
(0.370054 0.127181 1.19735e-18)
(0.64171 0.235792 -1.18679e-19)
(0.837898 0.313728 9.04469e-19)
(0.958371 0.369428 5.60361e-19)
(1.02802 0.40172 9.35626e-20)
(1.06877 0.421447 2.01012e-19)
(1.0919 0.432588 4.00413e-19)
(1.10941 0.438133 9.46638e-19)
(-0.0168068 0.00221504 6.09826e-19)
(-0.0386106 -0.00453581 8.70875e-19)
(-0.0566001 -0.0164972 -7.85188e-19)
(-0.0656749 -0.0213159 7.1394e-19)
(-0.0563364 -0.0158072 -1.64885e-18)
(-0.0011605 -0.00508305 3.98079e-19)
(0.203921 0.0684601 -1.42194e-19)
(0.520686 0.188242 -7.47789e-19)
(0.761199 0.28303 -1.33355e-18)
(0.916811 0.344111 -5.12792e-19)
(1.00484 0.385952 -1.3024e-18)
(1.05412 0.408194 8.32728e-19)
(1.07914 0.420405 -1.17088e-18)
(1.09643 0.428438 8.34734e-19)
(1.11314 0.433067 5.93647e-19)
(-0.0216479 0.00485775 -1.44516e-18)
(-0.0451692 0.0018854 5.0097e-20)
(-0.0587256 -0.0066088 1.03593e-19)
(-0.058388 -0.0078359 1.98911e-19)
(-0.035256 -0.00149045 1.0882e-19)
(0.0667586 0.0146157 7.86161e-19)
(0.358598 0.131205 4.2907e-19)
(0.653503 0.240822 -1.21465e-19)
(0.85428 0.319713 6.02641e-19)
(0.973938 0.366128 3.95522e-19)
(1.03653 0.397256 1.86458e-19)
(1.06869 0.410198 -4.7411e-19)
(1.08658 0.419336 1.61285e-18)
(1.09988 0.424917 2.88915e-19)
(1.11116 0.425682 -6.30539e-19)
(-0.025071 0.00661133 1.32928e-18)
(-0.049627 0.0068965 -9.52437e-19)
(-0.0583324 0.00165156 3.04196e-19)
(-0.0487589 0.00388644 -3.161e-20)
(-0.00756867 0.00526401 1.5801e-18)
(0.17291 0.0574484 -1.28748e-19)
(0.503035 0.187497 -5.17354e-19)
(0.762537 0.283683 1.27305e-18)
(0.924355 0.347491 1.19554e-19)
(1.01379 0.381825 5.25992e-19)
(1.05639 0.403761 -1.05966e-18)
(1.07903 0.411129 2.08176e-20)
(1.09045 0.41748 -5.14192e-19)
(1.09982 0.419849 -1.15907e-19)
(1.11172 0.420442 -3.75209e-19)
(-0.0273223 0.00744648 -3.55401e-19)
(-0.0523715 0.0100394 9.94765e-19)
(-0.0559943 0.00777732 6.01954e-19)
(-0.0386137 0.0113447 4.80484e-19)
(0.0366299 0.00881548 -2.6028e-19)
(0.313449 0.115901 -1.02564e-19)
(0.630337 0.236579 6.80337e-19)
(0.849568 0.31803 -5.38603e-19)
(0.975844 0.368096 1.66832e-19)
(1.04059 0.392334 -8.79033e-19)
(1.06965 0.407956 6.20613e-20)
(1.08422 0.410414 1.40403e-19)
(1.09193 0.415189 -2.14179e-19)
(1.10109 0.416223 -1.29573e-18)
(1.11011 0.415077 5.59434e-19)
(-0.0288171 0.00746154 -6.26501e-19)
(-0.0537692 0.0112021 -7.85068e-19)
(-0.052484 0.0120456 4.12927e-19)
(-0.0263766 0.0121268 -5.31724e-20)
(0.111442 0.0314619 -6.47198e-19)
(0.453339 0.170721 -2.74014e-20)
(0.737447 0.277403 -4.76875e-19)
(0.916401 0.344585 -9.49237e-19)
(1.01225 0.382766 -3.89728e-19)
(1.05831 0.399539 3.63241e-19)
(1.07693 0.409776 3.39484e-19)
(1.08737 0.409345 -3.58379e-20)
(1.09312 0.413475 -5.66013e-19)
(1.09997 0.411699 1.05886e-18)
(1.10823 0.410065 3.38677e-19)
(-0.0300175 0.00678003 6.17141e-19)
(-0.0539889 0.0108116 1.3653e-21)
(-0.0489578 0.0144485 -1.01265e-18)
(-0.00331844 0.00595104 -2.17202e-20)
(0.22653 0.0813571 1.53934e-19)
(0.576971 0.218831 2.81854e-19)
(0.82375 0.310955 -5.07637e-19)
(0.966511 0.364996 2.63179e-19)
(1.03763 0.393292 -1.17042e-20)
(1.06919 0.404002 2.97556e-19)
(1.08147 0.410663 -2.71155e-19)
(1.08877 0.408123 -7.75323e-19)
(1.09236 0.411226 -3.75537e-20)
(1.09945 0.407943 -5.11674e-19)
(1.10678 0.406308 -4.56683e-19)
(-0.0313036 0.00552244 2.52007e-19)
(-0.0532413 0.00995206 -5.14051e-19)
(-0.0454387 0.0131765 5.14949e-19)
(0.0413966 0.00396465 -1.6507e-19)
(0.363185 0.137009 -8.84542e-20)
(0.685394 0.259758 -2.54056e-19)
(0.89223 0.337619 3.99727e-19)
(1.00323 0.380229 2.6026e-19)
(1.05444 0.400389 -1.55927e-19)
(1.07585 0.406941 -4.46731e-19)
(1.08338 0.410648 -1.6392e-19)
(1.08877 0.406709 7.92721e-19)
(1.09196 0.409584 4.92635e-19)
(1.09806 0.404204 4.96546e-19)
(1.10373 0.402214 -1.5722e-19)
(-0.0327497 0.00391178 -1.57836e-19)
(-0.0521472 0.00964167 5.67639e-20)
(-0.0384636 0.00786742 -2.13637e-19)
(0.114704 0.0276175 -9.72543e-22)
(0.488085 0.185668 -1.64453e-19)
(0.775013 0.294284 -2.47196e-19)
(0.944529 0.35885 8.67236e-20)
(1.02913 0.391553 -5.1654e-19)
(1.06538 0.405413 4.62669e-19)
(1.07925 0.408674 5.95849e-19)
(1.08406 0.410296 7.85142e-20)
(1.08837 0.405646 -6.86409e-19)
(1.09032 0.407629 -6.80819e-19)
(1.09628 0.400651 -5.25729e-19)
(1.10169 0.399446 2.1964e-19)
(-0.0341724 0.00245997 -5.11486e-19)
(-0.0516009 0.00945122 1.4024e-19)
(-0.0207225 -0.00119118 -1.03885e-19)
(0.221089 0.0774097 5.54965e-22)
(0.5971 0.228656 -4.10802e-20)
(0.848154 0.323118 -9.43523e-20)
(0.984427 0.375472 1.75466e-19)
(1.04729 0.399844 -1.01141e-19)
(1.07195 0.408702 -1.32848e-19)
(1.08081 0.409783 -2.57477e-19)
(1.0837 0.409776 -2.2945e-19)
(1.08693 0.404477 -1.05477e-19)
(1.08879 0.405972 4.2169e-19)
(1.09447 0.397626 -1.60654e-20)
(1.09823 0.39648 3.45185e-19)
(-0.0353944 0.00209043 2.12434e-19)
(-0.0516371 0.00760399 3.52585e-19)
(0.0163026 -0.0069149 6.15037e-20)
(0.346847 0.130821 2.17321e-19)
(0.693449 0.264911 4.78226e-19)
(0.906362 0.34631 1.77184e-19)
(1.01356 0.38834 6.51806e-19)
(1.05915 0.405934 3.44242e-19)
(1.07559 0.411124 2.18679e-19)
(1.08089 0.410503 5.0475e-19)
(1.08262 0.409181 1.58118e-19)
(1.08544 0.403689 2.91147e-19)
(1.08666 0.404275 1.45392e-19)
(1.09186 0.394622 7.11944e-20)
(1.09531 0.394337 2.34677e-19)
(-0.036229 0.003648 2.97531e-19)
(-0.0505213 0.00336654 -5.03027e-19)
(0.074271 0.00449982 -9.82514e-20)
(0.464742 0.176918 2.28855e-19)
(0.774767 0.296501 -4.83101e-19)
(0.951705 0.365477 -1.97696e-19)
(1.03462 0.398382 -4.02289e-19)
(1.0669 0.41051 -1.34148e-20)
(1.07719 0.412826 -1.09002e-19)
(1.08014 0.411014 -4.24235e-19)
(1.08113 0.408705 3.23725e-19)
(1.08321 0.402878 2.40743e-20)
(1.0843 0.402669 -1.43234e-20)
(1.08943 0.392257 1.23285e-19)
(1.09163 0.39229 -2.89678e-19)
(-0.0367591 0.00686608 -2.13093e-20)
(-0.0442922 -0.00314988 2.22199e-19)
(0.15291 0.0388309 6.27687e-20)
(0.565261 0.217461 -3.23312e-19)
(0.842085 0.324114 2.14421e-19)
(0.986909 0.381168 6.84092e-20)
(1.04934 0.406168 -1.79098e-19)
(1.07126 0.413974 -8.47218e-20)
(1.07734 0.414253 -2.57772e-19)
(1.07869 0.411508 4.63547e-20)
(1.0791 0.408275 -3.12739e-19)
(1.08091 0.402343 -2.22963e-19)
(1.0817 0.401208 5.98882e-20)
(1.08622 0.389971 6.36368e-20)
(1.08794 0.390567 -1.11438e-19)
(-0.0374132 0.00966291 -1.10531e-19)
(-0.0279798 -0.0101432 -7.05867e-20)
(0.251629 0.0866102 1.49882e-19)
(0.653534 0.25269 2.7877e-19)
(0.89659 0.347258 5.40645e-20)
(1.01332 0.394032 -1.47647e-19)
(1.05928 0.41242 1.85343e-19)
(1.07356 0.416839 1.61131e-19)
(1.07657 0.415498 8.41099e-20)
(1.07679 0.411983 1.62865e-20)
(1.07686 0.408043 1.0024e-19)
(1.07811 0.401855 4.50558e-20)
(1.0787 0.399776 -3.21674e-20)
(1.0831 0.388216 -4.03786e-20)
(1.08403 0.389071 3.68555e-20)
(-0.0383839 0.00930997 -5.15515e-20)
(0.00115382 -0.0127117 -6.05863e-20)
(0.359387 0.134256 4.98018e-20)
(0.730576 0.283101 -6.56592e-20)