/*--------------------------------*- C++ -*----------------------------------*\
  =========                 |
  \\      /  F ield         | OpenFOAM: The Open Source CFD Toolbox
   \\    /   O peration     | Website:  https://openfoam.org
    \\  /    A nd           | Version:  7
     \\/     M anipulation  |
\*---------------------------------------------------------------------------*/
FoamFile
{
    version     2.0;
    format      ascii;
    class       volScalarField;
    location    "5.9994";
    object      p;
}
// * * * * * * * * * * * * * * * * * * * * * * * * * * * * * * * * * * * * * //

dimensions      [0 2 -2 0 0 0 0];

internalField   nonuniform List<scalar> 
18750
(
-0.0580857
-0.0808835
-0.12225
-0.181254
-0.25371
-0.336307
-0.425225
-0.517419
-0.610383
-0.701989
-0.789738
-0.870683
-0.941821
-1.00081
-1.04592
-0.0664625
-0.0886692
-0.129489
-0.188011
-0.260048
-0.342277
-0.430846
-0.522665
-0.615221
-0.706459
-0.794026
-0.875073
-0.946501
-1.00571
-1.05083
-0.082767
-0.103826
-0.143569
-0.201131
-0.272332
-0.353817
-0.441675
-0.532738
-0.624481
-0.714978
-0.802133
-0.883312
-0.955297
-1.01504
-1.06036
-0.106141
-0.12556
-0.163725
-0.219878
-0.289834
-0.370191
-0.456961
-0.546878
-0.637403
-0.726776
-0.813237
-0.894482
-0.967278
-1.02801
-1.07396
-0.135392
-0.152752
-0.188893
-0.243242
-0.311569
-0.390412
-0.475703
-0.564079
-0.653002
-0.740905
-0.8264
-0.907615
-0.981477
-1.04382
-1.09106
-0.169105
-0.184006
-0.217789
-0.27003
-0.336394
-0.413362
-0.496796
-0.583274
-0.670292
-0.756491
-0.840862
-0.922012
-0.997219
-1.0619
-1.11131
-0.205737
-0.217717
-0.249011
-0.298968
-0.363112
-0.437901
-0.519168
-0.603486
-0.688438
-0.772886
-0.856165
-0.937334
-1.01415
-1.08189
-1.13448
-0.243572
-0.252281
-0.281163
-0.328787
-0.390557
-0.462965
-0.54187
-0.623908
-0.706807
-0.789646
-0.872018
-0.953332
-1.03188
-1.10322
-1.16003
-0.280822
-0.286148
-0.312948
-0.358301
-0.417655
-0.487614
-0.564105
-0.643887
-0.724872
-0.806333
-0.888027
-0.969569
-1.04976
-1.12483
-1.18678
-0.315783
-0.317915
-0.343205
-0.386438
-0.443457
-0.511033
-0.585184
-0.662834
-0.742094
-0.822416
-0.903649
-0.985476
-1.06706
-1.14551
-1.21308
-0.346881
-0.34645
-0.370932
-0.412255
-0.467147
-0.532519
-0.604497
-0.680192
-0.757925
-0.837306
-0.918243
-1.00038
-1.083
-1.16405
-1.237
-0.372792
-0.371053
-0.39525
-0.434958
-0.488044
-0.551471
-0.62149
-0.69543
-0.771803
-0.850358
-0.931043
-1.01343
-1.0967
-1.17929
-1.25645
-0.392472
-0.39142
-0.415391
-0.453938
-0.50561
-0.56738
-0.635664
-0.708039
-0.783166
-0.860904
-0.941232
-1.02365
-1.10719
-1.19027
-1.26964
-0.406
-0.406827
-0.430764
-0.468812
-0.519453
-0.579829
-0.646576
-0.717544
-0.791471
-0.868301
-0.94804
-1.03012
-1.1135
-1.19642
-1.27541
-0.41366
-0.416784
-0.441358
-0.479418
-0.529326
-0.588493
-0.653856
-0.723521
-0.79623
-0.871975
-0.950832
-1.03209
-1.11468
-1.19718
-1.27378
-0.415957
-0.421471
-0.447372
-0.485848
-0.535165
-0.593151
-0.657229
-0.725619
-0.797043
-0.871456
-0.949091
-1.02906
-1.11002
-1.19162
-1.26523
-0.413921
-0.421809
-0.449214
-0.488145
-0.536921
-0.593771
-0.656556
-0.723584
-0.793618
-0.866416
-0.942387
-1.02074
-1.09899
-1.17926
-1.24883
-0.409236
-0.419185
-0.447507
-0.4865
-0.534622
-0.590343
-0.651759
-0.71728
-0.785787
-0.856686
-0.930378
-1.00707
-1.08137
-1.15984
-1.22377
-0.404076
-0.415151
-0.442965
-0.481253
-0.528448
-0.582929
-0.642831
-0.706619
-0.773409
-0.842306
-0.912911
-0.988076
-1.05787
-1.13414
-1.19194
-0.400664
-0.411005
-0.436207
-0.472846
-0.518723
-0.571686
-0.629843
-0.691602
-0.756311
-0.823401
-0.890157
-0.963662
-1.02916
-1.10234
-1.15667
-0.400175
-0.407149
-0.427645
-0.461803
-0.505872
-0.556859
-0.61293
-0.672383
-0.734358
-0.799954
-0.862648
-0.93393
-0.995973
-1.06413
-1.11703
-0.401666
-0.402443
-0.417579
-0.448733
-0.490355
-0.538771
-0.592265
-0.649283
-0.707593
-0.771628
-0.83079
-0.899006
-0.959348
-1.02158
-1.07195
-0.402254
-0.395177
-0.406606
-0.434322
-0.472644
-0.517865
-0.568052
-0.622565
-0.676412
-0.738109
-0.794597
-0.85865
-0.918705
-0.977077
-1.02524
-0.399684
-0.386197
-0.396042
-0.419273
-0.453248
-0.49479
-0.540672
-0.59231
-0.641349
-0.699441
-0.754088
-0.813162
-0.872484
-0.92928
-0.975585
-0.394078
-0.379581
-0.386945
-0.404393
-0.432918
-0.470419
-0.510799
-0.558589
-0.602815
-0.655868
-0.709166
-0.763988
-0.82135
-0.877118
-0.923227
-0.387195
-0.377007
-0.379047
-0.390693
-0.412798
-0.445758
-0.47948
-0.521771
-0.561181
-0.607966
-0.659398
-0.711376
-0.766966
-0.821815
-0.868808
-0.381256
-0.37635
-0.372343
-0.379613
-0.394429
-0.421874
-0.447994
-0.482811
-0.516965
-0.556802
-0.605062
-0.654664
-0.709496
-0.763774
-0.812658
-0.377692
-0.374857
-0.368602
-0.372202
-0.379523
-0.400153
-0.417735
-0.443103
-0.471133
-0.503359
-0.547741
-0.594442
-0.649831
-0.704154
-0.757002
-0.376046
-0.373562
-0.368441
-0.368008
-0.369713
-0.382164
-0.390542
-0.404113
-0.425022
-0.448564
-0.489415
-0.531557
-0.589998
-0.644372
-0.705522
-0.375576
-0.373196
-0.369714
-0.36649
-0.365842
-0.369079
-0.368422
-0.368222
-0.380008
-0.395219
-0.431668
-0.47176
-0.531407
-0.585572
-0.659244
-0.375734
-0.373718
-0.37147
-0.367575
-0.367206
-0.361304
-0.35219
-0.339276
-0.337994
-0.347495
-0.374127
-0.418316
-0.475246
-0.534061
-0.608729
-0.376137
-0.374795
-0.374004
-0.370844
-0.371439
-0.358224
-0.341902
-0.318449
-0.303567
-0.307791
-0.327194
-0.373268
-0.428139
-0.492447
-0.555313
-0.376522
-0.376084
-0.376962
-0.375091
-0.376187
-0.358606
-0.337123
-0.30451
-0.279362
-0.276616
-0.292981
-0.337108
-0.393765
-0.456118
-0.512272
-0.376682
-0.377234
-0.379671
-0.379161
-0.380546
-0.361451
-0.336348
-0.296827
-0.265081
-0.256703
-0.270771
-0.312118
-0.36742
-0.426005
-0.477914
-0.376515
-0.378062
-0.381503
-0.383025
-0.383737
-0.366306
-0.338557
-0.295827
-0.259274
-0.246982
-0.260221
-0.296789
-0.348707
-0.402297
-0.449545
-0.376102
-0.378429
-0.382563
-0.386001
-0.387035
-0.372864
-0.345228
-0.302365
-0.263325
-0.246877
-0.25869
-0.291066
-0.337093
-0.383842
-0.426368
-0.375732
-0.378566
-0.383118
-0.388046
-0.391274
-0.382622
-0.358897
-0.316556
-0.275921
-0.255798
-0.264521
-0.292192
-0.330606
-0.370409
-0.40737
-0.375917
-0.379038
-0.38392
-0.390734
-0.397706
-0.397229
-0.37898
-0.336363
-0.294299
-0.271357
-0.275391
-0.296985
-0.327986
-0.360351
-0.391503
-0.377166
-0.380488
-0.385955
-0.394869
-0.406805
-0.416105
-0.403274
-0.359706
-0.315165
-0.289822
-0.288635
-0.303754
-0.327285
-0.35273
-0.37839
-0.379674
-0.383214
-0.389427
-0.400569
-0.417732
-0.435952
-0.422611
-0.381308
-0.335799
-0.308083
-0.302035
-0.31071
-0.32762
-0.346807
-0.367115
-0.38318
-0.386926
-0.393902
-0.406851
-0.428851
-0.45049
-0.439973
-0.397772
-0.353322
-0.324226
-0.314011
-0.317197
-0.328193
-0.34171
-0.357391
-0.387115
-0.39096
-0.398494
-0.412098
-0.438953
-0.456234
-0.450361
-0.40953
-0.366771
-0.337184
-0.323893
-0.322492
-0.328492
-0.337277
-0.348713
-0.390844
-0.394567
-0.402332
-0.41507
-0.445019
-0.457626
-0.452105
-0.415562
-0.375743
-0.34667
-0.331266
-0.326404
-0.328326
-0.332953
-0.340799
-0.393876
-0.397171
-0.404638
-0.416133
-0.443693
-0.456065
-0.448698
-0.416764
-0.380692
-0.35286
-0.336284
-0.328836
-0.327423
-0.328747
-0.333487
-0.395955
-0.398459
-0.404134
-0.41596
-0.433564
-0.450456
-0.442083
-0.414201
-0.382156
-0.356158
-0.339095
-0.329836
-0.325855
-0.324384
-0.326451
-0.397076
-0.398631
-0.401973
-0.413393
-0.421488
-0.439992
-0.433054
-0.409155
-0.381049
-0.357089
-0.340069
-0.329577
-0.323527
-0.319876
-0.319661
-0.397411
-0.397871
-0.398839
-0.407887
-0.412312
-0.427657
-0.422768
-0.402686
-0.378114
-0.356188
-0.339493
-0.32818
-0.320592
-0.315162
-0.312888
-0.397268
-0.396475
-0.396211
-0.398894
-0.407316
-0.416666
-0.412265
-0.395421
-0.37397
-0.353906
-0.337697
-0.325868
-0.317054
-0.310248
-0.306262
-0.397022
-0.394817
-0.395382
-0.386404
-0.402287
-0.407757
-0.402619
-0.388026
-0.369097
-0.350648
-0.334947
-0.322761
-0.313043
-0.305164
-0.299733
-0.396878
-0.393297
-0.395598
-0.379007
-0.39569
-0.399941
-0.394155
-0.380861
-0.363806
-0.346667
-0.331449
-0.319039
-0.308597
-0.299895
-0.293367
-0.396921
-0.39326
-0.394033
-0.381658
-0.390681
-0.392925
-0.386667
-0.374132
-0.358362
-0.342219
-0.327398
-0.314795
-0.303811
-0.294485
-0.287034
-0.397255
-0.395907
-0.390104
-0.389275
-0.389151
-0.387247
-0.380015
-0.36782
-0.352876
-0.337425
-0.322897
-0.310148
-0.29872
-0.288895
-0.280691
-0.398096
-0.401313
-0.384474
-0.393169
-0.389141
-0.383105
-0.374229
-0.361934
-0.34744
-0.332425
-0.318077
-0.305162
-0.293378
-0.28315
-0.27425
-0.399605
-0.406813
-0.383377
-0.392489
-0.388429
-0.379952
-0.369316
-0.356479
-0.342077
-0.327259
-0.312975
-0.299896
-0.287801
-0.277211
-0.267698
-0.40216
-0.410331
-0.390033
-0.391646
-0.3868
-0.377052
-0.365002
-0.351415
-0.336817
-0.321992
-0.307668
-0.294389
-0.282014
-0.271099
-0.261015
-0.40609
-0.411009
-0.401552
-0.393677
-0.385268
-0.374147
-0.360995
-0.346629
-0.331639
-0.31663
-0.302159
-0.288663
-0.276024
-0.264795
-0.254213
-0.411685
-0.409143
-0.411304
-0.398003
-0.38481
-0.371443
-0.357108
-0.341968
-0.326489
-0.311179
-0.296486
-0.282736
-0.26984
-0.258326
-0.247314
-0.419716
-0.406658
-0.417217
-0.40251
-0.385368
-0.369198
-0.353342
-0.33733
-0.321295
-0.305607
-0.290627
-0.276609
-0.263469
-0.251693
-0.24034
-0.430139
-0.408574
-0.419964
-0.405971
-0.386251
-0.367368
-0.349709
-0.332653
-0.315988
-0.299878
-0.284583
-0.270283
-0.256911
-0.244914
-0.233311
-0.441976
-0.41773
-0.421962
-0.407986
-0.386733
-0.365631
-0.346146
-0.32791
-0.310526
-0.293952
-0.278323
-0.263746
-0.250165
-0.237982
-0.226214
-0.454175
-0.432891
-0.425368
-0.408811
-0.386343
-0.363589
-0.342484
-0.323041
-0.304874
-0.2878
-0.271829
-0.256985
-0.243217
-0.230893
-0.219018
-0.464783
-0.449033
-0.430466
-0.409018
-0.384956
-0.360941
-0.33853
-0.317967
-0.299
-0.281399
-0.265076
-0.249977
-0.236048
-0.223617
-0.211673
-0.471849
-0.461565
-0.435561
-0.408922
-0.382723
-0.357571
-0.334121
-0.312589
-0.292856
-0.274724
-0.258045
-0.242697
-0.228628
-0.216132
-0.204159
-0.474377
-0.468888
-0.438976
-0.408338
-0.379856
-0.353514
-0.329175
-0.306826
-0.286398
-0.267751
-0.250715
-0.235122
-0.220927
-0.208402
-0.196459
-0.473664
-0.471425
-0.440172
-0.40696
-0.37645
-0.348865
-0.32368
-0.300616
-0.279574
-0.260448
-0.243065
-0.227231
-0.212918
-0.200391
-0.188534
-0.471512
-0.47069
-0.439304
-0.40461
-0.372491
-0.343685
-0.317653
-0.293933
-0.272347
-0.252787
-0.235074
-0.219011
-0.204589
-0.192059
-0.180289
-0.469471
-0.468292
-0.436833
-0.401266
-0.367919
-0.337985
-0.311108
-0.286761
-0.264682
-0.244732
-0.226722
-0.210453
-0.195939
-0.183395
-0.17159
-0.468383
-0.465294
-0.433227
-0.396995
-0.362679
-0.331739
-0.304043
-0.279089
-0.256556
-0.236257
-0.217985
-0.201549
-0.186984
-0.174435
-0.162295
-0.468429
-0.462214
-0.428844
-0.391893
-0.356739
-0.324906
-0.296436
-0.2709
-0.247944
-0.227336
-0.208841
-0.192286
-0.177734
-0.165251
-0.152357
-0.469383
-0.459233
-0.423904
-0.386038
-0.350078
-0.317434
-0.28825
-0.262168
-0.238827
-0.217953
-0.199279
-0.182659
-0.168204
-0.155861
-0.141928
-0.470769
-0.456354
-0.41851
-0.379469
-0.342667
-0.30927
-0.279437
-0.252863
-0.229185
-0.208097
-0.189299
-0.172677
-0.158408
-0.146136
-0.131399
-0.472001
-0.453431
-0.41265
-0.372177
-0.334467
-0.30036
-0.26995
-0.242951
-0.219006
-0.197774
-0.178918
-0.162368
-0.14836
-0.135849
-0.120982
-0.472536
-0.450097
-0.406199
-0.364108
-0.32543
-0.290653
-0.259746
-0.232413
-0.20829
-0.186992
-0.168152
-0.151775
-0.137965
-0.125084
-0.110583
-0.471963
-0.445801
-0.398944
-0.355171
-0.315504
-0.28011
-0.248804
-0.221242
-0.197048
-0.175754
-0.157003
-0.140849
-0.12716
-0.113989
-0.100092
-0.469893
-0.440145
-0.390652
-0.345259
-0.304641
-0.26871
-0.237128
-0.209456
-0.185287
-0.164032
-0.145451
-0.129552
-0.115934
-0.102659
-0.0894339
-0.466025
-0.432866
-0.38111
-0.334264
-0.292798
-0.25646
-0.22474
-0.197078
-0.172939
-0.151819
-0.133485
-0.117861
-0.104318
-0.0911209
-0.0785712
-0.460125
-0.423784
-0.370149
-0.322092
-0.27996
-0.243384
-0.211644
-0.184031
-0.160009
-0.139115
-0.121098
-0.10578
-0.0923661
-0.0793625
-0.0675017
-0.452038
-0.412804
-0.357642
-0.308678
-0.266142
-0.229482
-0.197767
-0.170301
-0.146504
-0.125927
-0.108292
-0.0933237
-0.0801159
-0.0673817
-0.0562489
-0.441678
-0.399911
-0.343498
-0.294004
-0.251354
-0.214665
-0.183097
-0.155892
-0.132431
-0.112263
-0.0950766
-0.0805113
-0.0675884
-0.0551967
-0.0448469
-0.429015
-0.385171
-0.327661
-0.278086
-0.235479
-0.198926
-0.16764
-0.140817
-0.117803
-0.0981357
-0.0814696
-0.0673639
-0.0547998
-0.0428315
-0.0333142
-0.414055
-0.368671
-0.310161
-0.260833
-0.21849
-0.182273
-0.151413
-0.125094
-0.102638
-0.0835661
-0.0674942
-0.0539027
-0.0417591
-0.0302959
-0.0216604
-0.396842
-0.350399
-0.291142
-0.242179
-0.200391
-0.164722
-0.134438
-0.108745
-0.086957
-0.0685788
-0.0531764
-0.0401489
-0.028473
-0.0175813
-0.00991814
-0.377463
-0.330136
-0.270763
-0.222235
-0.181216
-0.146299
-0.116744
-0.0917984
-0.0707877
-0.0531991
-0.0385387
-0.0261208
-0.0149567
-0.00469766
0.00185876
-0.356062
-0.307544
-0.249231
-0.201164
-0.161031
-0.127038
-0.0983613
-0.0742865
-0.0541594
-0.0374496
-0.0235932
-0.01183
-0.00124787
0.00827601
0.0136503
-0.332784
-0.282807
-0.226404
-0.179085
-0.139921
-0.106987
-0.0793291
-0.0562454
-0.0371028
-0.0213466
-0.00833872
0.0027221
0.012598
0.0211837
0.0254164
-0.30759
-0.256458
-0.202189
-0.156046
-0.117971
-0.086207
-0.0596928
-0.0377151
-0.0196482
-0.00490196
0.00723243
0.0175367
0.026526
0.0338422
0.0368269
-0.280899
-0.228628
-0.176633
-0.132056
-0.0952513
-0.0647662
-0.0395066
-0.0187393
-0.0018262
0.0118724
0.0231183
0.0325961
0.040482
0.0460782
0.0471243
-0.252253
-0.200081
-0.149965
-0.107159
-0.0718214
-0.0427339
-0.0188305
0.000635477
0.016332
0.0289557
0.0392873
0.047834
0.0543787
0.0577629
0.0559024
-0.221969
-0.170714
-0.122376
-0.0814449
-0.0477466
-0.0201796
0.00227288
0.0203609
0.0347919
0.0463119
0.0556672
0.0631257
0.0680859
0.0690152
0.0643414
-0.190312
-0.140493
-0.0940057
-0.0550302
-0.0231056
0.00282567
0.0237399
0.0403864
0.0535115
0.0638859
0.0721567
0.078329
0.0815171
0.0804291
0.0753303
-0.157521
-0.109464
-0.0649697
-0.0280347
0.00201184
0.0262071
0.0455057
0.0606578
0.0724387
0.0816071
0.0886604
0.0933696
0.0947731
0.0923744
0.0912064
-0.1238
-0.07773
-0.0353784
-0.000573845
0.0275091
0.0498858
0.0675035
0.0811155
0.0915103
0.0993971
0.105113
0.108284
0.108129
0.10516
0.106701
-0.0893402
-0.0454281
-0.00534758
0.0272408
0.0532873
0.0737792
0.0896627
0.101694
0.110656
0.117184
0.121486
0.12316
0.121756
0.1187
0.121255
-0.0543234
-0.0127058
0.0250004
0.0552981
0.0792472
0.0978024
0.11191
0.122324
0.129805
0.134913
0.137771
0.13804
0.135598
0.132464
0.134909
-0.0189265
0.0202848
0.0555383
0.0834866
0.105289
0.121868
0.134167
0.142932
0.148892
0.15254
0.153967
0.152937
0.149608
0.146243
0.147913
0.0166785
0.0533936
0.0861369
0.111694
0.131315
0.145889
0.156355
0.163446
0.167855
0.170027
0.17005
0.167783
0.163587
0.159769
0.160507
0.0523217
0.0864722
0.116667
0.139806
0.157223
0.169777
0.178395
0.183795
0.186638
0.187336
0.185991
0.182547
0.177485
0.173029
0.172756
0.0878378
0.119376
0.147
0.167712
0.182915
0.193441
0.200207
0.203908
0.205182
0.204418
0.201728
0.197121
0.191161
0.185993
0.184717
0.123064
0.151962
0.177011
0.1953
0.208293
0.216796
0.221712
0.22372
0.223434
0.221227
0.217225
0.211479
0.204597
0.198641
0.196363
0.157844
0.184093
0.206577
0.222461
0.233258
0.239753
0.242834
0.243161
0.241331
0.2377
0.232403
0.225528
0.217727
0.210984
0.207695
0.192023
0.215635
0.235578
0.249087
0.257717
0.262229
0.263497
0.262168
0.258818
0.253794
0.247232
0.239244
0.230516
0.222957
0.21867
0.225454
0.246457
0.263897
0.275075
0.281575
0.284139
0.283628
0.280672
0.275833
0.269441
0.261638
0.252567
0.24294
0.23457
0.229268
0.257992
0.276434
0.291422
0.300324
0.304743
0.305404
0.303155
0.298613
0.292321
0.2846
0.275589
0.265458
0.25494
0.245757
0.239455
0.289502
0.305445
0.318046
0.324736
0.327133
0.325946
0.322009
0.315925
0.308222
0.299207
0.28903
0.277884
0.266507
0.256511
0.249204
0.319851
0.333375
0.343664
0.348219
0.348663
0.34569
0.340123
0.332551
0.323486
0.313225
0.301921
0.28979
0.27758
0.266786
0.25849
0.348915
0.360113
0.368178
0.370684
0.369251
0.364564
0.357431
0.348429
0.338056
0.3266
0.314223
0.301159
0.288146
0.276557
0.267285
0.376575
0.385556
0.391494
0.392047
0.388824
0.382501
0.373874
0.363509
0.351887
0.33929
0.325887
0.311937
0.298159
0.285799
0.275568
0.402718
0.409605
0.413524
0.412227
0.407308
0.399435
0.389393
0.377734
0.36493
0.351256
0.33689
0.322102
0.307592
0.294479
0.283319
0.427241
0.432167
0.434185
0.43115
0.424637
0.415307
0.403934
0.391059
0.377141
0.362452
0.347184
0.331617
0.316417
0.302578
0.290519
0.450046
0.453158
0.4534
0.448748
0.440747
0.430059
0.417445
0.403437
0.388482
0.37285
0.356743
0.340451
0.324604
0.310071
0.297153
0.471041
0.472499
0.471099
0.464955
0.455583
0.443641
0.429881
0.414825
0.398911
0.382411
0.365536
0.348579
0.332129
0.316938
0.303206
0.490145
0.49012
0.487219
0.479715
0.46909
0.456004
0.441198
0.425186
0.408397
0.391106
0.373532
0.355973
0.338969
0.323161
0.308668
0.507281
0.505959
0.501703
0.492974
0.481221
0.467104
0.451357
0.434483
0.416908
0.398906
0.380708
0.36261
0.345102
0.328724
0.313528
0.522386
0.519961
0.514501
0.504684
0.491933
0.476903
0.460323
0.442687
0.424416
0.405786
0.38704
0.368467
0.35051
0.333613
0.31778
0.535418
0.532067
0.525562
0.514801
0.501186
0.485367
0.468065
0.44977
0.430896
0.411725
0.392507
0.373526
0.355176
0.337817
0.321419
0.546351
0.542219
0.534844
0.52329
0.508947
0.492465
0.474557
0.455708
0.436328
0.416704
0.397091
0.377769
0.359085
0.341327
0.324443
0.555149
0.55038
0.542309
0.530117
0.515189
0.498173
0.479777
0.460481
0.440695
0.420706
0.400777
0.381181
0.362225
0.344136
0.326855
0.561779
0.556522
0.547931
0.535258
0.51989
0.502471
0.483708
0.464075
0.443982
0.423718
0.403553
0.38375
0.364587
0.346242
0.328658
0.566214
0.560628
0.551689
0.538695
0.523034
0.505345
0.486336
0.466478
0.446179
0.425732
0.405409
0.385468
0.366164
0.347645
0.329856
0.568436
0.562684
0.553571
0.540417
0.524608
0.506785
0.487652
0.467681
0.447279
0.42674
0.406338
0.386329
0.366953
0.348345
0.330454
0.568436
0.562684
0.553571
0.540417
0.524608
0.506785
0.487652
0.467681
0.447279
0.42674
0.406338
0.386329
0.366953
0.348345
0.330454
0.566214
0.560628
0.551689
0.538695
0.523034
0.505345
0.486336
0.466478
0.446179
0.425732
0.405409
0.385468
0.366164
0.347645
0.329856
0.561779
0.556522
0.547931
0.535258
0.51989
0.502471
0.483708
0.464075
0.443982
0.423718
0.403553
0.38375
0.364587
0.346242
0.328658
0.555149
0.55038
0.542309
0.530117
0.515189
0.498173
0.479777
0.460481
0.440695
0.420706
0.400777
0.381181
0.362225
0.344136
0.326855
0.546351
0.542219
0.534844
0.523289
0.508947
0.492465
0.474557
0.455708
0.436328
0.416704
0.397091
0.377769
0.359085
0.341327
0.324443
0.535418
0.532067
0.525562
0.514801
0.501186
0.485367
0.468065
0.44977
0.430896
0.411725
0.392507
0.373526
0.355176
0.337817
0.321419
0.522386
0.519961
0.514501
0.504684
0.491933
0.476903
0.460323
0.442687
0.424416
0.405786
0.38704
0.368467
0.35051
0.333613
0.31778
0.507281
0.505959
0.501703
0.492974
0.481221
0.467104
0.451357
0.434483
0.416908
0.398906
0.380708
0.362609
0.345102
0.328724
0.313528
0.490145
0.490119
0.487219
0.479715
0.46909
0.456004
0.441198
0.425186
0.408397
0.391105
0.373532
0.355973
0.338969
0.323161
0.308668
0.471041
0.472499
0.471099
0.464955
0.455583
0.443641
0.429881
0.414825
0.398911
0.382411
0.365535
0.348579
0.332129
0.316938
0.303206
0.450045
0.453158
0.4534
0.448748
0.440747
0.430059
0.417445
0.403437
0.388482
0.37285
0.356743
0.340451
0.324604
0.310071
0.297153
0.427241
0.432167
0.434184
0.43115
0.424636
0.415307
0.403934
0.391059
0.377141
0.362452
0.347184
0.331617
0.316417
0.302578
0.290519
0.402718
0.409605
0.413523
0.412227
0.407308
0.399435
0.389392
0.377734
0.36493
0.351256
0.33689
0.322102
0.307592
0.294479
0.283319
0.376574
0.385556
0.391493
0.392047
0.388824
0.382501
0.373874
0.363509
0.351887
0.33929
0.325887
0.311937
0.298159
0.285799
0.275568
0.348915
0.360113
0.368177
0.370684
0.369251
0.364564
0.357431
0.348429
0.338056
0.3266
0.314223
0.301159
0.288146
0.276557
0.267285
0.319851
0.333375
0.343664
0.348219
0.348663
0.34569
0.340122
0.332551
0.323486
0.313225
0.301921
0.28979
0.27758
0.266786
0.25849
0.289502
0.305445
0.318046
0.324736
0.327133
0.325946
0.322009
0.315925
0.308222
0.299207
0.28903
0.277884
0.266507
0.256511
0.249204
0.257992
0.276434
0.291422
0.300324
0.304743
0.305404
0.303155
0.298613
0.292321
0.284599
0.275589
0.265458
0.25494
0.245756
0.239455
0.225453
0.246457
0.263897
0.275075
0.281575
0.284139
0.283628
0.280672
0.275832
0.269441
0.261638
0.252567
0.24294
0.23457
0.229268
0.192023
0.215635
0.235577
0.249087
0.257717
0.262228
0.263497
0.262168
0.258818
0.253794
0.247231
0.239244
0.230516
0.222956
0.21867
0.157844
0.184093
0.206577
0.222461
0.233258
0.239753
0.242833
0.243161
0.24133
0.2377
0.232403
0.225528
0.217727
0.210984
0.207695
0.123064
0.151962
0.177011
0.1953
0.208292
0.216796
0.221712
0.22372
0.223433
0.221227
0.217225
0.211479
0.204597
0.198641
0.196363
0.0878375
0.119375
0.147
0.167712
0.182915
0.193441
0.200206
0.203908
0.205182
0.204418
0.201728
0.197121
0.191161
0.185993
0.184717
0.0523214
0.0864719
0.116667
0.139806
0.157223
0.169776
0.178395
0.183794
0.186638
0.187336
0.185991
0.182547
0.177485
0.173029
0.172755
0.0166782
0.0533933
0.0861367
0.111693
0.131314
0.145889
0.156355
0.163446
0.167855
0.170027
0.17005
0.167783
0.163587
0.159769
0.160507
-0.0189268
0.0202845
0.0555381
0.0834864
0.105289
0.121868
0.134167
0.142932
0.148892
0.15254
0.153967
0.152937
0.149608
0.146242
0.147913
-0.0543237
-0.0127061
0.0250001
0.0552979
0.079247
0.0978022
0.111909
0.122324
0.129805
0.134913
0.137771
0.13804
0.135597
0.132464
0.134909
-0.0893406
-0.0454284
-0.00534785
0.0272405
0.0532871
0.073779
0.0896626
0.101694
0.110656
0.117184
0.121485
0.12316
0.121756
0.118699
0.121255
-0.1238
-0.0777303
-0.0353787
-0.0005741
0.0275088
0.0498856
0.0675033
0.0811154
0.0915101
0.099397
0.105113
0.108284
0.108129
0.10516
0.106701
-0.157521
-0.109464
-0.06497
-0.028035
0.0020116
0.0262069
0.0455055
0.0606576
0.0724386
0.0816069
0.0886603
0.0933695
0.0947729
0.0923743
0.0912062
-0.190312
-0.140493
-0.094006
-0.0550305
-0.0231058
0.00282545
0.0237397
0.0403862
0.0535113
0.0638858
0.0721566
0.0783288
0.081517
0.080429
0.0753302
-0.221969
-0.170714
-0.122376
-0.0814452
-0.0477469
-0.0201798
0.00227267
0.0203607
0.0347917
0.0463117
0.0556671
0.0631256
0.0680858
0.0690151
0.0643413
-0.252254
-0.200081
-0.149966
-0.10716
-0.0718216
-0.0427341
-0.0188307
0.000635277
0.0163319
0.0289555
0.0392872
0.0478339
0.0543785
0.0577628
0.0559023
-0.280899
-0.228629
-0.176633
-0.132057
-0.0952515
-0.0647664
-0.0395069
-0.0187395
-0.00182639
0.0118722
0.0231181
0.032596
0.0404818
0.0460781
0.0471242
-0.30759
-0.256459
-0.20219
-0.156046
-0.117971
-0.0862073
-0.059693
-0.0377153
-0.0196484
-0.00490214
0.00723226
0.0175366
0.0265259
0.033842
0.0368268
-0.332784
-0.282807
-0.226404
-0.179085
-0.139921
-0.106987
-0.0793293
-0.0562457
-0.0371029
-0.0213468
-0.00833889
0.00272194
0.0125979
0.0211835
0.0254163
-0.356062
-0.307544
-0.249232
-0.201165
-0.161031
-0.127038
-0.0983615
-0.0742868
-0.0541596
-0.0374498
-0.0235933
-0.0118302
-0.00124802
0.00827587
0.0136501
-0.377464
-0.330136
-0.270764
-0.222236
-0.181216
-0.1463
-0.116744
-0.0917986
-0.0707879
-0.0531993
-0.0385388
-0.026121
-0.0149568
-0.0046978
0.00185864
-0.396842
-0.3504
-0.291142
-0.242179
-0.200391
-0.164723
-0.134438
-0.108745
-0.0869572
-0.068579
-0.0531766
-0.0401491
-0.0284732
-0.0175815
-0.00991826
-0.414055
-0.368671
-0.310161
-0.260833
-0.21849
-0.182273
-0.151413
-0.125094
-0.102638
-0.0835663
-0.0674944
-0.0539028
-0.0417592
-0.0302961
-0.0216606
-0.429015
-0.385171
-0.327661
-0.278086
-0.235479
-0.198926
-0.16764
-0.140817
-0.117804
-0.0981359
-0.0814698
-0.0673641
-0.0547999
-0.0428316
-0.0333144
-0.441679
-0.399911
-0.343498
-0.294004
-0.251355
-0.214666
-0.183097
-0.155893
-0.132431
-0.112263
-0.0950768
-0.0805114
-0.0675886
-0.0551968
-0.044847
-0.452039
-0.412804
-0.357642
-0.308679
-0.266143
-0.229483
-0.197768
-0.170301
-0.146504
-0.125928
-0.108292
-0.0933239
-0.0801161
-0.0673818
-0.056249
-0.460125
-0.423785
-0.370149
-0.322092
-0.279961
-0.243384
-0.211645
-0.184031
-0.160009
-0.139116
-0.121098
-0.10578
-0.0923663
-0.0793627
-0.0675018
-0.466025
-0.432866
-0.38111
-0.334264
-0.292798
-0.25646
-0.22474
-0.197078
-0.172939
-0.151819
-0.133485
-0.117861
-0.104318
-0.0911211
-0.0785713
-0.469893
-0.440145
-0.390652
-0.345259
-0.304641
-0.268711
-0.237128
-0.209457
-0.185287
-0.164032
-0.145451
-0.129552
-0.115934
-0.102659
-0.0894341
-0.471964
-0.445801
-0.398944
-0.355172
-0.315504
-0.28011
-0.248805
-0.221242
-0.197048
-0.175754
-0.157003
-0.14085
-0.127161
-0.113989
-0.100092
-0.472536
-0.450097
-0.406199
-0.364108
-0.32543
-0.290653
-0.259747
-0.232413
-0.20829
-0.186992
-0.168153
-0.151775
-0.137965
-0.125084
-0.110583
-0.472001
-0.453431
-0.41265
-0.372177
-0.334467
-0.30036
-0.26995
-0.242952
-0.219006
-0.197774
-0.178918
-0.162368
-0.14836
-0.135849
-0.120982
-0.47077
-0.456354
-0.41851
-0.379469
-0.342667
-0.309271
-0.279438
-0.252863
-0.229185
-0.208097
-0.189299
-0.172677
-0.158408
-0.146136
-0.1314
-0.469383
-0.459233
-0.423904
-0.386038
-0.350078
-0.317434
-0.28825
-0.262168
-0.238828
-0.217953
-0.19928
-0.182659
-0.168204
-0.155862
-0.141928
-0.468429
-0.462214
-0.428844
-0.391893
-0.35674
-0.324906
-0.296437
-0.2709
-0.247944
-0.227336
-0.208842
-0.192286
-0.177734
-0.165251
-0.152357
-0.468383
-0.465294
-0.433227
-0.396995
-0.362679
-0.331739
-0.304044
-0.279089
-0.256556
-0.236258
-0.217985
-0.201549
-0.186984
-0.174435
-0.162295
-0.469471
-0.468293
-0.436833
-0.401266
-0.367919
-0.337985
-0.311108
-0.286761
-0.264682
-0.244732
-0.226722
-0.210453
-0.19594
-0.183395
-0.17159
-0.471512
-0.47069
-0.439304
-0.40461
-0.372492
-0.343685
-0.317653
-0.293933
-0.272347
-0.252787
-0.235075
-0.219011
-0.204589
-0.192059
-0.18029
-0.473665
-0.471425
-0.440172
-0.40696
-0.37645
-0.348865
-0.32368
-0.300617
-0.279575
-0.260449
-0.243065
-0.227231
-0.212919
-0.200391
-0.188534
-0.474377
-0.468888
-0.438976
-0.408338
-0.379856
-0.353514
-0.329175
-0.306826
-0.286399
-0.267752
-0.250715
-0.235122
-0.220927
-0.208402
-0.196459
-0.471849
-0.461565
-0.435562
-0.408922
-0.382723
-0.357571
-0.334121
-0.31259
-0.292856
-0.274724
-0.258045
-0.242697
-0.228628
-0.216132
-0.204159
-0.464784
-0.449033
-0.430466
-0.409018
-0.384956
-0.360942
-0.33853
-0.317967
-0.299
-0.281399
-0.265076
-0.249977
-0.236048
-0.223618
-0.211673
-0.454175
-0.432891
-0.425368
-0.408811
-0.386343
-0.363589
-0.342484
-0.323041
-0.304874
-0.2878
-0.271829
-0.256985
-0.243217
-0.230893
-0.219018
-0.441976
-0.41773
-0.421963
-0.407986
-0.386734
-0.365631
-0.346146
-0.32791
-0.310527
-0.293953
-0.278323
-0.263746
-0.250165
-0.237982
-0.226214
-0.43014
-0.408574
-0.419964
-0.405971
-0.386252
-0.367368
-0.349709
-0.332653
-0.315988
-0.299878
-0.284583
-0.270283
-0.256911
-0.244914
-0.233311
-0.419717
-0.406658
-0.417218
-0.40251
-0.385369
-0.369199
-0.353343
-0.33733
-0.321295
-0.305607
-0.290627
-0.276609
-0.263469
-0.251693
-0.24034
-0.411685
-0.409143
-0.411304
-0.398004
-0.38481
-0.371443
-0.357109
-0.341968
-0.326489
-0.311179
-0.296486
-0.282736
-0.26984
-0.258327
-0.247314
-0.40609
-0.41101
-0.401552
-0.393678
-0.385268
-0.374148
-0.360995
-0.346629
-0.331639
-0.31663
-0.302159
-0.288663
-0.276024
-0.264795
-0.254213
-0.40216
-0.410332
-0.390033
-0.391646
-0.3868
-0.377052
-0.365002
-0.351415
-0.336817
-0.321992
-0.307668
-0.294389
-0.282014
-0.2711
-0.261015
-0.399606
-0.406813
-0.383377
-0.392489
-0.388429
-0.379953
-0.369316
-0.356479
-0.342077
-0.327259
-0.312975
-0.299896
-0.287802
-0.277211
-0.267698
-0.398097
-0.401314
-0.384475
-0.393169
-0.389142
-0.383105
-0.374229
-0.361934
-0.34744
-0.332425
-0.318078
-0.305162
-0.293378
-0.28315
-0.27425
-0.397255
-0.395907
-0.390104
-0.389275
-0.389151
-0.387248
-0.380015
-0.36782
-0.352877
-0.337425
-0.322897
-0.310148
-0.298721
-0.288895
-0.280691
-0.396921
-0.39326
-0.394033
-0.381658
-0.390681
-0.392925
-0.386668
-0.374132
-0.358362
-0.342219
-0.327398
-0.314796
-0.303811
-0.294485
-0.287034
-0.396879
-0.393297
-0.395599
-0.379007
-0.39569
-0.399941
-0.394155
-0.380862
-0.363806
-0.346668
-0.331449
-0.319039
-0.308597
-0.299895
-0.293367
-0.397022
-0.394817
-0.395383
-0.386404
-0.402287
-0.407757
-0.402619
-0.388027
-0.369097
-0.350649
-0.334947
-0.322761
-0.313043
-0.305164
-0.299733
-0.397268
-0.396475
-0.396211
-0.398894
-0.407316
-0.416666
-0.412265
-0.395421
-0.373971
-0.353906
-0.337697
-0.325868
-0.317054
-0.310248
-0.306262
-0.397411
-0.397871
-0.39884
-0.407887
-0.412312
-0.427657
-0.422769
-0.402686
-0.378114
-0.356188
-0.339493
-0.32818
-0.320592
-0.315162
-0.312888
-0.397077
-0.398631
-0.401973
-0.413393
-0.421488
-0.439992
-0.433054
-0.409156
-0.381049
-0.35709
-0.340069
-0.329577
-0.323527
-0.319876
-0.319661
-0.395955
-0.39846
-0.404134
-0.41596
-0.433564
-0.450456
-0.442083
-0.414202
-0.382156
-0.356158
-0.339095
-0.329836
-0.325855
-0.324384
-0.326451
-0.393876
-0.397172
-0.404638
-0.416134
-0.443694
-0.456065
-0.448698
-0.416764
-0.380692
-0.35286
-0.336284
-0.328836
-0.327423
-0.328747
-0.333487
-0.390845
-0.394567
-0.402332
-0.415071
-0.445019
-0.457627
-0.452105
-0.415563
-0.375743
-0.34667
-0.331266
-0.326404
-0.328326
-0.332953
-0.340799
-0.387115
-0.39096
-0.398495
-0.412099
-0.438954
-0.456234
-0.450362
-0.409531
-0.366772
-0.337184
-0.323893
-0.322492
-0.328492
-0.337277
-0.348713
-0.383181
-0.386926
-0.393902
-0.406851
-0.428852
-0.45049
-0.439974
-0.397772
-0.353323
-0.324226
-0.314011
-0.317197
-0.328193
-0.34171
-0.357391
-0.379674
-0.383214
-0.389427
-0.400569
-0.417733
-0.435953
-0.422612
-0.381309
-0.3358
-0.308083
-0.302035
-0.31071
-0.32762
-0.346807
-0.367115
-0.377166
-0.380488
-0.385955
-0.39487
-0.406805
-0.416106
-0.403274
-0.359707
-0.315165
-0.289822
-0.288635
-0.303754
-0.327285
-0.35273
-0.37839