/*--------------------------------*- C++ -*----------------------------------*\
  =========                 |
  \\      /  F ield         | OpenFOAM: The Open Source CFD Toolbox
   \\    /   O peration     | Website:  https://openfoam.org
    \\  /    A nd           | Version:  7
     \\/     M anipulation  |
\*---------------------------------------------------------------------------*/
FoamFile
{
    version     2.0;
    format      ascii;
    class       surfaceScalarField;
    location    "5.9994";
    object      phi;
}
// * * * * * * * * * * * * * * * * * * * * * * * * * * * * * * * * * * * * * //

dimensions      [0 3 -1 0 0 0 0];

internalField   nonuniform List<scalar> 
37105
(
-1.79808e-05
1.79805e-05
3.07679e-10
-4.02873e-05
2.23062e-05
3.81935e-10
-6.29941e-05
2.27063e-05
3.7797e-10
-8.64026e-05
2.34081e-05
3.70991e-10
-0.000110354
2.39512e-05
3.53818e-10
-0.000134729
2.43743e-05
3.30882e-10
-0.000159336
2.46074e-05
3.05615e-10
-0.000184008
2.46712e-05
2.82953e-10
-0.000208629
2.46209e-05
2.6857e-10
-0.000233159
2.45295e-05
2.67111e-10
-0.000257582
2.44227e-05
2.8173e-10
-0.000281789
2.42065e-05
3.12817e-10
-0.000305505
2.37163e-05
3.59017e-10
-0.00032839
2.28838e-05
4.16204e-10
2.18555e-05
4.78895e-10
-0.000350246
-1.7657e-05
3.56375e-05
-3.9648e-05
4.42972e-05
-6.20258e-05
4.50841e-05
-8.50637e-05
4.64461e-05
-0.000108596
4.74835e-05
-0.000132489
4.82676e-05
-0.000156545
4.86631e-05
-0.000180588
4.87137e-05
-0.000204496
4.85292e-05
-0.000228221
4.8255e-05
-0.00025175
4.79517e-05
-0.000275009
4.74648e-05
-0.000297782
4.649e-05
-0.000319738
4.48398e-05
4.2731e-05
-0.000340614
-1.70209e-05
5.26584e-05
-3.8396e-05
6.56723e-05
-6.0136e-05
6.68241e-05
-8.24628e-05
6.87729e-05
-0.000105198
7.02184e-05
-0.000128182
7.12517e-05
-0.000151201
7.1682e-05
-0.000174067
7.15798e-05
-0.00019665
7.11125e-05
-0.000218893
7.04976e-05
-0.000240788
6.98472e-05
-0.000262321
6.89977e-05
-0.000283378
6.75466e-05
-0.00030363
6.50924e-05
6.17844e-05
-0.000322684
-1.6093e-05
6.87514e-05
-3.65717e-05
8.6151e-05
-5.73903e-05
8.76427e-05
-7.87069e-05
9.00895e-05
-0.000100324
9.18356e-05
-0.000122047
9.29742e-05
-0.00014364
9.32751e-05
-0.000164907
9.28475e-05
-0.000185727
9.19319e-05
-0.000206058
9.08287e-05
-0.000225931
8.97205e-05
-0.000245406
8.84725e-05
-0.000264483
8.66238e-05
-0.000282857
8.34664e-05
7.88826e-05
-0.000299955
-1.49161e-05
8.36675e-05
-3.42251e-05
0.00010546
-5.38716e-05
0.000107289
-7.39309e-05
0.000110149
-9.41781e-05
0.000112083
-0.000114379
0.000113175
-0.000134288
0.000113185
-0.000153734
0.000112293
-0.000172651
0.000110849
-0.000191077
0.000109255
-0.000209124
0.000107768
-0.000226931
0.00010628
-0.000244606
0.000104299
-0.000261931
0.000100791
9.51296e-05
-0.000278178
-1.35497e-05
9.72172e-05
-3.14041e-05
0.000123314
-4.96684e-05
0.000125553
-6.82786e-05
0.000128759
-8.6977e-05
0.000130781
-0.000105504
0.000131702
-0.000123641
0.000131321
-0.000141285
0.000129938
-0.000158492
0.000128055
-0.000175421
0.000126184
-0.00019228
0.000124626
-0.00020925
0.00012325
-0.000226486
0.000121534
-0.000243884
0.00011819
0.000111909
-0.000260664
-1.19036e-05
0.000109121
-2.81304e-05
0.000139541
-4.48698e-05
0.000142293
-6.18982e-05
0.000145787
-7.89462e-05
0.000147829
-9.57583e-05
0.000148514
-0.000112174
0.000147737
-0.000128197
0.000145961
-0.000144009
0.000143867
-0.000159872
0.000142048
-0.000176015
0.000140769
-0.000192552
0.000139787
-0.000209559
0.000138541
-0.000227022
0.000135653
0.00012908
-0.000244193
-1.00204e-05
0.000119141
-2.44424e-05
0.000153963
-3.95622e-05
0.000157413
-5.49298e-05
0.000161155
-7.02853e-05
0.000163185
-8.54049e-05
0.000163634
-0.000100199
0.000162531
-0.00011476
0.000160522
-0.000129348
0.000158455
-0.000144246
0.000156945
-0.000159596
0.000156119
-0.000175358
0.000155549
-0.000191447
0.000154631
-0.000207896
0.000152101
0.000145379
-0.000224194
-7.9325e-06
0.000127074
-2.03954e-05
0.000166426
-3.38339e-05
0.000170851
-4.74909e-05
0.000174812
-6.1144e-05
0.000176838
-7.46103e-05
0.0001771
-8.7852e-05
0.000175773
-0.000101003
0.000173673
-0.000114336
0.000171788
-0.000128077
0.000170686
-0.00014225
0.000170292
-0.000156657
0.000169956
-0.000171068
0.000169041
-0.000185479
0.000166512
0.000159524
-0.000199624
-5.6427e-06
0.000132716
-1.60392e-05
0.000176822
-2.77579e-05
0.00018257
-3.96731e-05
0.000186727
-5.16267e-05
0.000188791
-6.3467e-05
0.00018894
-7.51779e-05
0.000187484
-8.68867e-05
0.000185382
-9.88197e-05
0.000183721
-0.000111113
0.00018298
-0.000123686
0.000182865
-0.000136216
0.000182486
-0.000148312
0.000181138
-0.000159759
0.000177959
0.000170156
-0.000170391
-3.14028e-06
0.000135857
-1.14536e-05
0.000185136
-2.1402e-05
0.000192518
-3.15451e-05
0.00019687
-4.18065e-05
0.000199053
-5.20351e-05
0.000199169
-6.21983e-05
0.000197647
-7.23762e-05
0.00019556
-8.27116e-05
0.000194057
-9.32309e-05
0.000193499
-0.000103747
0.000193381
-0.00011385
0.000192589
-0.000122981
0.000190269
-0.000130538
0.000185516
0.000175926
-0.000136308
-2.2488e-07
0.000136082
-6.70867e-06
0.00019162
-1.47915e-05
0.000200601
-2.31611e-05
0.00020524
-3.17428e-05
0.000207634
-4.03583e-05
0.000207784
-4.89297e-05
0.000206218
-5.74648e-05
0.000204095
-6.59952e-05
0.000202587
-7.44405e-05
0.000201944
-8.25158e-05
0.000201456
-8.97327e-05
0.000199806
-9.54329e-05
0.000195969
-9.86304e-05
0.000188713
0.000176094
-9.8798e-05
2.15142e-06
0.00013393
-1.92653e-06
0.000195698
-7.94836e-06
0.000206623
-1.45823e-05
0.000211874
-2.149e-05
0.000214542
-2.84865e-05
0.000214781
-3.54124e-05
0.000213144
-4.21969e-05
0.000210879
-4.8743e-05
0.000209133
-5.48773e-05
0.000208078
-6.02375e-05
0.000206817
-6.4229e-05
0.000203797
-6.62149e-05
0.000197955
-6.52579e-05
0.000187756
0.000170159
-5.9323e-05
4.81769e-06
0.000129112
3.30796e-06
0.000197207
-9.65069e-07
0.000210896
-5.88049e-06
0.000216789
-1.11119e-05
0.000219773
-1.64741e-05
0.000220143
-2.17057e-05
0.000218376
-2.66588e-05
0.000215832
-3.10934e-05
0.000213568
-3.47485e-05
0.000211734
-3.72676e-05
0.000209336
-3.7948e-05
0.000204478
-3.61292e-05
0.000196136
-3.16005e-05
0.000183227
0.000159885
-2.13267e-05
7.66206e-06
0.00012145
8.76092e-06
0.000196108
6.3819e-06
0.000213275
2.98823e-06
0.000220183
-7.71471e-07
0.000223533
-4.41419e-06
0.000223786
-7.92109e-06
0.000221883
-1.09775e-05
0.000218889
-1.32394e-05
0.00021583
-1.43253e-05
0.000212819
-1.39666e-05
0.000208977
-1.13915e-05
0.000201903
-5.87483e-06
0.000190619
3.06145e-06
0.000174291
0.000147092
1.58549e-05
1.05641e-05
0.000110886
1.42461e-05
0.000192426
1.37602e-05
0.000213761
1.20712e-05
0.000221872
1.00082e-05
0.000225596
7.82999e-06
0.000225964
5.93798e-06
0.000223775
4.71765e-06
0.000220109
4.57668e-06
0.000215971
6.02788e-06
0.000211368
9.30006e-06
0.000205705
1.50071e-05
0.000196196
2.44827e-05
0.000181144
3.64015e-05
0.000162372
0.000131172
5.23211e-05
1.34187e-05
9.74675e-05
1.97199e-05
0.000186125
2.11269e-05
0.000212354
2.10689e-05
0.00022193
2.05861e-05
0.000226079
2.00184e-05
0.000226532
1.97605e-05
0.000224033
2.02917e-05
0.000219578
2.2104e-05
0.000214158
2.59606e-05
0.000207512
3.22211e-05
0.000199444
4.05555e-05
0.000187861
5.43234e-05
0.000167376
7.08837e-05
0.000145812
0.000113455
8.86008e-05
1.60867e-05
8.13808e-05
2.50201e-05
0.000177192
2.83907e-05
0.000208983
2.99597e-05
0.000220361
3.10174e-05
0.000225021
3.20016e-05
0.000225547
3.33208e-05
0.000222713
3.5576e-05
0.000217323
3.92229e-05
0.000210512
4.50881e-05
0.000201646
5.42957e-05
0.000190237
6.45879e-05
0.000177569
8.02194e-05
0.000151744
0.000102239
0.000123792
8.89659e-05
0.000126728
1.83229e-05
6.30579e-05
2.98879e-05
0.000165627
3.54106e-05
0.000203461
3.86632e-05
0.000217108
4.12358e-05
0.000222449
4.37189e-05
0.000223064
4.6534e-05
0.000219898
5.04123e-05
0.000213444
5.58614e-05
0.000205063
6.31426e-05
0.000194365
7.51436e-05
0.000178236
8.8249e-05
0.000164464
0.000103671
0.000136322
0.000124832
0.000102631
5.76407e-05
0.000156157
1.96129e-05
4.3445e-05
3.3965e-05
0.000151275
4.20039e-05
0.000195422
4.70565e-05
0.000212056
5.11258e-05
0.000218379
5.50785e-05
0.000219112
5.93234e-05
0.000215653
6.46194e-05
0.000208148
7.18994e-05
0.000197782
8.00732e-05
0.000186191
9.34903e-05
0.000164819
0.000110151
0.000147803
0.000129016
0.000117457
0.000146858
8.47891e-05
2.65375e-05
0.000177961
1.90101e-05
2.44349e-05
3.6803e-05
0.000133482
4.7887e-05
0.000184338
5.49233e-05
0.000205019
6.05307e-05
0.000212772
6.59607e-05
0.000213682
7.16323e-05
0.000209982
7.7987e-05
0.000201794
8.7148e-05
0.000188621
9.65566e-05
0.000176783
0.000109786
0.000151589
0.00012709
0.0001305
0.000150836
9.37115e-05
0.000170572
6.50525e-05
-7.41597e-07
0.000197851
1.60212e-05
8.41367e-06
3.80975e-05
0.000111406
5.26475e-05
0.000169788
6.19783e-05
0.000195689
6.92727e-05
0.000205478
7.61747e-05
0.00020678
8.34039e-05
0.000202752
9.05811e-05
0.000194616
0.000101203
0.000178
0.000112537
0.000165448
0.000126627
0.0001375
0.000142103
0.000115023
0.000166063
6.97519e-05
0.000188858
4.22575e-05
-2.64265e-05
0.000214543
1.17357e-05
-3.32207e-06
3.77776e-05
8.53636e-05
5.57329e-05
0.000151833
6.78372e-05
0.000183584
7.71567e-05
0.000196158
8.54879e-05
0.000198448
9.43945e-05
0.000193846
0.000102492
0.000186519
0.000113874
0.000166617
0.00012667
0.000152653
0.000143389
0.00012078
0.00015933
9.90825e-05
0.000180136
4.89452e-05
0.00020464
1.77538e-05
-5.17427e-05
0.000229956
7.49016e-06
-1.08122e-05
3.5078e-05
5.77758e-05
5.66474e-05
0.000130263
7.21217e-05
0.00016811
8.38994e-05
0.00018438
9.35909e-05
0.000188757
0.000104268
0.000183169
0.000113688
0.000177099
0.000125697
0.000154608
0.000138488
0.000139862
0.000156872
0.000102397
0.000175872
8.00828e-05
0.000195346
2.94711e-05
0.000219964
-6.86392e-06
-7.68963e-05
0.000245117
3.48018e-06
-1.42924e-05
2.90461e-05
3.22099e-05
5.48985e-05
0.000104411
7.42693e-05
0.000148739
8.90978e-05
0.000169552
0.000100289
0.000177566
0.00011249
0.000170968
0.000123539
0.000166051
0.000137174
0.000140973
0.000149577
0.000127459
0.000167155
8.48184e-05
0.000188048
5.91896e-05
0.000208591
8.92801e-06
0.000233003
-3.12756e-05
-0.000101653
0.00025776
1.52418e-07
-1.44448e-05
2.06122e-05
1.17501e-05
5.03566e-05
7.46665e-05
7.34882e-05
0.000125608
9.19591e-05
0.000151081
0.000105307
0.000164218
0.000118894
0.00015738
0.000130841
0.000154105
0.000146844
0.000124969
0.000160649
0.000113654
0.000177365
6.81022e-05
0.000197912
3.86429e-05
0.000219321
-1.24811e-05
0.000243984
-5.59388e-05
-0.00012545
0.00026778
-1.93739e-06
-1.25074e-05
1.21882e-05
-2.37549e-06
4.25043e-05
4.43504e-05
6.89202e-05
9.91916e-05
9.15821e-05
0.000128419
0.000107645
0.000148156
0.000123395
0.000141629
0.000135687
0.000141812
0.000152383
0.000108273
0.000168865
9.71729e-05
0.000186542
5.0425e-05
0.000206133
1.90518e-05
0.000228072
-3.44201e-05
0.000252369
-8.02354e-05
-0.000146454
0.000273372
-1.9743e-06
-1.05331e-05
5.94011e-06
-1.02899e-05
3.13162e-05
1.89744e-05
6.01365e-05
7.03713e-05
8.69582e-05
0.000101598
0.000106164
0.00012895
0.00012443
0.000123363
0.000138773
0.000127469
0.000154179
9.28677e-05
0.000172607
7.87443e-05
0.000190739
3.22931e-05
0.000210489
-6.9837e-07
0.000231771
-5.57015e-05
0.000255216
-0.00010368
-0.000162164
0.000270926
-1.31747e-06
-9.21566e-06
2.56055e-06
-1.41679e-05
1.9955e-05
1.57999e-06
4.77585e-05
4.25678e-05
7.6897e-05
7.2459e-05
9.96225e-05
0.000106224
0.000119957
0.000103029
0.000137815
0.000109611
0.0001527
7.7983e-05
0.000172084
5.936e-05
0.000188135
1.62422e-05
0.000210254
-2.28178e-05
0.000227404
-7.28511e-05
0.00025095
-0.000127226
-0.000172378
0.000261165
-3.57751e-07
-8.8579e-06
2.06436e-06
-1.659e-05
1.18585e-05
-8.21413e-06
3.43327e-05
2.00935e-05
6.18371e-05
4.49546e-05
8.66838e-05
8.13776e-05
0.000109112
8.06005e-05
0.000129257
8.94659e-05
0.000145858
6.13825e-05
0.000165957
3.92607e-05
0.000180743
1.45645e-06
0.000203843
-4.59183e-05
0.000215706
-8.47138e-05
0.000238646
-0.000150166
-0.000169266
0.000235533
5.67949e-07
-9.42585e-06
2.86741e-06
-1.88895e-05
8.3181e-06
-1.36648e-05
2.3323e-05
5.08857e-06
4.48436e-05
2.34341e-05
6.84916e-05
5.77295e-05
9.11787e-05
5.79135e-05
0.000112209
6.84354e-05
0.000130981
4.26111e-05
0.000149587
2.06538e-05
0.000167932
-1.68879e-05
0.000184473
-6.24596e-05
0.000197445
-9.76852e-05
0.000206408
-0.000159129
-0.000199504
0.000236645
1.19847e-06
-1.06243e-05
3.43436e-06
-2.11254e-05
7.09665e-06
-1.73271e-05
1.58272e-05
-3.64196e-06
2.94184e-05
9.84286e-06
4.88839e-05
3.8264e-05
6.75586e-05
3.92388e-05
8.82341e-05
4.77599e-05
0.000107014
2.38316e-05
0.000123881
3.78617e-06
0.000143719
-3.67252e-05
0.000155366
-7.41073e-05
0.000171752
-0.000114071
0.000201919
-0.000189297
-0.000277423
0.000279838
1.31726e-06
-1.19416e-05
2.89878e-06
-2.27069e-05
5.1916e-06
-1.96199e-05
9.68575e-06
-8.13611e-06
1.64912e-05
3.03743e-06
2.95738e-05
2.51814e-05
4.21657e-05
2.66468e-05
5.93689e-05
3.05567e-05
7.56187e-05
7.58184e-06
9.2519e-05
-1.31142e-05
0.000110569
-5.47746e-05
0.000127267
-9.08062e-05
0.000170017
-0.000156821
0.000233125
-0.000252404
-0.000334651
0.000290353
7.87365e-07
-1.2729e-05
9.17756e-07
-2.28373e-05
1.28367e-06
-1.99858e-05
2.12926e-06
-8.9817e-06
4.10231e-06
1.06437e-06
1.01085e-05
1.91752e-05
1.67243e-05
2.0031e-05
2.78327e-05
1.94484e-05
4.20342e-05
-6.61971e-06
6.00856e-05
-3.11656e-05
8.57201e-05
-8.04091e-05
0.000132733
-0.000137819
0.000200425
-0.000224513
0.000252459
-0.000304438
-0.000371226
0.000289034
-3.59119e-07
-1.23698e-05
-2.19647e-06
-2.09999e-05
-4.58723e-06
-1.75951e-05
-6.85611e-06
-6.71281e-06
-9.79435e-06
4.00261e-06
-1.01211e-05
1.9502e-05
-9.12996e-06
1.90398e-05
-1.46256e-06
1.1781e-05
1.41088e-05
-2.2191e-05
4.7236e-05
-6.42928e-05
0.000100496
-0.000133669
0.000166949
-0.000204273
0.000222239
-0.000279803
0.00025971
-0.000341908
-0.000398836
0.000287319
-1.89781e-06
-1.0472e-05
-6.00975e-06
-1.6888e-05
-1.12729e-05
-1.23319e-05
-1.70192e-05
-9.6647e-07
-2.44756e-05
1.1459e-05
-3.01562e-05
2.51825e-05
-3.24767e-05
2.13604e-05
-1.97963e-05
-8.99463e-07
1.39091e-05
-5.58964e-05
7.142e-05
-0.000121804
0.000135264
-0.000197513
0.000189853
-0.000258862
0.000229302
-0.000319252
0.000257119
-0.000369725
-0.000416492
0.000274775
-3.49913e-06
-6.9729e-06
-9.82662e-06
-1.05605e-05
-1.7723e-05
-4.43555e-06
-2.65975e-05
7.90805e-06
-3.69747e-05
2.18362e-05
-4.4395e-05
3.26029e-05
-4.07333e-05
1.76987e-05
-9.19296e-06
-3.24398e-05
4.42487e-05
-0.000109338
0.000105517
-0.000183072
0.000156301
-0.000248296
0.000197418
-0.000299979
0.000228011
-0.000349845
0.000249839
-0.000391554
-0.000435731
0.000269079
-4.74605e-06
-2.22685e-06
-1.26698e-05
-2.63679e-06
-2.22242e-05
5.11893e-06
-3.25476e-05
1.82314e-05
-4.25619e-05
3.18505e-05
-4.59514e-05
3.59924e-05
-2.80149e-05
-2.37851e-07
2.0258e-05
-8.07127e-05
7.59807e-05
-0.000165061
0.000125802
-0.000232893
0.000166163
-0.000288657
0.000199397
-0.000333213
0.000224654
-0.000375102
0.000244542
-0.000411441
-0.000448834
0.000257645
-5.28097e-06
3.05412e-06
-1.37178e-05
5.80005e-06
-2.33086e-05
1.47097e-05
-3.27402e-05
2.7663e-05
-3.92306e-05
3.8341e-05
-3.47214e-05
3.14832e-05
-1.29473e-06
-3.36646e-05
4.97494e-05
-0.000131757
9.68071e-05
-0.000212118
0.000138455
-0.000274541
0.000172271
-0.000322473
0.000199361
-0.000360304
0.000220076
-0.000395817
0.000234846
-0.000426212
-0.000462289
0.0002483
-5.00252e-06
8.05664e-06
-1.28102e-05
1.36078e-05
-2.09973e-05
2.28968e-05
-2.77055e-05
3.43712e-05
-2.9477e-05
4.01124e-05
-1.53482e-05
1.73544e-05
2.56942e-05
-7.47069e-05
7.18646e-05
-0.000177927
0.000113108
-0.000253362
0.000147928
-0.000309361
0.00017521
-0.000349755
0.000196666
-0.00038176
0.000213034
-0.000412184
0.000227529
-0.000440707
-0.000474083
0.000239324
-4.08035e-06
1.2137e-05
-1.045e-05
1.99774e-05
-1.63914e-05
2.88382e-05
-1.96518e-05
3.76316e-05
-1.7901e-05
3.83616e-05
6.40368e-06
-6.95032e-06
5.01297e-05
-0.000118433
8.99815e-05
-0.000217779
0.000125245
-0.000288625
0.000153359
-0.000337475
0.000175021
-0.000371417
0.000192498
-0.000399237
0.000207012
-0.000426697
0.000218726
-0.000452421
-0.000484165
0.000228807
-2.79828e-06
1.49353e-05
-7.33789e-06
2.4517e-05
-1.08393e-05
3.23396e-05
-1.07552e-05
3.75475e-05
-4.55537e-06
3.21617e-05
2.66906e-05
-3.81963e-05
6.86966e-05
-0.000160439
0.000104665
-0.000253747
0.000133549
-0.00031751
0.000155958
-0.000359884
0.000173442
-0.000388901
0.00018798
-0.000413775
0.000199629
-0.000438346
0.000210589
-0.000463382
-0.000494454
0.000220879
-1.4282e-06
1.63635e-05
-4.07635e-06
2.71652e-05
-5.17354e-06
3.34368e-05
-3.26006e-06
3.56341e-05
9.77397e-06
1.91277e-05
4.7339e-05
-7.57613e-05
8.42441e-05
-0.000197344
0.00011517
-0.000284673
0.000138732
-0.000341072
0.000156514
-0.000377666
0.000170466
-0.000402854
0.000182304
-0.000425613
0.000192894
-0.000448936
0.000202681
-0.000473169
-0.000502597
0.000210824
-1.80221e-07
1.65437e-05
-1.06183e-06
2.80468e-05
1.49592e-07
3.22254e-05
2.75143e-06
3.30322e-05
2.22551e-05
-3.75914e-07
6.3045e-05
-0.000116551
9.67296e-05
-0.000231029
0.000122568
-0.000310511
0.00014134
-0.000359845
0.000155229
-0.000391554
0.000166509
-0.000414134
0.000176772
-0.000435876
0.000185729
-0.000457893
0.000194421
-0.000481861
-0.000511139
0.000202964
8.14478e-07
1.57292e-05
1.49561e-06
2.73657e-05
4.18227e-06
2.95387e-05
9.103e-06
2.81115e-05
3.55627e-05
-2.68356e-05
7.50809e-05
-0.000156069
0.000105602
-0.000261549
0.000126853
-0.000331762
0.000141669
-0.000374661
0.000152718
-0.000402603
0.000162069
-0.000423484
0.000170627
-0.000444434
0.00017873
-0.000465996
0.000186927
-0.000490058
-0.000518006
0.000193793
1.44951e-06
1.42797e-05
3.29833e-06
2.55168e-05
6.59746e-06
2.62396e-05
1.48786e-05
1.98304e-05
4.90862e-05
-6.10432e-05
8.51447e-05
-0.000192128
0.000111602
-0.000288006
0.000128864
-0.000349023
0.000140494
-0.000386292
0.000149259
-0.000411369
0.000156993
-0.000431218
0.000164581
-0.000452023
0.000171761
-0.000473176
0.000178847
-0.000497144
-0.00052476
0.000185602
1.64918e-06
1.26305e-05
4.15989e-06
2.30061e-05
6.73028e-06
2.36692e-05
2.03898e-05
6.17088e-06
6.03764e-05
-0.00010103
9.2549e-05
-0.000224301
0.000114648
-0.000310106
0.000128595
-0.00036297
0.000137846
-0.000395543
0.000145025
-0.000418548
0.000151732
-0.000437924
0.000158276
-0.000458567
0.000164718
-0.000479617
0.000171466
-0.000503892
-0.000530393
0.000177098
1.49107e-06
1.11394e-05
4.13888e-06
2.03583e-05
5.8116e-06
2.19964e-05
2.73531e-05
-1.53706e-05
6.84267e-05
-0.000142103
9.76124e-05
-0.000253486
0.000115882
-0.000328375
0.000127009
-0.000374097
0.00013442
-0.000402954
0.000140381
-0.00042451
0.000146119
-0.000443661
0.000151976
-0.000464425
0.000157844
-0.000485485
0.000163669
-0.000509717
-0.000535611
0.000168888
1.21075e-06
9.92869e-06
3.4205e-06
1.81486e-05
6.59097e-06
1.8826e-05
3.65591e-05
-4.53387e-05
7.43558e-05
-0.0001799
0.000100154
-0.000279285
0.000115206
-0.000343427
0.000124084
-0.000382976
0.000130136
-0.000409005
0.000135242
-0.000429616
0.000140388
-0.000448807
0.00014558
-0.000469617
0.000150817
-0.000490722
0.00015628
-0.000515179
-0.000540379
0.000161048
7.71738e-07
9.15695e-06
1.43195e-06
1.74884e-05
9.69299e-06
1.05649e-05
4.66013e-05
-8.2247e-05
7.90208e-05
-0.00021232
0.000100731
-0.000300995
0.000113251
-0.000355947
0.000120496
-0.00039022
0.000125535
-0.000414045
0.000129971
-0.000434052
0.000134494
-0.00045333
0.000139146
-0.00047427
0.000143946
-0.000495521
0.000148719
-0.000519952
-0.000544732
0.000153071
1.57079e-07
8.99987e-06
-7.42175e-07
1.83876e-05
1.37984e-05
-3.97565e-06
5.43893e-05
-0.000122838
8.23315e-05
-0.000240262
0.000100013
-0.000318676
0.000110197
-0.000366131
0.000116156
-0.00039618
0.000120458
-0.000418346
0.000124388
-0.000437982
0.000128497
-0.000457439
0.000132674
-0.000478447
0.000136947
-0.000499794
0.000141334
-0.000524339
-0.000548806
0.000145408
-4.12924e-07
9.4128e-06
-1.48844e-06
1.94631e-05
2.04182e-05
-2.58823e-05
5.85082e-05
-0.000160928
8.38169e-05
-0.000265571
9.83619e-05
-0.000333221
0.000106555
-0.000374324
0.00011152
-0.000401144
0.000115272
-0.000422099
0.000118792
-0.000441501
0.000122446
-0.000461093
0.000126175
-0.000482176
0.000130063
-0.000503682
0.000133908
-0.000528185
-0.000552368
0.00013747
-7.39653e-07
1.01525e-05
8.85073e-07
1.78384e-05
2.88286e-05
-5.38259e-05
6.14342e-05
-0.000193533
8.35422e-05
-0.000287678
9.58058e-05
-0.000345485
0.000102427
-0.000380946
0.00010655
-0.000405267
0.00010984
-0.000425389
0.000113002
-0.000444664
0.000116311
-0.000464402
0.000119651
-0.000485516
0.000123088
-0.000507119
0.000126523
-0.000531619
-0.000555633
0.000129788
-9.74687e-07
1.11271e-05
4.33981e-06
1.25239e-05
3.68071e-05
-8.62932e-05
6.38571e-05
-0.000220583
8.21378e-05
-0.000305959
9.24136e-05
-0.000355761
9.79519e-05
-0.000386484
0.00010148
-0.000408795
0.000104401
-0.000428309
0.000107245
-0.000447508
0.000110175
-0.000467332
0.000113122
-0.000488464
0.000116186
-0.000510184
0.000119148
-0.000534581
-0.000558412
0.000121927
-1.0663e-06
1.21934e-05
8.11071e-06
3.3469e-06
4.22096e-05
-0.000120392
6.54208e-05
-0.000243795
8.01513e-05
-0.00032069
8.85341e-05
-0.000364143
9.31971e-05
-0.000391147
9.62618e-05
-0.00041186
9.88516e-05
-0.000430899
0.000101382
-0.000450038
0.000103986
-0.000469936
0.000106576
-0.000491053
0.000109219
-0.000512827
0.000111774
-0.000537135
-0.000560887
0.000114249
-1.03433e-06
1.32278e-05
1.22611e-05
-9.94857e-06
4.47511e-05
-0.000152882
6.58443e-05
-0.000264888
7.77655e-05
-0.000332611
8.44095e-05
-0.000370787
8.82947e-05
-0.000395032
9.0998e-05
-0.000414563
9.33191e-05
-0.00043322
9.55645e-05
-0.000452283
9.78206e-05
-0.000472193
0.000100043
-0.000493275
0.000102318
-0.000515102
0.000104436
-0.000539253
-0.00056292
0.000106469
-1.3423e-06
1.45701e-05
1.74109e-05
-2.87018e-05
4.57243e-05
-0.000181195
6.47963e-05
-0.00028396
7.4911e-05
-0.000342725
8.01805e-05
-0.000376057
8.33569e-05
-0.000398209
8.57008e-05
-0.000416907
8.77454e-05
-0.000435265
8.96956e-05
-0.000454233
9.16334e-05
-0.00047413
9.35088e-05
-0.000495151
9.53797e-05
-0.000516973
9.71083e-05
-0.000540982
-0.00056464
9.88283e-05
-1.05207e-06
1.56221e-05
2.18466e-05
-5.16004e-05
4.65853e-05
-0.000205934
6.28501e-05
-0.000300225
7.15006e-05
-0.000351376
7.58363e-05
-0.000380393
7.84328e-05
-0.000400805
8.04303e-05
-0.000418904
8.22034e-05
-0.000437038
8.38733e-05
-0.000455903
8.54773e-05
-0.000475734
8.69975e-05
-0.000496671
8.85085e-05
-0.000518484
8.9839e-05
-0.000542313
-0.000565936
9.11353e-05
2.63401e-08
1.55958e-05
2.54508e-05
-7.70249e-05
4.68441e-05
-0.000227327
6.05056e-05
-0.000313886
6.77255e-05
-0.000358596
7.13705e-05
-0.000384038
7.35393e-05
-0.000402974
7.52052e-05
-0.00042057
7.66794e-05
-0.000438512
7.80405e-05
-0.000457264
7.93235e-05
-0.000477017
8.05013e-05
-0.000497849
8.16199e-05
-0.000519603
8.25783e-05
-0.000543271
-0.000566927
8.35692e-05
1.22669e-06
1.43691e-05
2.79945e-05
-0.000103793
4.66527e-05
-0.000245986
5.79165e-05
-0.00032515
6.3797e-05
-0.000364476
6.68309e-05
-0.000387071
6.86534e-05
-0.000404797
7.00226e-05
-0.000421939
7.12016e-05
-0.000439691
7.22607e-05
-0.000458323
7.32083e-05
-0.000477965
7.40317e-05
-0.000498672
7.47933e-05
-0.000520364
7.53806e-05
-0.000543858
-0.000567542
7.59961e-05
3.099e-06
1.12701e-05
2.94032e-05
-0.000130097
4.60739e-05
-0.000262656
5.52146e-05
-0.000334291
5.98509e-05
-0.000369113
6.22911e-05
-0.000389512
6.37937e-05
-0.000406299
6.48861e-05
-0.000423032
6.57666e-05
-0.000440572
6.65014e-05
-0.000459058
6.71155e-05
-0.000478579
6.75941e-05
-0.000499151
6.79708e-05
-0.000520741
6.81933e-05
-0.000544081
-0.000567873
6.85242e-05
5.53127e-06
5.73883e-06
2.96126e-05
-0.000154178
4.49793e-05
-0.000278023
5.2432e-05
-0.000341743
5.59471e-05
-0.000372628
5.78017e-05
-0.000391366
5.89691e-05
-0.000407467
5.97819e-05
-0.000423845
6.03712e-05
-0.000441161
6.07958e-05
-0.000459483
6.10704e-05
-0.000478854
6.11909e-05
-0.000499271
6.1207e-05
-0.000520757
6.10607e-05
-0.000543935
-0.000567771
6.09586e-05
8.49754e-06
-2.75871e-06
2.9618e-05
-0.000175299
4.32565e-05
-0.000291662
4.94943e-05
-0.000347981
5.20915e-05
-0.000375225
5.33942e-05
-0.000392669
5.42097e-05
-0.000408282
5.47336e-05
-0.000424369
5.50272e-05
-0.000441454
5.51279e-05
-0.000459584
5.5062e-05
-0.000478788
5.48327e-05
-0.000499042
5.44679e-05
-0.000520392
5.3932e-05
-0.000543399
-0.000567253
5.34139e-05
1.1113e-05
-1.38717e-05
2.97015e-05
-0.000193887
4.12167e-05
-0.000303177
4.63253e-05
-0.00035309
4.82387e-05
-0.000377138
4.90636e-05
-0.000393494
4.95191e-05
-0.000408738
4.97345e-05
-0.000424584
4.97269e-05
-0.000441447
4.95141e-05
-0.000459371
4.91074e-05
-0.000478381
4.85149e-05
-0.000498449
4.77792e-05
-0.000519657
4.68605e-05
-0.00054248
-0.000566268
4.5875e-05
1.30526e-05
-2.69242e-05
2.94006e-05
-0.000210235
3.89482e-05
-0.000312724
4.29772e-05
-0.000357119
4.43449e-05
-0.000378506
4.47888e-05
-0.000393938
4.49086e-05
-0.000408857
4.48109e-05
-0.000424486
4.44936e-05
-0.00044113
4.39545e-05
-0.000458832
4.32027e-05
-0.00047763
4.22491e-05
-0.000497496
4.1126e-05
-0.000518534
3.98158e-05
-0.00054117
-0.00056484
3.83881e-05
1.41744e-05
-4.10986e-05
2.86671e-05
-0.000224728
3.65056e-05
-0.000320563
3.95488e-05
-0.000360162
4.04422e-05
-0.0003794
4.05609e-05
-0.000394056
4.03665e-05
-0.000408663
3.99516e-05
-0.000424071
3.93178e-05
-0.000440496
3.84565e-05
-0.00045797
3.73623e-05
-0.000476535
3.60383e-05
-0.000496172
3.4523e-05
-0.000517018
3.28234e-05
-0.00053947
-0.000562966
3.0949e-05
1.45366e-05
-5.56352e-05
2.75066e-05
-0.000237698
3.3912e-05
-0.000326968
3.61059e-05
-0.000362356
3.65653e-05
-0.000379859
3.63847e-05
-0.000393876
3.58971e-05
-0.000408175
3.51741e-05
-0.000423348
3.42215e-05
-0.000439543
3.30287e-05
-0.000456777
3.15891e-05
-0.000475096
2.99027e-05
-0.000494485
2.79874e-05
-0.000515103
2.58541e-05
-0.000537337
-0.000560671
2.35599e-05
1.43707e-05
-7.00058e-05
2.60101e-05
-0.000249338
3.12149e-05
-0.000332173
3.26859e-05
-0.000363827
3.27436e-05
-0.000379917
3.22714e-05
-0.000393404
3.14954e-05
-0.000407399
3.04655e-05
-0.000422318
2.91928e-05
-0.000438271
2.76712e-05
-0.000455256
2.58906e-05
-0.000473315
2.38485e-05
-0.000492443
2.15514e-05
-0.000512806
1.89319e-05
-0.000534717
-0.000557952
1.62127e-05
1.38654e-05
-8.38712e-05
2.42612e-05
-0.000259733
2.84438e-05
-0.000336356
2.93049e-05
-0.000364688
2.89936e-05
-0.000379605
2.82321e-05
-0.000392642
2.71715e-05
-0.000406339
2.5841e-05
-0.000420988
2.42501e-05
-0.00043668
2.23949e-05
-0.000453401
2.02696e-05
-0.00047119
1.7877e-05
-0.000490051
1.52273e-05
-0.000510156
1.21207e-05
-0.000531611
-0.00055471
8.878e-06
1.31405e-05
-9.70117e-05
2.23494e-05
-0.000268942
2.56436e-05
-0.00033965
2.59815e-05
-0.000365026
2.53292e-05
-0.000378953
2.42774e-05
-0.00039159
2.29268e-05
-0.000404988
2.12925e-05
-0.000419354
1.93838e-05
-0.000434771
1.71972e-05
-0.000451214
1.47272e-05
-0.00046872
1.19831e-05
-0.000487306
8.97237e-06
-0.000507146
5.54433e-06
-0.000528183
-0.000550605
1.43939e-06
1.22665e-05
-0.000109278
2.03366e-05
-0.000277012
2.28477e-05
-0.000342161
2.27299e-05
-0.000364908
2.17578e-05
-0.000377981
2.04139e-05
-0.000390246
1.87709e-05
-0.000403345
1.68343e-05
-0.000417417
1.4609e-05
-0.000432546
1.2088e-05
-0.000448693
9.26915e-06
-0.000465901
6.17552e-06
-0.000484213
2.70925e-06
-0.000503679
-6.79261e-07
-0.000524794
-0.000545922
-5.36163e-06
1.1253e-05
-0.000120531
1.82772e-05
-0.000284037
2.0097e-05
-0.000343981
1.95683e-05
-0.000364379
1.82871e-05
-0.0003767
1.66471e-05
-0.000388606
1.47047e-05
-0.000401403
1.24603e-05
-0.000415173
9.91639e-06
-0.000430002
7.06181e-06
-0.000445839
3.89593e-06
-0.000462735
3.80319e-07
-0.000480697
-3.31815e-06
-0.000499981
-7.43062e-06
-0.000520682
-0.000541315
-1.20377e-05
1.01371e-05
-0.000130668
1.62198e-05
-0.000290119
1.74173e-05
-0.000345178
1.65092e-05
-0.000363471
1.49191e-05
-0.00037511
1.29788e-05
-0.000386666
1.07331e-05
-0.000399157
8.17965e-06
-0.000412619
5.31056e-06
-0.000427132
2.11842e-06
-0.000442646
-1.36931e-06
-0.000459247
-5.13206e-06
-0.000476934
-9.17241e-06
-0.00049594
-1.3832e-05
-0.000516022
-0.000536471
-1.86765e-05
9.14036e-06
-0.000139809
1.42156e-05
-0.000295194
1.48218e-05
-0.000345784
1.35497e-05
-0.000362199
1.1654e-05
-0.000373214
9.41059e-06
-0.000384423
6.85264e-06
-0.000396599
3.9799e-06
-0.000409747
7.6001e-07
-0.000423913
-2.70899e-06
-0.000439177
-6.50212e-06
-0.000455454
-1.05867e-05
-0.00047285
-1.50125e-05
-0.000491515
-2.00579e-05
-0.000510977
-0.000531301
-2.52276e-05
8.18209e-06
-0.000147991
1.22888e-05
-0.000299301
1.23201e-05
-0.000345816
1.06885e-05
-0.000360567
8.49009e-06
-0.000371016
5.93906e-06
-0.000381872
3.05798e-06
-0.000393718
-1.74102e-07
-0.000406514
-3.6129e-06
-0.000420474
-7.41606e-06
-0.000435374
-1.1535e-05
-0.000451335
-1.59637e-05
-0.000468421
-2.07902e-05
-0.000486688
-2.61328e-05
-0.000505634
-0.000525765
-3.16683e-05
7.25156e-06
-0.000155242
1.04477e-05
-0.000302497
9.91927e-06
-0.000345287
7.9317e-06
-0.00035858
5.42637e-06
-0.00036851
2.55221e-06
-0.000378997
-6.56315e-07
-0.00039051
-4.09689e-06
-0.000403074
-7.89915e-06
-0.000416672
-1.20274e-05
-0.000431246
-1.64714e-05
-0.000446891
-2.12512e-05
-0.000463641
-2.64823e-05
-0.000481457
-3.20919e-05
-0.000500025
-0.000519873
-3.79843e-05
6.35612e-06
-0.000161598
8.6964e-06
-0.000304838
7.62285e-06
-0.000344214
5.28257e-06
-0.00035624
2.45232e-06
-0.00036568
-7.48465e-07
-0.000375797
-4.18473e-06
-0.000387073
-7.96707e-06
-0.000399292
-1.2089e-05
-0.00041255
-1.65358e-05
-0.000426799
-2.13051e-05
-0.000442122
-2.64342e-05
-0.000458512
-3.2002e-05
-0.000475889
-3.79229e-05
-0.000494104
-0.000513611
-4.41851e-05
5.5002e-06
-0.000167099
7.03439e-06
-0.000306372
5.43799e-06
-0.000342617
2.73884e-06
-0.00035354
-4.47228e-07
-0.000362494
-3.86558e-06
-0.000372378
-7.64009e-06
-0.000383299
-1.17454e-05
-0.000395186
-1.61815e-05
-0.000408114
-2.09444e-05
-0.000422036
-2.60378e-05
-0.000437028
-3.15003e-05
-0.00045305
-3.7387e-05
-0.000470002
-4.36477e-05
-0.000487843
-0.000507002
-5.02569e-05
4.68977e-06
-0.000171788
5.45966e-06
-0.000307142
3.3686e-06
-0.000340526
2.55761e-07
-0.000350428
-3.13662e-06
-0.000359102
-6.9054e-06
-0.00036861
-1.10011e-05
-0.000379203
-1.54235e-05
-0.000390764
-2.01729e-05
-0.000403364
-2.52497e-05
-0.00041696
-3.06623e-05
-0.000431616
-3.6449e-05
-0.000447263