/*--------------------------------*- C++ -*----------------------------------*\
  =========                 |
  \\      /  F ield         | OpenFOAM: The Open Source CFD Toolbox
   \\    /   O peration     | Website:  https://openfoam.org
    \\  /    A nd           | Version:  7
     \\/     M anipulation  |
\*---------------------------------------------------------------------------*/
FoamFile
{
    version     2.0;
    format      ascii;
    class       volVectorField;
    location    "5.9994";
    object      U;
}
// * * * * * * * * * * * * * * * * * * * * * * * * * * * * * * * * * * * * * //

dimensions      [0 1 -1 0 0 0 0];

internalField   nonuniform List<vector> 
18750
(
(-0.0635118 0.0381083 -2.11845e-20)
(-0.211972 0.0431716 7.04798e-21)
(-0.361391 0.0397654 7.51657e-20)
(-0.493297 0.0371932 1.7113e-20)
(-0.620992 0.0343664 -4.03453e-20)
(-0.735805 0.0315113 -9.70836e-20)
(-0.84247 0.0284855 9.74771e-20)
(-0.936884 0.0254264 6.28061e-20)
(-1.02274 0.0224028 -4.612e-20)
(-1.09789 0.0195556 -1.2154e-19)
(-1.16451 0.0168741 4.51168e-19)
(-1.22014 0.0142665 -3.60359e-19)
(-1.26615 0.0115691 2.08758e-19)
(-1.3012 0.00881109 -3.89109e-19)
(-1.32729 0.00618005 9.11591e-20)
(-0.0657258 0.113631 1.30358e-20)
(-0.213086 0.12893 2.01937e-20)
(-0.360274 0.1188 9.50223e-21)
(-0.48999 0.111121 1.13048e-19)
(-0.615363 0.10268 2.31999e-19)
(-0.72774 0.0941456 3.05903e-19)
(-0.831757 0.0851035 -2.56189e-19)
(-0.923302 0.0759631 4.09311e-19)
(-1.00607 0.0669299 3.75646e-19)
(-1.07806 0.0584257 -1.12566e-19)
(-1.14156 0.0504378 -4.76226e-19)
(-1.19423 0.0427316 2.8316e-20)
(-1.23733 0.0348354 1.05737e-19)
(-1.26933 0.0267555 2.57811e-19)
(-1.29214 0.0189397 -3.73217e-19)
(-0.0700628 0.18709 3.86228e-20)
(-0.215309 0.21294 5.66185e-20)
(-0.358166 0.196348 -1.8354e-19)
(-0.483654 0.183685 1.18797e-20)
(-0.604585 0.169742 -4.3178e-19)
(-0.712335 0.155603 1.39804e-19)
(-0.811359 0.140615 -3.88458e-19)
(-0.897526 0.125472 -4.83902e-20)
(-0.974546 0.11053 -2.89881e-19)
(-1.04065 0.0964972 8.37839e-19)
(-1.09842 0.0833968 1.0777e-18)
(-1.14571 0.0709315 9.20101e-19)
(-1.18363 0.0583383 5.26225e-19)
(-1.2103 0.0453927 3.4561e-19)
(-1.22738 0.0325711 -6.03187e-19)
(-0.0763375 0.257189 -1.95983e-19)
(-0.218584 0.294093 2.32672e-19)
(-0.355196 0.271493 -1.75025e-19)
(-0.474619 0.254064 -3.7058e-19)
(-0.58927 0.234809 6.38602e-19)
(-0.690547 0.215182 -5.90815e-19)
(-0.782654 0.194369 8.5803e-19)
(-0.861463 0.17338 -7.13285e-19)
(-0.930752 0.152741 4.87636e-19)
(-0.989163 0.133436 -1.17628e-18)
(-1.03974 0.115549 -1.64099e-18)
(-1.08071 0.0987857 8.78616e-20)
(-1.11308 0.0820961 -2.99012e-19)
(-1.13439 0.0647961 -6.26402e-19)
(-1.14568 0.0471323 2.23775e-18)
(-0.0842855 0.322752 -1.45142e-19)
(-0.222803 0.371342 3.30347e-19)
(-0.3515 0.343394 7.90949e-20)
(-0.46328 0.321552 2.94612e-19)
(-0.570153 0.297276 -3.88516e-19)
(-0.663517 0.272363 1.66842e-19)
(-0.747322 0.245934 2.01741e-18)
(-0.817589 0.219356 3.03392e-19)
(-0.878352 0.193358 5.27784e-19)
(-0.928925 0.16918 -1.76209e-19)
(-0.972982 0.146965 1.63351e-19)
(-1.00925 0.126412 -5.3526e-20)
(-1.03869 0.106161 -1.67298e-18)
(-1.05802 0.0849219 -9.19065e-19)
(-1.06713 0.0624564 -2.57228e-18)
(-0.0936488 0.382764 3.29366e-19)
(-0.22785 0.443664 1.00716e-19)
(-0.347163 0.411338 -1.59064e-19)
(-0.450003 0.385565 -1.15173e-19)
(-0.547968 0.356652 1.27715e-19)
(-0.632441 0.326728 -1.73746e-18)
(-0.707258 0.294984 -2.27213e-19)
(-0.768846 0.263219 1.11829e-19)
(-0.821735 0.23242 -7.88046e-19)
(-0.866064 0.204048 -1.05651e-18)
(-0.906094 0.178194 7.52844e-19)
(-0.940943 0.154434 -7.29365e-19)
(-0.971392 0.1311 2.1903e-18)
(-0.993171 0.106367 -1.67205e-18)
(-1.00442 0.0793036 3.55299e-18)
(-0.10411 0.436282 -2.88438e-19)
(-0.233491 0.510192 -4.97941e-19)
(-0.342154 0.474757 2.07976e-19)
(-0.435118 0.445678 1.54483e-18)
(-0.523453 0.412638 1.56422e-18)
(-0.598589 0.378161 -5.34951e-19)
(-0.664437 0.341648 2.67274e-19)
(-0.718054 0.305394 1.68036e-19)
(-0.764515 0.270675 1.66788e-18)
(-0.804613 0.239036 2.26969e-18)
(-0.842776 0.210344 -1.09072e-18)
(-0.878022 0.183968 -2.04259e-18)
(-0.910656 0.158123 -3.72573e-18)
(-0.935428 0.130735 6.01352e-19)
(-0.948485 0.0999462 -4.37399e-18)
(-0.115216 0.482171 -2.472e-19)
(-0.239365 0.570141 -2.93563e-19)
(-0.336379 0.533312 -2.18465e-18)
(-0.418917 0.50161 7.68828e-19)
(-0.497268 0.465091 -9.46209e-19)
(-0.563009 0.426664 6.38486e-19)
(-0.620274 0.386065 6.54594e-19)
(-0.666772 0.346138 -2.87947e-18)
(-0.707903 0.308438 -1.8845e-18)
(-0.744706 0.2745 -3.12374e-18)
(-0.781182 0.243857 -5.26753e-19)
(-0.815742 0.215661 2.17462e-18)
(-0.848141 0.188132 8.35747e-18)
(-0.872764 0.159097 -1.2675e-18)
(-0.883954 0.125609 2.21328e-18)
(-0.126484 0.519649 1.33333e-18)
(-0.245136 0.623127 5.40468e-19)
(-0.329735 0.586759 2.38342e-18)
(-0.401611 0.553197 -1.77594e-18)
(-0.469879 0.513951 8.34445e-19)
(-0.526387 0.472349 -1.39486e-18)
(-0.575501 0.428538 -3.18456e-18)
(-0.615425 0.38591 2.81463e-18)
(-0.651588 0.346297 3.27108e-19)
(-0.684872 0.311071 4.64106e-18)
(-0.718465 0.27926 -1.48993e-18)
(-0.749968 0.249657 -6.61135e-18)
(-0.778875 0.220546 -3.98215e-18)
(-0.80011 0.19007 3.94808e-19)
(-0.806414 0.154671 -1.85453e-18)
(-0.137145 0.547606 -1.09194e-18)
(-0.250159 0.668534 -6.2728e-19)
(-0.322016 0.635036 7.91953e-19)
(-0.383316 0.600369 1.20523e-19)
(-0.441582 0.559294 -3.27736e-19)
(-0.489081 0.515402 -3.71294e-19)
(-0.530344 0.469264 1.45744e-18)
(-0.563886 0.424804 -1.68578e-18)
(-0.594859 0.384033 1.64161e-18)
(-0.623789 0.348028 2.01153e-18)
(-0.652921 0.315257 -3.54347e-18)
(-0.679077 0.284256 6.63523e-18)
(-0.701666 0.253623 7.55681e-19)
(-0.716483 0.22216 1.00468e-18)
(-0.715017 0.1858 2.34071e-18)
(-0.146541 0.565774 2.00731e-18)
(-0.25401 0.706534 -6.57483e-19)
(-0.313076 0.678045 -2.99662e-18)
(-0.36408 0.643103 1.19177e-18)
(-0.412478 0.601155 -6.9622e-19)
(-0.451218 0.555891 8.26387e-19)
(-0.48483 0.50829 6.07148e-18)
(-0.511892 0.462722 2.89389e-18)
(-0.537124 0.421372 1.89604e-18)
(-0.560588 0.385042 -6.30137e-18)
(-0.583623 0.351778 6.79996e-18)
(-0.60232 0.319917 2.45563e-18)
(-0.615804 0.288146 -3.94033e-18)
(-0.620597 0.255497 4.74295e-18)
(-0.608043 0.217775 -1.00687e-19)
(-0.153362 0.57271 3.68228e-19)
(-0.255817 0.736673 1.11063e-19)
(-0.302645 0.715745 -1.80438e-19)
(-0.34383 0.681433 -2.1274e-18)
(-0.382603 0.639676 4.2448e-18)
(-0.412834 0.593938 -2.18338e-18)
(-0.438863 0.5456 -6.40271e-18)
(-0.4592 0.49949 1.91409e-18)
(-0.477969 0.457958 -3.07505e-18)
(-0.494772 0.421591 4.71659e-18)
(-0.510163 0.388033 -8.41514e-18)
(-0.519625 0.355297 6.55459e-19)
(-0.521784 0.32192 3.52262e-18)
(-0.513565 0.287265 -7.344e-18)
(-0.488097 0.247993 -1.69647e-18)
(-0.156573 0.568904 -1.29891e-18)
(-0.255209 0.759604 3.84952e-19)
(-0.29071 0.747897 1.16785e-18)
(-0.322483 0.715468 -5.61936e-20)
(-0.351894 0.674883 -5.72139e-18)
(-0.373892 0.629493 5.60356e-19)
(-0.392396 0.581075 2.08708e-18)
(-0.405697 0.534863 -5.58609e-18)
(-0.417288 0.493391 4.12076e-18)
(-0.426345 0.457109 -3.76743e-18)
(-0.432817 0.423351 1.02512e-17)
(-0.431765 0.389837 -4.25419e-18)
(-0.421384 0.355081 5.13967e-18)
(-0.398805 0.31841 1.03578e-17)
(-0.3602 0.275821 4.44017e-18)
(-0.155248 0.554812 -4.94259e-19)
(-0.251395 0.774641 4.02257e-21)
(-0.277062 0.774429 -5.45193e-20)
(-0.299837 0.745403 -1.21817e-19)
(-0.320344 0.706951 -2.69987e-18)
(-0.334404 0.662634 -1.21185e-18)
(-0.345399 0.614634 2.00892e-18)
(-0.351407 0.56861 1.2117e-18)
(-0.355226 0.52725 -6.98455e-18)
(-0.355671 0.491038 -3.84937e-19)
(-0.352295 0.457075 -2.01329e-18)
(-0.33997 0.42271 4.07607e-18)
(-0.316854 0.386238 -5.67501e-18)
(-0.280211 0.346591 -7.77552e-19)
(-0.225606 0.299779 -5.02076e-18)
(-0.148818 0.530366 2.16095e-18)
(-0.243708 0.781062 -1.88905e-18)
(-0.261501 0.795587 -2.70152e-18)
(-0.275817 0.771488 4.90708e-18)
(-0.287942 0.735864 4.42172e-18)
(-0.294381 0.693211 5.72161e-18)
(-0.297952 0.646116 2.51341e-19)
(-0.296517 0.600475 3.90008e-18)
(-0.292174 0.559177 5.23049e-18)
(-0.283429 0.522873 7.77957e-18)
(-0.269708 0.488695 -3.58955e-18)
(-0.245704 0.45359 7.51935e-18)
(-0.209652 0.415726 -5.32124e-20)
(-0.160629 0.375472 -3.81402e-18)
(-0.0877436 0.323312 -9.37961e-18)
(-0.136823 0.495148 -1.31714e-18)
(-0.231698 0.778519 2.14262e-18)
(-0.243746 0.811526 1.43144e-18)
(-0.250477 0.793982 -4.56395e-18)
(-0.254859 0.761858 -2.1966e-18)
(-0.253933 0.721328 -4.10805e-19)
(-0.250181 0.675483 -2.96744e-18)
(-0.241277 0.630308 -5.12992e-18)
(-0.228668 0.588897 -8.73577e-18)
(-0.210431 0.552246 -3.78804e-18)
(-0.186245 0.517786 5.28767e-18)
(-0.150686 0.481987 -1.10755e-17)
(-0.101243 0.442364 3.68602e-19)
(-0.0427112 0.399527 7.00188e-18)
(0.0494701 0.348511 1.00323e-17)
(-0.11892 0.448928 -3.086e-18)
(-0.215181 0.766917 2.46067e-18)
(-0.223694 0.822159 -4.34997e-18)
(-0.223863 0.812826 -2.11244e-18)
(-0.221218 0.784863 -1.49629e-19)
(-0.213295 0.746987 3.06197e-18)
(-0.202376 0.70275 5.05625e-18)
(-0.186093 0.65802 1.68184e-18)
(-0.165361 0.61629 2.44359e-18)
(-0.13767 0.578822 -6.82693e-18)
(-0.103165 0.543685 1.46684e-19)
(-0.0569881 0.507729 -5.24525e-18)
(0.00691097 0.466611 -3.9047e-18)
(0.0727764 0.425567 -1.11738e-17)
(0.196758 0.383151 -1.81036e-19)
(-0.0951327 0.391765 2.71492e-18)
(-0.194334 0.746067 4.29979e-19)
(-0.201552 0.827157 7.10898e-19)
(-0.196176 0.827883 5.26732e-18)
(-0.18715 0.804832 2.23143e-18)
(-0.172677 0.770144 -2.85585e-18)
(-0.154853 0.72787 2.24127e-18)
(-0.131378 0.683669 -1.31316e-18)
(-0.102945 0.641376 -2.61324e-18)
(-0.0661899 0.60263 3.05219e-18)
(-0.0213268 0.565872 -1.01075e-17)
(0.0326496 0.529597 -3.57783e-19)
(0.113747 0.483397 -5.66559e-18)
(0.16838 0.43032 8.84053e-18)
(0.346178 0.427956 7.63118e-19)
(-0.0664342 0.324209 -1.00844e-18)
(-0.169732 0.71532 -2.87828e-18)
(-0.177831 0.825653 8.08299e-19)
(-0.167791 0.838759 -5.96123e-18)
(-0.15288 0.821578 -4.1795e-18)
(-0.132282 0.790706 -2.36075e-18)
(-0.107932 0.750809 -4.22622e-18)
(-0.0775263 0.707236 4.08574e-18)
(-0.0419576 0.664287 5.8151e-18)
(0.00259184 0.623893 1.13212e-17)
(0.0588667 0.584126 -4.40938e-19)
(0.115469 0.549309 1.27918e-17)
(0.224899 0.508319 5.0734e-18)
(0.246428 0.415035 3.85159e-18)
(0.468214 0.427999 -8.6528e-18)
(-0.0357449 0.24622 1.72207e-18)
(-0.142587 0.673362 4.36449e-18)
(-0.153216 0.816156 3.04154e-18)
(-0.139225 0.84483 4.1307e-18)
(-0.118763 0.834983 4.95378e-20)
(-0.0924125 0.808491 1.703e-18)
(-0.0619878 0.771431 4.19273e-20)
(-0.0248984 0.728829 -3.16032e-18)
(0.0175945 0.685083 4.87862e-18)
(0.0673183 0.643535 -1.71249e-17)
(0.137711 0.598224 5.05507e-18)
(0.185086 0.556827 -3.38148e-18)
(0.3358 0.542839 6.66259e-19)
(0.330084 0.429625 -4.94636e-18)
(0.568012 0.416172 -5.41868e-18)
(-0.012362 0.159126 -2.81702e-18)
(-0.114677 0.617635 3.775e-18)
(-0.128451 0.796228 -1.00865e-18)
(-0.111046 0.844865 -1.68919e-18)
(-0.0853154 0.844489 3.64214e-18)
(-0.0534068 0.823257 4.1342e-19)
(-0.0173827 0.789544 -1.13014e-18)
(0.0257673 0.748392 -1.3585e-19)
(0.0762069 0.703675 -3.15351e-18)
(0.126599 0.662121 8.1818e-18)
(0.218446 0.616074 4.90924e-18)
(0.242266 0.549654 2.5626e-18)
(0.430636 0.553624 -2.16716e-19)
(0.41558 0.453612 6.12381e-18)
(0.656082 0.422916 -4.99571e-19)
(-0.00561823 0.0728704 8.26388e-19)
(-0.0890496 0.545488 -9.24725e-19)
(-0.104003 0.762903 6.82276e-19)
(-0.0837715 0.837196 3.11985e-18)
(-0.0531066 0.849347 -2.01974e-18)
(-0.0158246 0.83442 -1.29824e-18)
(0.0256367 0.804752 -2.56901e-18)
(0.0733787 0.766131 2.02155e-18)
(0.134715 0.71986 -2.13361e-18)
(0.178538 0.676308 -2.36494e-18)
(0.299984 0.642179 -4.28484e-18)
(0.301149 0.552853 -2.5146e-18)
(0.507416 0.545026 8.82764e-18)
(0.49136 0.455627 -1.21108e-17)
(0.732419 0.425609 -2.83242e-19)
(-0.00728754 0.0021146 3.55143e-18)
(-0.0663093 0.453175 -1.3874e-18)
(-0.0802664 0.713204 -3.58594e-18)
(-0.0578395 0.819071 -9.84313e-19)
(-0.0227864 0.847802 5.18673e-18)
(0.019704 0.841387 -6.12565e-20)
(0.0671179 0.816268 2.56388e-18)
(0.116214 0.781567 -1.42502e-18)
(0.193776 0.735672 -5.57411e-18)
(0.223478 0.682039 1.31014e-17)
(0.375021 0.664284 -9.5781e-18)
(0.367025 0.573323 2.80913e-18)
(0.576685 0.552512 -1.24833e-17)
(0.56258 0.455046 4.42579e-18)
(0.802997 0.433546 3.5278e-18)
(-0.00256823 -0.0437771 -1.26827e-18)
(-0.0453556 0.336326 -4.01995e-18)
(-0.0567819 0.644609 1.8135e-18)
(-0.0336613 0.787473 3.18954e-19)
(0.00513413 0.837534 -4.60082e-18)
(0.0517954 0.842708 2.87858e-18)
(0.107384 0.823349 1.13319e-19)
(0.153133 0.792865 -6.8636e-19)
(0.252334 0.753656 -5.46464e-18)
(0.265377 0.685032 -6.97694e-19)
(0.437722 0.669977 7.47582e-18)
(0.43375 0.5879 5.63101e-19)
(0.639136 0.569837 1.75188e-18)
(0.633307 0.463273 4.94139e-18)
(0.870624 0.445938 -1.24518e-17)
(0.00931443 -0.0639874 -1.91702e-18)
(-0.0317038 0.20283 4.87894e-20)
(-0.0349529 0.553817 -2.30389e-18)
(-0.0119272 0.737503 1.85962e-18)
(0.0303209 0.815051 2.55845e-18)
(0.0790761 0.836934 -1.93034e-18)
(0.145894 0.824795 -3.52521e-19)
(0.183003 0.796364 -1.58095e-18)
(0.30714 0.770447 4.23294e-18)
(0.309754 0.696348 7.50779e-19)
(0.48707 0.669011 -1.05617e-17)
(0.498386 0.589433 2.74083e-18)
(0.691658 0.575349 1.75635e-18)
(0.700482 0.468976 -7.97349e-18)
(0.93029 0.452966 1.90798e-18)
(0.0194707 -0.0658179 4.32787e-19)
(-0.025707 0.0832361 1.14115e-18)
(-0.0174485 0.440425 2.14834e-18)
(0.00587462 0.665289 -1.80421e-18)
(0.0522097 0.775374 -8.64766e-20)
(0.0993482 0.820281 4.52482e-18)
(0.182259 0.821396 -2.27897e-19)
(0.206519 0.790796 4.64539e-20)
(0.350702 0.774063 6.42851e-18)
(0.357717 0.712311 -3.60133e-18)
(0.525844 0.673652 2.76365e-18)
(0.560989 0.595554 -7.44873e-18)
(0.73369 0.572846 6.37624e-19)
(0.765657 0.476709 -1.86442e-18)
(0.978044 0.457697 3.41265e-18)
(0.0233439 -0.0574966 -3.13553e-19)
(-0.0126305 0.00553332 1.47111e-18)
(-0.00427406 0.302782 -1.89882e-18)
(0.0176141 0.566807 3.98436e-18)
(0.0706146 0.71417 -3.29584e-18)
(0.110868 0.786494 -2.97428e-18)
(0.211602 0.808272 -1.81871e-18)
(0.22786 0.782935 -3.80062e-18)
(0.379051 0.759687 -7.49708e-18)
(0.399903 0.71686 1.25568e-18)
(0.558604 0.673411 5.92606e-18)
(0.61704 0.608189 4.71304e-18)
(0.764622 0.565325 8.22206e-19)
(0.830639 0.490423 -3.88217e-18)
(1.00561 0.455452 -1.87084e-18)
(0.0227198 -0.0470276 7.89063e-19)
(0.009182 -0.0327525 1.38651e-18)
(0.00512538 0.158907 -5.80624e-18)
(0.0216801 0.441576 -3.94935e-18)
(0.0826015 0.624511 -1.12071e-19)
(0.114052 0.731244 3.06078e-18)
(0.229166 0.77515 -1.04636e-18)
(0.243072 0.768731 8.40998e-18)
(0.397736 0.739602 9.2658e-19)
(0.426635 0.70343 -4.46734e-18)
(0.582711 0.657762 -4.4614e-18)
(0.657476 0.608483 -7.08439e-18)
(0.782628 0.544061 7.79306e-18)
(0.88374 0.496663 5.13062e-18)
(1.0038 0.43502 3.53852e-20)
(0.0218036 -0.0378475 -2.19286e-18)
(0.0291581 -0.0450629 -4.08418e-18)
(0.0165846 0.056376 2.90597e-18)
(0.0180063 0.300597 3.51556e-18)
(0.086823 0.504139 2.12313e-18)
(0.105171 0.646431 -2.09029e-18)
(0.232102 0.71642 5.21123e-18)
(0.247539 0.733737 -7.15365e-18)
(0.398144 0.709943 8.00945e-18)
(0.447591 0.681769 5.09524e-18)
(0.581617 0.623231 -1.47639e-18)
(0.683524 0.595228 -2.15793e-18)
(0.781098 0.509478 -3.05174e-18)
(0.914964 0.491145 -6.04411e-18)
(0.969391 0.393861 7.20065e-18)
(0.0231775 -0.0313194 6.25006e-18)
(0.0455332 -0.0455613 4.80334e-18)
(0.034553 0.00801885 1.09432e-18)
(0.0187525 0.172438 -5.82948e-20)
(0.0796164 0.362208 -7.21064e-19)
(0.0903138 0.532885 -8.7782e-19)
(0.206096 0.617341 -4.03149e-18)
(0.249169 0.675879 6.66046e-18)
(0.36061 0.643316 -5.07535e-18)
(0.47109 0.654323 -6.70143e-20)
(0.544835 0.565113 4.90259e-18)
(0.708108 0.572009 3.49439e-18)
(0.744943 0.46041 3.5055e-18)
(0.922956 0.469203 -4.02685e-20)
(0.907553 0.331662 -4.2532e-18)
(0.027487 -0.0278417 -3.76512e-18)
(0.0599695 -0.0439773 -3.91019e-18)
(0.0532507 -0.01064 1.24545e-18)
(0.0329417 0.0901835 -1.96356e-18)
(0.062434 0.225442 -8.62313e-19)
(0.0757902 0.409818 3.0572e-18)
(0.15459 0.477845 -8.29413e-19)
(0.234568 0.586677 -7.16317e-19)
(0.305691 0.541567 -1.86883e-18)
(0.457409 0.586652 -4.35506e-18)
(0.495756 0.490362 1.98834e-18)
(0.696044 0.509066 -2.50998e-18)
(0.669801 0.393363 -3.94783e-18)
(0.917115 0.409673 -1.84867e-18)
(0.699534 0.23805 7.50424e-18)
(0.033872 -0.0272054 4.28599e-18)
(0.0722153 -0.0447388 -3.38653e-18)
(0.0666026 -0.0204839 -5.56217e-18)
(0.0496433 0.0498208 5.36498e-19)
(0.045115 0.12427 1.35945e-18)
(0.054653 0.290105 -8.21488e-19)
(0.10323 0.333863 2.29629e-18)
(0.179481 0.454644 4.74469e-19)
(0.262779 0.425813 -2.1245e-19)
(0.375091 0.460149 1.8643e-19)
(0.470003 0.402437 -2.03298e-18)
(0.592952 0.391939 3.0974e-19)
(0.641363 0.320616 1.27003e-18)
(0.781738 0.30867 -9.9851e-19)
(0.945611 0.277389 6.94873e-18)
(0.040509 -0.0287145 9.11054e-19)
(0.0795059 -0.0489024 -1.96553e-18)
(0.0711492 -0.0324775 5.45774e-18)
(0.053496 0.0217217 4.20521e-18)
(0.0271098 0.0581285 -4.17014e-18)
(0.0249391 0.181422 -2.1547e-19)
(0.0468298 0.205412 -1.70777e-18)
(0.112329 0.304033 -5.78009e-19)
(0.19254 0.285192 3.88622e-18)
(0.288418 0.311781 1.9488e-18)
(0.405711 0.276107 2.63035e-18)
(0.494588 0.265911 -2.28458e-18)
(0.610224 0.239705 1.50853e-18)
(0.922182 0.302855 -9.50428e-19)
(1.22505 0.323379 -8.89034e-18)
(0.0449849 -0.0311737 7.29238e-19)
(0.0787048 -0.0555957 1.15656e-18)
(0.063982 -0.0489875 -3.02068e-18)
(0.0376362 -0.00991057 -3.43298e-18)
(0.000118862 0.00580442 -3.13761e-18)
(-0.0191526 0.085406 2.78635e-19)
(-0.0168249 0.0903602 1.98105e-18)
(0.0351198 0.156157 -3.43528e-18)
(0.104856 0.127496 -1.66856e-18)
(0.213439 0.161442 8.8777e-19)
(0.332834 0.144329 -2.468e-18)
(0.490859 0.181236 2.14411e-19)
(0.800517 0.251335 1.85512e-18)
(1.12838 0.326111 -2.62054e-18)
(1.26527 0.336496 2.13221e-18)
(0.0449644 -0.0330424 -1.63478e-18)
(0.0682274 -0.0630517 3.73469e-18)
(0.0437108 -0.0677495 2.48826e-18)
(0.00417706 -0.046589 1.66575e-18)
(-0.0425141 -0.0452446 2.69829e-18)
(-0.0798171 -0.00201098 -2.74686e-19)
(-0.0908932 -0.0175686 -1.89882e-18)
(-0.051387 0.0126577 4.18441e-19)
(0.0336321 -0.0145294 2.13995e-18)
(0.170057 0.0366518 -3.55096e-18)
(0.40797 0.088895 -1.74408e-18)
(0.711123 0.201536 1.21132e-19)
(1.02166 0.285295 -5.55322e-19)
(1.19777 0.334791 3.20083e-18)
(1.34797 0.334123 -2.86138e-18)
(0.0389275 -0.0328961 1.79397e-18)
(0.0485106 -0.0687639 1.21388e-18)
(0.0118491 -0.0855014 -1.42497e-19)
(-0.0413278 -0.083436 -1.08523e-18)
(-0.101195 -0.093996 2.26825e-19)
(-0.154343 -0.0825642 -3.17469e-18)
(-0.170516 -0.114858 6.59917e-19)
(-0.112773 -0.104172 -1.26624e-18)
(0.0498289 -0.0924363 -1.34946e-18)
(0.313466 0.0088782 2.48155e-18)
(0.653637 0.126011 3.75415e-18)
(0.932334 0.238451 1.84768e-18)
(1.11795 0.294459 1.90655e-18)
(1.2703 0.323883 -2.45154e-18)
(1.34403 0.316714 -2.48902e-18)
(0.0266986 -0.0296055 1.50545e-18)
(0.0213684 -0.070018 -2.83049e-18)
(-0.0274741 -0.0979469 -1.38118e-18)
(-0.0934043 -0.112093 -3.12349e-18)
(-0.166623 -0.132726 1.42352e-18)
(-0.225533 -0.14379 3.31351e-18)
(-0.214498 -0.178171 -3.79146e-18)
(-0.0658322 -0.1524 1.23488e-18)
(0.23892 -0.068996 2.07931e-18)
(0.576754 0.058226 6.68158e-19)
(0.857892 0.164377 -2.65202e-18)
(1.04172 0.246188 -1.06777e-18)
(1.19564 0.283855 3.81108e-21)
(1.27907 0.307794 1.39331e-18)
(1.34862 0.306069 5.31125e-18)
(0.00958174 -0.0226567 -2.41565e-18)
(-0.00971261 -0.0644457 -2.44219e-18)
(-0.0679844 -0.0996579 1.38748e-18)
(-0.141824 -0.123143 5.56558e-18)
(-0.217532 -0.148404 -3.66039e-18)
(-0.258024 -0.167616 9.71644e-19)
(-0.173454 -0.188282 1.51901e-18)
(0.121571 -0.121604 -1.49966e-19)
(0.492162 -0.0059037 2.6487e-19)
(0.775848 0.0967785 1.42987e-18)
(0.979098 0.177013 -1.34811e-18)
(1.13275 0.242602 -2.57085e-18)
(1.22989 0.275284 -2.22002e-18)
(1.30616 0.298196 1.83182e-18)
(1.36335 0.292499 5.16419e-19)
(-0.00988772 -0.0124906 -6.09935e-19)
(-0.0401477 -0.0510511 4.90915e-18)
(-0.101961 -0.0873158 1.06531e-18)
(-0.173997 -0.111847 1.53156e-18)
(-0.235681 -0.134169 1.41116e-18)
(-0.234472 -0.150897 1.3115e-18)
(-0.0441246 -0.151948 -4.42259e-19)
(0.367035 -0.0505909 8.90621e-19)
(0.686989 0.0369908 4.42408e-19)
(0.9171 0.116678 1.91377e-18)
(1.08542 0.18702 2.83889e-20)
(1.18953 0.243343 1.77351e-18)
(1.26983 0.268736 -1.40546e-18)
(1.31415 0.285133 -1.29359e-18)
(1.33876 0.279883 8.36803e-19)
(-0.0287789 -0.000561915 2.22556e-18)
(-0.066114 -0.0314883 -2.00465e-18)
(-0.124801 -0.063151 2.58109e-19)
(-0.185469 -0.0819506 -3.09797e-18)
(-0.222091 -0.0962408 -2.7152e-18)
(-0.167255 -0.111639 4.90898e-18)
(0.156268 -0.0732747 1.43106e-18)
(0.565282 0.00438769 -1.9648e-18)
(0.843662 0.0738663 5.7556e-19)
(1.03896 0.141504 -5.16763e-18)
(1.15895 0.200165 1.73027e-18)
(1.2386 0.242494 -2.0322e-18)
(1.28333 0.260606 2.26406e-18)
(1.31307 0.276423 -2.88904e-19)
(1.35472 0.270716 -1.24176e-18)
(-0.0447148 0.0111824 -3.50561e-18)
(-0.0857176 -0.00923301 -3.60736e-18)
(-0.136209 -0.0327306 -3.71507e-18)
(-0.179594 -0.0422443 -2.93155e-18)
(-0.189013 -0.0494839 1.99559e-18)
(-0.0691949 -0.0727456 -8.61672e-18)
(0.367995 0.00551329 7.91293e-19)
(0.729024 0.0520118 7.5263e-19)
(0.978191 0.111383 4.03912e-19)
(1.1285 0.163749 2.43323e-18)
(1.2174 0.208982 -1.98229e-18)
(1.2637 0.241286 4.43616e-18)
(1.2981 0.25646 -9.01856e-19)
(1.32401 0.268461 -1.63893e-18)
(1.33414 0.261071 8.99036e-19)
(-0.0562675 0.0210869 6.2546e-19)
(-0.0986379 0.0122246 2.94257e-18)
(-0.138199 -0.00192838 4.29515e-18)
(-0.160926 -0.0007153 6.84589e-19)
(-0.145976 -0.00643546 3.7394e-18)
(0.0685465 -0.0181138 2.15495e-18)
(0.543134 0.0541377 6.79459e-19)
(0.877571 0.0989994 -3.223e-18)
(1.08233 0.145124 -1.77054e-19)
(1.1976 0.183688 1.32492e-18)
(1.25391 0.219191 4.86169e-18)
(1.2879 0.242586 -5.98212e-19)
(1.30704 0.252847 1.52163e-18)
(1.315 0.262689 1.38093e-18)
(1.33943 0.255352 2.10307e-18)
(-0.0629269 0.0281627 1.17628e-18)
(-0.105383 0.0303928 -3.94773e-18)
(-0.133174 0.0250272 -8.38016e-19)
(-0.136061 0.0369725 4.80283e-20)
(-0.0964793 0.0212835 -7.01381e-18)
(0.236189 0.0522356 1.87309e-18)
(0.69354 0.105394 -9.42022e-19)
(0.993945 0.141215 1.07502e-18)
(1.16314 0.175269 3.42151e-18)
(1.24552 0.202593 -1.16616e-18)
(1.28401 0.228212 -3.71611e-18)
(1.29951 0.243249 -4.7154e-19)
(1.30899 0.25154 -5.15612e-19)
(1.32284 0.258425 -1.10967e-18)
(1.32986 0.249499 -2.28595e-18)
(-0.0649194 0.0320897 2.4619e-19)
(-0.106782 0.0437992 1.06996e-18)
(-0.122232 0.04643 -2.80922e-18)
(-0.111459 0.0649931 1.21784e-18)
(-0.0271827 0.0303115 2.91754e-18)
(0.412195 0.100171 -1.29085e-18)
(0.832792 0.147208 -2.72367e-19)
(1.0922 0.177567 -2.83436e-18)
(1.22333 0.201781 5.16763e-19)
(1.28107 0.218824 -1.93551e-18)
(1.2996 0.23659 1.76757e-18)
(1.30866 0.245761 -1.38808e-18)
(1.31502 0.251286 2.32971e-18)
(1.31484 0.255312 -8.28025e-19)
(1.32538 0.246494 -1.62896e-18)
(-0.0630029 0.0329674 1.26578e-18)
(-0.103776 0.0516513 7.90142e-19)
(-0.106431 0.0634235 7.2078e-19)
(-0.0906099 0.0802217 1.89859e-19)
(0.0650311 0.0528026 1.24905e-18)
(0.563913 0.139948 -3.19625e-18)
(0.946398 0.184665 1.79471e-18)
(1.16407 0.208696 3.98429e-18)
(1.26547 0.223884 -4.18093e-19)
(1.30204 0.233279 2.81713e-18)
(1.31248 0.244614 1.62049e-18)
(1.31402 0.248216 2.8484e-19)
(1.31207 0.252349 4.63577e-19)
(1.31752 0.253592 8.60556e-19)
(1.32292 0.244056 1.91447e-18)
(-0.0583679 0.0311301 1.92131e-18)
(-0.097413 0.0537114 2.74081e-18)
(-0.0892973 0.0748497 -2.47683e-18)
(-0.0696104 0.0762397 2.31441e-18)
(0.193485 0.0919756 -5.39446e-18)
(0.70283 0.176344 1.43069e-18)
(1.04315 0.216896 -4.82099e-19)
(1.22115 0.23455 -2.46724e-18)
(1.29469 0.242699 -4.2278e-18)
(1.31749 0.2458 -1.56708e-18)
(1.31777 0.251743 -3.78052e-18)
(1.31529 0.2517 2.26323e-18)
(1.31487 0.254168 -2.88415e-18)
(1.31216 0.252483 1.84297e-18)
(1.31359 0.243279 1.18379e-18)
(-0.0525818 0.0271596 -4.54377e-18)
(-0.0889384 0.0507736 1.44732e-19)
(-0.0763105 0.0776123 3.42936e-19)
(-0.0388006 0.0525094 6.40267e-19)
(0.355943 0.125307 4.13252e-19)
(0.829601 0.204551 2.63645e-18)
(1.11955 0.241881 1.41237e-18)
(1.25993 0.254914 -3.72532e-19)
(1.31295 0.257636 1.87997e-18)
(1.32386 0.256448 1.16794e-18)
(1.3211 0.258561 5.19933e-19)
(1.31702 0.255253 -1.26091e-18)
(1.31052 0.25665 3.97365e-18)
(1.31049 0.252488 6.51831e-19)
(1.31306 0.243501 -1.30832e-18)
(-0.0471272 0.0218447 4.15969e-18)
(-0.0794644 0.045623 -2.96542e-18)
(-0.07119 0.0693416 9.53587e-19)
(0.0187312 0.0312912 -9.56287e-20)
(0.516098 0.155388 4.96928e-18)
(0.936742 0.230248 -4.02571e-19)
(1.17823 0.263399 -1.70845e-18)
(1.28809 0.272006 4.01537e-18)
(1.32377 0.270565 3.66229e-19)
(1.32832 0.266039 1.50291e-18)
(1.32148 0.264761 -2.97867e-18)
(1.31455 0.259398 7.68553e-20)
(1.31035 0.259604 -1.2192e-18)
(1.30682 0.252942 -2.21125e-19)
(1.30295 0.244666 -7.40943e-19)
(-0.0427438 0.0158013 -1.11304e-18)
(-0.0704851 0.0406334 3.06201e-18)
(-0.0704397 0.0477608 1.86067e-18)
(0.117626 0.0442134 1.43679e-18)
(0.658825 0.185706 -8.21791e-19)
(1.02754 0.25205 -3.18905e-19)
(1.22372 0.279537 2.12321e-18)
(1.30586 0.284647 -1.71464e-18)
(1.32927 0.280465 5.02269e-19)
(1.3279 0.273979 -2.55851e-18)
(1.32003 0.270615 1.7621e-19)
(1.31382 0.263541 3.5904e-19)
(1.30579 0.26279 -5.03458e-19)
(1.30248 0.254219 -2.89692e-18)
(1.30157 0.246715 1.15895e-18)
(-0.0397916 0.00988534 -1.93748e-18)
(-0.066295 0.0349246 -2.41038e-18)
(-0.0606495 0.015477 1.26543e-18)
(0.265768 0.085267 -1.5597e-19)
(0.784758 0.210708 -1.99479e-18)
(1.10027 0.270168 -6.63141e-20)
(1.25615 0.293422 -1.51404e-18)
(1.31697 0.295714 -2.91537e-18)
(1.33056 0.28958 -1.15084e-18)
(1.32682 0.281619 1.05784e-18)
(1.31795 0.276202 9.29987e-19)
(1.30968 0.26806 -9.16225e-20)
(1.30332 0.266298 -1.37451e-18)
(1.29927 0.255833 2.4068e-18)
(1.29277 0.249172 7.0813e-19)
(-0.038539 0.00641782 1.89509e-18)
(-0.0699247 0.0250213 3.41976e-21)
(-0.0242383 -0.0159429 -3.0908e-18)
(0.439208 0.126021 -6.01904e-20)
(0.894645 0.232217 4.71228e-19)
(1.15787 0.28546 8.75933e-19)
(1.28026 0.304231 -1.54976e-18)
(1.32307 0.304032 7.96929e-19)
(1.33001 0.296632 -3.65993e-20)
(1.3236 0.287908 8.46979e-19)
(1.31428 0.281425 -7.36616e-19)
(1.30719 0.272485 -1.99905e-18)
(1.29873 0.269762 -9.33012e-20)
(1.29368 0.257976 -1.16041e-18)
(1.28984 0.252171 -9.53365e-19)
(-0.0389141 0.00787082 7.63875e-19)
(-0.0776252 0.0112123 -1.57092e-18)
(0.0459427 -0.0223079 1.56187e-18)
(0.591311 0.159938 -4.92586e-19)
(0.987468 0.252672 -2.7247e-19)
(1.20267 0.298647 -7.72502e-19)
(1.29594 0.313574 1.23059e-18)
(1.3253 0.311706 7.77281e-19)
(1.32699 0.303589 -4.57163e-19)
(1.31987 0.29436 -1.26275e-18)
(1.31079 0.286652 -4.45372e-19)
(1.30225 0.277168 2.04735e-18)
(1.29472 0.273502 1.21402e-18)
(1.29015 0.26038 1.15379e-18)
(1.28249 0.255362 -3.38281e-19)
(-0.0405467 0.0140598 -4.81552e-19)
(-0.0810469 -0.00567622 1.69659e-19)
(0.151064 0.0124584 -6.41403e-19)
(0.715774 0.191043 -2.20841e-20)
(1.06348 0.272557 -5.00343e-19)
(1.2372 0.310735 -7.43331e-19)
(1.30689 0.321442 2.65482e-19)
(1.32541 0.317957 -1.52963e-18)
(1.32381 0.309337 1.33146e-18)
(1.31557 0.299808 1.66057e-18)
(1.3061 0.291546 1.99526e-19)
(1.29853 0.281714 -1.76879e-18)
(1.28998 0.277043 -1.66238e-18)
(1.28406 0.263133 -1.21187e-18)
(1.27808 0.258936 4.633e-19)
(-0.0435826 0.0205081 -1.54571e-18)
(-0.0702543 -0.022691 4.19333e-19)
(0.287345 0.0667742 -3.01953e-19)
(0.821604 0.217562 1.40781e-20)
(1.12461 0.290225 -1.28427e-19)
(1.26328 0.321483 -2.78274e-19)
(1.31309 0.32861 5.2883e-19)
(1.32347 0.324044 -2.89666e-19)
(1.31906 0.315237 -3.80896e-19)
(1.31062 0.305602 -7.22289e-19)
(1.30168 0.296593 -6.30677e-19)
(1.29312 0.286427 -2.82129e-19)
(1.28498 0.280881 1.03285e-18)
(1.27988 0.266166 -3.84693e-20)
(1.2716 0.262548 7.51701e-19)
(-0.0482333 0.0221567 6.42312e-19)
(-0.0415156 -0.0325212 1.09291e-18)
(0.435381 0.114469 1.76002e-19)
(0.914217 0.240767 6.63407e-19)
(1.17252 0.30574 1.4399e-18)
(1.28186 0.331336 5.29288e-19)
(1.31664 0.335312 1.9321e-18)
(1.32078 0.329645 1.00953e-18)
(1.31477 0.320592 6.25387e-19)
(1.30583 0.310746 1.41129e-18)
(1.29645 0.301379 4.28949e-19)
(1.28853 0.291037 7.6316e-19)
(1.27994 0.284487 3.70994e-19)
(1.27353 0.269401 1.65588e-19)
(1.26612 0.266432 5.20536e-19)
(-0.0542312 0.0155289 8.9905e-19)
(0.00468272 -0.0302704 -1.54254e-18)
(0.568988 0.15383 -3.0379e-19)
(0.994317 0.263313 6.86515e-19)
(1.21037 0.319824 -1.44733e-18)
(1.29494 0.34019 -5.87974e-19)
(1.31753 0.341708 -1.18758e-18)
(1.31706 0.335336 -3.63998e-20)
(1.30942 0.326158 -3.11562e-19)
(1.30028 0.316256 -1.1832e-18)
(1.29136 0.306377 8.82074e-19)
(1.28272 0.29573 6.51113e-20)
(1.27426 0.2884 -3.66185e-20)
(1.26864 0.272954 2.88199e-19)
(1.26 0.270206 -6.39417e-19)
(-0.0611003 -0.000511704 -5.86342e-20)
(0.069947 -0.0174131 6.56232e-19)
(0.680967 0.187305 1.83476e-19)
(1.06274 0.285778 -9.67469e-19)
(1.24036 0.333183 6.37503e-19)
(1.30338 0.348565 2.01272e-19)
(1.3168 0.348035 -5.25754e-19)
(1.31297 0.341001 -2.46491e-19)
(1.30454 0.331615 -7.38811e-19)
(1.29513 0.321428 1.2776e-19)
(1.28572 0.311201 -8.51483e-19)
(1.27745 0.3004 -5.87065e-19)
(1.26883 0.292136 1.51667e-19)
(1.26208 0.276548 1.51041e-19)
(1.25386 0.274134 -2.59147e-19)
(-0.0672909 -0.0233426 -3.36898e-19)
(0.159343 0.00933464 -2.03858e-19)
(0.777815 0.216818 4.82504e-19)
(1.11908 0.307067 8.35661e-19)
(1.26367 0.346193 1.59092e-19)
(1.30885 0.356768 -4.34818e-19)
(1.3147 0.354368 5.43593e-19)
(1.30829 0.346828 4.6848e-19)
(1.29886 0.337244 2.40779e-19)
(1.28917 0.326903 4.46298e-20)
(1.28007 0.316251 2.72414e-19)
(1.27126 0.30509 1.17858e-19)
(1.2626 0.296123 -7.85545e-20)
(1.25658 0.280455 -9.81051e-20)
(1.24785 0.277863 8.29155e-20)
(-0.0700819 -0.0458615 -1.58672e-19)
(0.264528 0.0455649 -1.79074e-19)
(0.861061 0.241906 1.43815e-19)
(1.165 0.32697 -1.99562e-19)
(1.28136 0.358888 -4.16477e-19)
(1.31169 0.365141 3.1799e-20)
(1.3117 0.360997 2.50408e-19)
(1.3033 0.352851 -2.23864e-19)
(1.29342 0.342982 1.46541e-19)
(1.28356 0.33226 2.90247e-19)
(1.274 0.321194 4.58645e-20)
(1.26538 0.309822 1.10371e-19)
(1.25675 0.300016 -1.29741e-19)
(1.2498 0.284249 8.57092e-20)
(1.24131 0.281598 -6.10753e-20)
(-0.0660612 -0.0595983 -5.10262e-20)
(0.378926 0.0859949 -1.90985e-20)
(0.934491 0.265454 -2.604e-19)
(1.20138 0.34518 2.99513e-20)
(1.29387 0.371247 -1.48578e-20)
(1.31264 0.373786 2.06712e-19)