/*--------------------------------*- C++ -*----------------------------------*\
  =========                 |
  \\      /  F ield         | OpenFOAM: The Open Source CFD Toolbox
   \\    /   O peration     | Website:  https://openfoam.org
    \\  /    A nd           | Version:  7
     \\/     M anipulation  |
\*---------------------------------------------------------------------------*/
FoamFile
{
    version     2.0;
    format      ascii;
    class       volScalarField;
    location    "13.9986";
    object      p;
}
// * * * * * * * * * * * * * * * * * * * * * * * * * * * * * * * * * * * * * //

dimensions      [0 2 -2 0 0 0 0];

internalField   nonuniform List<scalar> 
18750
(
-0.0337779
-0.0460654
-0.0678561
-0.0997403
-0.139876
-0.187405
-0.241166
-0.300196
-0.36348
-0.430107
-0.499078
-0.569192
-0.638911
-0.706562
-0.77069
-0.0387078
-0.0506725
-0.0721743
-0.103812
-0.143745
-0.191108
-0.24473
-0.303635
-0.366793
-0.433294
-0.502153
-0.572188
-0.641835
-0.709331
-0.773176
-0.0483484
-0.0596852
-0.0806178
-0.111768
-0.151295
-0.19832
-0.251654
-0.310296
-0.373189
-0.439416
-0.508021
-0.577859
-0.647333
-0.714536
-0.77789
-0.0622685
-0.0727067
-0.0928074
-0.12324
-0.162162
-0.208672
-0.261555
-0.319775
-0.382241
-0.448018
-0.516186
-0.585655
-0.654816
-0.721616
-0.784367
-0.0798602
-0.0891723
-0.108205
-0.137714
-0.175842
-0.221658
-0.273916
-0.33154
-0.393396
-0.458529
-0.526045
-0.594928
-0.663608
-0.729923
-0.792054
-0.100384
-0.108372
-0.126149
-0.154569
-0.191735
-0.236684
-0.288139
-0.344986
-0.406046
-0.470334
-0.536974
-0.605039
-0.673053
-0.738827
-0.800398
-0.123028
-0.129477
-0.145893
-0.173116
-0.209185
-0.253112
-0.303597
-0.359489
-0.419572
-0.482826
-0.548386
-0.615412
-0.682582
-0.747777
-0.808906
-0.14689
-0.151629
-0.16667
-0.192645
-0.22752
-0.270299
-0.319665
-0.374444
-0.433388
-0.495446
-0.559755
-0.625557
-0.691723
-0.756309
-0.817151
-0.171017
-0.173983
-0.187735
-0.212463
-0.246086
-0.287627
-0.335757
-0.389287
-0.446957
-0.507693
-0.570625
-0.635068
-0.700097
-0.764042
-0.824753
-0.194476
-0.195736
-0.208394
-0.231921
-0.264278
-0.304528
-0.351339
-0.403519
-0.45981
-0.51913
-0.580606
-0.643607
-0.707401
-0.770654
-0.83136
-0.216401
-0.216181
-0.228033
-0.250431
-0.281548
-0.3205
-0.365945
-0.416705
-0.471541
-0.529385
-0.589367
-0.650893
-0.713391
-0.775871
-0.836639
-0.23603
-0.234777
-0.246113
-0.267481
-0.297433
-0.335116
-0.379184
-0.428483
-0.481816
-0.538146
-0.596623
-0.656683
-0.717861
-0.779466
-0.840267
-0.252745
-0.251179
-0.262167
-0.282645
-0.311553
-0.348029
-0.390734
-0.438559
-0.490362
-0.545159
-0.602135
-0.660759
-0.720637
-0.781263
-0.841926
-0.266248
-0.265071
-0.275793
-0.295608
-0.323624
-0.358969
-0.400347
-0.446704
-0.496966
-0.55022
-0.605703
-0.662926
-0.721555
-0.781142
-0.841285
-0.276558
-0.276173
-0.286716
-0.306176
-0.333454
-0.367744
-0.407842
-0.452747
-0.501467
-0.553174
-0.607165
-0.663005
-0.720443
-0.779043
-0.838187
-0.283784
-0.284288
-0.295029
-0.314283
-0.34094
-0.374238
-0.413099
-0.456566
-0.50375
-0.553905
-0.606401
-0.66086
-0.717127
-0.774839
-0.832758
-0.288207
-0.289608
-0.300781
-0.319965
-0.346087
-0.378435
-0.416046
-0.458091
-0.503739
-0.55233
-0.603323
-0.656392
-0.711453
-0.768303
-0.825063
-0.29036
-0.292572
-0.304136
-0.323269
-0.348889
-0.380314
-0.416697
-0.45731
-0.501402
-0.548406
-0.597879
-0.649512
-0.70329
-0.75938
-0.814912
-0.290986
-0.293727
-0.305347
-0.324309
-0.349411
-0.379922
-0.415076
-0.454231
-0.496733
-0.542104
-0.590031
-0.640206
-0.692531
-0.748008
-0.802172
-0.290908
-0.293595
-0.3047
-0.32327
-0.347794
-0.377356
-0.411236
-0.448885
-0.489745
-0.533408
-0.579734
-0.628519
-0.679141
-0.734097
-0.786772
-0.290803
-0.292539
-0.302463
-0.320395
-0.344228
-0.37275
-0.405266
-0.44132
-0.480471
-0.522337
-0.566914
-0.61449
-0.663147
-0.717595
-0.768723
-0.290892
-0.290603
-0.298895
-0.315976
-0.338927
-0.366256
-0.397285
-0.431608
-0.468945
-0.508962
-0.551492
-0.59811
-0.644604
-0.698536
-0.748074
-0.290784
-0.287528
-0.294325
-0.310341
-0.332116
-0.358049
-0.387439
-0.419851
-0.455175
-0.493393
-0.53343
-0.579319
-0.623559
-0.677004
-0.725062
-0.289745
-0.283255
-0.289252
-0.303835
-0.32404
-0.348336
-0.375904
-0.406208
-0.43914
-0.475714
-0.512783
-0.558037
-0.600038
-0.652887
-0.700055
-0.287384
-0.278648
-0.284265
-0.296796
-0.315003
-0.337392
-0.362869
-0.3909
-0.420836
-0.455906
-0.489687
-0.534205
-0.574201
-0.626023
-0.673015
-0.283838
-0.275271
-0.279739
-0.289597
-0.30543
-0.325595
-0.348534
-0.374168
-0.400385
-0.433828
-0.464281
-0.507655
-0.54636
-0.596643
-0.64377
-0.279925
-0.273729
-0.275674
-0.282737
-0.295891
-0.313458
-0.333164
-0.356182
-0.378101
-0.409298
-0.436797
-0.478059
-0.516564
-0.565139
-0.612528
-0.276575
-0.273179
-0.272182
-0.276924
-0.287055
-0.301598
-0.317193
-0.33705
-0.354427
-0.382135
-0.407658
-0.445327
-0.484627
-0.531603
-0.58012
-0.2742
-0.272599
-0.269922
-0.272846
-0.27958
-0.290673
-0.301334
-0.31689
-0.329951
-0.352245
-0.377152
-0.409587
-0.450649
-0.49554
-0.547816
-0.272774
-0.271725
-0.269362
-0.270592
-0.274038
-0.281286
-0.286618
-0.296084
-0.305242
-0.319986
-0.345541
-0.370748
-0.415847
-0.454383
-0.515081
-0.271968
-0.271119
-0.269786
-0.269806
-0.270826
-0.273992
-0.274113
-0.275591
-0.281053
-0.286234
-0.313222
-0.33054
-0.380472
-0.412059
-0.474604
-0.271526
-0.270868
-0.270327
-0.27019
-0.269926
-0.269232
-0.264716
-0.256859
-0.257952
-0.254342
-0.279815
-0.294506
-0.344951
-0.375791
-0.436941
-0.271203
-0.270845
-0.270931
-0.271379
-0.270762
-0.267172
-0.258451
-0.242588
-0.235978
-0.227978
-0.244979
-0.264237
-0.310104
-0.346734
-0.407838
-0.270809
-0.270839
-0.271608
-0.272854
-0.272491
-0.26746
-0.254796
-0.234026
-0.217283
-0.207759
-0.215415
-0.239548
-0.278824
-0.324437
-0.380461
-0.27018
-0.270666
-0.272159
-0.274245
-0.274365
-0.269104
-0.253602
-0.230547
-0.205366
-0.193423
-0.197437
-0.222256
-0.257553
-0.307772
-0.355473
-0.269199
-0.270167
-0.272295
-0.275173
-0.275876
-0.271168
-0.254688
-0.230742
-0.200883
-0.185664
-0.189054
-0.213115
-0.245491
-0.292933
-0.338039
-0.267821
-0.269248
-0.271938
-0.275335
-0.276828
-0.273053
-0.257866
-0.234145
-0.203752
-0.187319
-0.188692
-0.210142
-0.239786
-0.281809
-0.325047
-0.266098
-0.267879
-0.270877
-0.274658
-0.277038
-0.275025
-0.263439
-0.241915
-0.213152
-0.1961
-0.194443
-0.211721
-0.238661
-0.274991
-0.31483
-0.264201
-0.266179
-0.269233
-0.273206
-0.276648
-0.277796
-0.27268
-0.255298
-0.227828
-0.209462
-0.204647
-0.216989
-0.240492
-0.271258
-0.30642
-0.262415
-0.264427
-0.267286
-0.271471
-0.276278
-0.281663
-0.28531
-0.272514
-0.245102
-0.22439
-0.216648
-0.224459
-0.243543
-0.269154
-0.299368
-0.261046
-0.262978
-0.265702
-0.270052
-0.276347
-0.286277
-0.297961
-0.288394
-0.261095
-0.238336
-0.228192
-0.232075
-0.246853
-0.267747
-0.293168
-0.260272
-0.262071
-0.264666
-0.269204
-0.276692
-0.290875
-0.305297
-0.300443
-0.273443
-0.249848
-0.237948
-0.23879
-0.249758
-0.266397
-0.287479
-0.260065
-0.261667
-0.264143
-0.268742
-0.276511
-0.293936
-0.30628
-0.305371
-0.281218
-0.258277
-0.245484
-0.244034
-0.251832
-0.264785
-0.282081
-0.260244
-0.261557
-0.263806
-0.268054
-0.275419
-0.292763
-0.303656
-0.304008
-0.284408
-0.263615
-0.25077
-0.247699
-0.252922
-0.262745
-0.276788
-0.260577
-0.261493
-0.263304
-0.266461
-0.273339
-0.286043
-0.298556
-0.299214
-0.283996
-0.26618
-0.253991
-0.249867
-0.253008
-0.260228
-0.271522
-0.260892
-0.261317
-0.262444
-0.263967
-0.270106
-0.276693
-0.291195
-0.292616
-0.281149
-0.266482
-0.255411
-0.250717
-0.252181
-0.257232
-0.266202
-0.261114
-0.261013
-0.261182
-0.2611
-0.265184
-0.269484
-0.282796
-0.285234
-0.276925
-0.265125
-0.255337
-0.250416
-0.250533
-0.253802
-0.260803
-0.261265
-0.260686
-0.259729
-0.258927
-0.257603
-0.265032
-0.275271
-0.27793
-0.272023
-0.262611
-0.254061
-0.249139
-0.248192
-0.249988
-0.255301
-0.261435
-0.260481
-0.258402
-0.258034
-0.250669
-0.261276
-0.269145
-0.271298
-0.266945
-0.25936
-0.25188
-0.247045
-0.245244
-0.245842
-0.249689
-0.261753
-0.260457
-0.258028
-0.256663
-0.249596
-0.258013
-0.264077
-0.26553
-0.261993
-0.255662
-0.24901
-0.244272
-0.241792
-0.241407
-0.243958
-0.262369
-0.26065
-0.259632
-0.252985
-0.25237
-0.256271
-0.259969
-0.260527
-0.25729
-0.251726
-0.245652
-0.240959
-0.23791
-0.236716
-0.238111
-0.263365
-0.261311
-0.262706
-0.249747
-0.2539
-0.255536
-0.256824
-0.256214
-0.252869
-0.247671
-0.241929
-0.237204
-0.233673
-0.231796
-0.232138
-0.264706
-0.262869
-0.264854
-0.252294
-0.254611
-0.254968
-0.254371
-0.252467
-0.248704
-0.243562
-0.237949
-0.23311
-0.229139
-0.226672
-0.226048
-0.266393
-0.266085
-0.264608
-0.259701
-0.256689
-0.254578
-0.252262
-0.24912
-0.244755
-0.239433
-0.233769
-0.228733
-0.224353
-0.22136
-0.219841
-0.268322
-0.270968
-0.262302
-0.264875
-0.259383
-0.254533
-0.250409
-0.246039
-0.24096
-0.235287
-0.229433
-0.224132
-0.219353
-0.215872
-0.213536
-0.270485
-0.276051
-0.260976
-0.266126
-0.261108
-0.254639
-0.248796
-0.243159
-0.237272
-0.231119
-0.224959
-0.219329
-0.214158
-0.21022
-0.207138
-0.273167
-0.279647
-0.264528
-0.266164
-0.261658
-0.25448
-0.247282
-0.240412
-0.233646
-0.226912
-0.220357
-0.214351
-0.208787
-0.204409
-0.200667
-0.276742
-0.281068
-0.272418
-0.267798
-0.261738
-0.253906
-0.245678
-0.237701
-0.230032
-0.222648
-0.215625
-0.209201
-0.203247
-0.198453
-0.194127
-0.281543
-0.280479
-0.280296
-0.271347
-0.262256
-0.253094
-0.243875
-0.234909
-0.226364
-0.218292
-0.210752
-0.203885
-0.197543
-0.192358
-0.187537
-0.288104
-0.278998
-0.286001
-0.275423
-0.263395
-0.252309
-0.241885
-0.231954
-0.222568
-0.213804
-0.205721
-0.198393
-0.191673
-0.18613
-0.180896
-0.296486
-0.280296
-0.289382
-0.278962
-0.264782
-0.251624
-0.239758
-0.228793
-0.218581
-0.209138
-0.200506
-0.192717
-0.185633
-0.179764
-0.174189
-0.306266
-0.286857
-0.291815
-0.281465
-0.265887
-0.250885
-0.237489
-0.225411
-0.21436
-0.204249
-0.195078
-0.186839
-0.17941
-0.17325
-0.167386
-0.316589
-0.298372
-0.294915
-0.282955
-0.266308
-0.249829
-0.234996
-0.221779
-0.209874
-0.199104
-0.189408
-0.180737
-0.172987
-0.166563
-0.160446
-0.325968
-0.311641
-0.299249
-0.283809
-0.265884
-0.248221
-0.232151
-0.217851
-0.205096
-0.193675
-0.183471
-0.174389
-0.166341
-0.159681
-0.153345
-0.332952
-0.322898
-0.304007
-0.28434
-0.264678
-0.245941
-0.228837
-0.213562
-0.199994
-0.18794
-0.177242
-0.16777
-0.159445
-0.152578
-0.14607
-0.336791
-0.330356
-0.307688
-0.284465
-0.262834
-0.242988
-0.22498
-0.208852
-0.194534
-0.181874
-0.170702
-0.160857
-0.152274
-0.145231
-0.138605
-0.337842
-0.334096
-0.309648
-0.28392
-0.260433
-0.239424
-0.22056
-0.203673
-0.18868
-0.175456
-0.163832
-0.15363
-0.144802
-0.137609
-0.130915
-0.337503
-0.3351
-0.309892
-0.28252
-0.257463
-0.235293
-0.215583
-0.197999
-0.182398
-0.16866
-0.156614
-0.146076
-0.137016
-0.129686
-0.122917
-0.336913
-0.334458
-0.308684
-0.280199
-0.25387
-0.230604
-0.210059
-0.191816
-0.175664
-0.161462
-0.149032
-0.138186
-0.128918
-0.121443
-0.114476
-0.336728
-0.332977
-0.306351
-0.276978
-0.249604
-0.225338
-0.203984
-0.185114
-0.168458
-0.15384
-0.141067
-0.129957
-0.12052
-0.112912
-0.105469
-0.337141
-0.331078
-0.303146
-0.27291
-0.244624
-0.21946
-0.197342
-0.17788
-0.160763
-0.145775
-0.132706
-0.121383
-0.111842
-0.104168
-0.0958852
-0.338009
-0.328934
-0.299241
-0.268043
-0.238906
-0.212926
-0.190105
-0.170095
-0.152564
-0.137253
-0.123937
-0.11246
-0.102898
-0.0952419
-0.0858778
-0.338984
-0.326571
-0.294715
-0.2624
-0.232419
-0.205692
-0.182235
-0.161735
-0.143846
-0.128268
-0.114763
-0.103196
-0.093711
-0.0860187
-0.0757499
-0.339614
-0.323893
-0.289564
-0.25597
-0.225128
-0.197714
-0.173696
-0.152775
-0.134598
-0.118829
-0.105203
-0.0936166
-0.084294
-0.0762698
-0.0657817
-0.339476
-0.32062
-0.283697
-0.24871
-0.216991
-0.188949
-0.164457
-0.143201
-0.124813
-0.108951
-0.0952817
-0.083783
-0.0745474
-0.0660802
-0.0558952
-0.338234
-0.316332
-0.276955
-0.24055
-0.207967
-0.179369
-0.154504
-0.133015
-0.114511
-0.0986295
-0.0849967
-0.0736413
-0.0644279
-0.0556075
-0.0459645
-0.335569
-0.310722
-0.269159
-0.231408
-0.198019
-0.168961
-0.143843
-0.122233
-0.103705
-0.0878415
-0.0743309
-0.0631536
-0.0539306
-0.0449546
-0.0359137
-0.331233
-0.303582
-0.260147
-0.221208
-0.187121
-0.157732
-0.132492
-0.11086
-0.0923575
-0.0765829
-0.0632734
-0.0523045
-0.0430934
-0.034149
-0.0257198
-0.325033
-0.294772
-0.249788
-0.209885
-0.175271
-0.145705
-0.12044
-0.09885
-0.0804579
-0.0648688
-0.0518243
-0.0410988
-0.0319685
-0.0231774
-0.015388
-0.316846
-0.284221
-0.237981
-0.197398
-0.16249
-0.132864
-0.107644
-0.0861971
-0.068015
-0.0527061
-0.039991
-0.0295525
-0.0205818
-0.0120314
-0.00493109
-0.306602
-0.27193
-0.22465
-0.183737
-0.148772
-0.11916
-0.094101
-0.0729078
-0.0550413
-0.0401059
-0.027787
-0.0176824
-0.00893965
-0.000704608
0.0056444
-0.294285
-0.257966
-0.209764
-0.168906
-0.134034
-0.104594
-0.0798224
-0.0589969
-0.041553
-0.0270835
-0.0152289
-0.0055036
0.00295706
0.010808
0.0163198
-0.279912
-0.242401
-0.193378
-0.152814
-0.118268
-0.0891817
-0.064829
-0.0444854
-0.0275702
-0.0136572
-0.00233223
0.00697118
0.015099
0.0224924
0.0270549
-0.263534
-0.225196
-0.175612
-0.135449
-0.101488
-0.0729453
-0.0491477
-0.0293995
-0.0131154
0.000155788
0.0108924
0.019732
0.0274576
0.0342832
0.0377994
-0.245243
-0.206125
-0.156637
-0.116933
-0.0837327
-0.0559141
-0.0328102
-0.0137699
0.00178604
0.0143407
0.0244421
0.0327719
0.0399857
0.0460558
0.0484645
-0.225175
-0.18493
-0.136639
-0.0974168
-0.0650698
-0.0381269
-0.0158523
0.00236925
0.0171079
0.0288853
0.0383173
0.0460825
0.0526271
0.0576511
0.0587659
-0.203454
-0.161896
-0.115448
-0.077
-0.0455837
-0.0196353
0.00168455
0.0189812
0.032823
0.0437764
0.0525116
0.059638
0.0653169
0.0689
0.0681723
-0.180093
-0.13747
-0.0930274
-0.055726
-0.0253557
-0.000501707
0.0197526
0.0360268
0.0489026
0.0589941
0.0669966
0.0733781
0.0779607
0.0796642
0.0764835
-0.15503
-0.112128
-0.0694947
-0.0336209
-0.00445354
0.0192062
0.0382977
0.0534642
0.0653153
0.0745066
0.0817119
0.0871993
0.0904449
0.0900447
0.0847322
-0.128406
-0.0860107
-0.0450218
-0.0107398
0.0170598
0.03942
0.0572617
0.0712481
0.0820236
0.0902669
0.0965741
0.100986
0.102715
0.100587
0.095087
-0.100453
-0.0591085
-0.0197628
0.012825
0.0391153
0.0600712
0.076584
0.0893289
0.0989813
0.106215
0.111503
0.114678
0.11487
0.111593
0.10945
-0.0713921
-0.031452
0.00615544
0.0369643
0.0616331
0.0810891
0.0962016
0.107652
0.116132
0.122283
0.126442
0.128304
0.12714
0.123331
0.123466
-0.04142
-0.00312449
0.032619
0.0615663
0.0845246
0.102399
0.116049
0.126156
0.133414
0.138408
0.141361
0.141934
0.139674
0.135752
0.136708
-0.0107216
0.0257541
0.0595148
0.0865213
0.107696
0.123923
0.136057
0.144776
0.150762
0.154537
0.156249
0.155598
0.152413
0.148389
0.149243
0.0205284
0.0550468
0.0867251
0.111721
0.131053
0.145579
0.156153
0.163445
0.168114
0.170628
0.171098
0.169303
0.165317
0.161065
0.161281
0.0521592
0.0846095
0.114128
0.137055
0.154497
0.167283
0.176262
0.182095
0.185413
0.18664
0.18588
0.182989
0.178217
0.173564
0.173002
0.0840039
0.114298
0.1416
0.162417
0.177932
0.188949
0.196307
0.200656
0.2026
0.202535
0.200567
0.196622
0.191066
0.185863
0.184441
0.115898
0.143967
0.169015
0.187695
0.201262
0.21049
0.216212
0.219061
0.219621
0.218262
0.215099
0.210111
0.203746
0.197929
0.195644
0.147681
0.173478
0.19625
0.212781
0.224388
0.231821
0.2359
0.237244
0.236418
0.233777
0.229439
0.223423
0.216231
0.209732
0.206574
0.179196
0.202692
0.223181
0.237566
0.247215
0.252855
0.255295
0.255138
0.252932
0.249018
0.243516
0.23648
0.228461
0.221274
0.217229
0.210288
0.231474
0.249689
0.261944
0.269648
0.273509
0.274321
0.272677
0.269108
0.263939
0.257295
0.249253
0.2404
0.232493
0.227564
0.240808
0.259693
0.275657
0.28581
0.291595
0.293699
0.292906
0.289795
0.284881
0.278478
0.27071
0.261683
0.252017
0.243392
0.237559
0.270612
0.287223
0.300972
0.309063
0.312963
0.313344
0.310977
0.306429
0.3002
0.29259
0.283724
0.273732
0.26326
0.253908
0.24718
0.29956
0.313941
0.325523
0.331604
0.333667
0.332366
0.328465
0.322515
0.315003
0.306216
0.296285
0.285364
0.274112
0.264032
0.256398
0.327519
0.33973
0.349207
0.35334
0.35362
0.35069
0.345301
0.337993
0.329239
0.319313
0.308351
0.29653
0.284519
0.273718
0.265187
0.354362
0.364477
0.371922
0.374179
0.372742
0.368243
0.36142
0.352804
0.342851
0.33183
0.319882
0.307205
0.29446
0.282941
0.273521
0.379966
0.388077
0.393572
0.394036
0.390956
0.384955
0.376761
0.366892
0.355793
0.343724
0.330833
0.317339
0.303894
0.291673
0.281378
0.404218
0.410428
0.414067
0.412828
0.408187
0.40076
0.391263
0.380204
0.368016
0.354954
0.341174
0.326909
0.312792
0.299884
0.288736
0.42701
0.431436
0.433322
0.430481
0.424368
0.415596
0.404871
0.39269
0.379475
0.365476
0.350862
0.335876
0.321125
0.307552
0.295576
0.448241
0.451012
0.451258
0.446921
0.439435
0.429406
0.417534
0.404304
0.390129
0.375258
0.359867
0.34421
0.328863
0.314652
0.301883
0.467818
0.469076
0.467803
0.462084
0.453327
0.442137
0.429203
0.415002
0.399939
0.384262
0.368158
0.351885
0.335982
0.321163
0.307641
0.485656
0.485556
0.482891
0.47591
0.46599
0.453738
0.439833
0.424745
0.40887
0.392458
0.375704
0.358873
0.342458
0.327069
0.312839
0.501675
0.500388
0.496463
0.488343
0.477375
0.464165
0.449385
0.433497
0.41689
0.399816
0.382482
0.365149
0.348268
0.332351
0.317467
0.515812
0.513513
0.508467
0.499334
0.487437
0.473378
0.457822
0.441225
0.42397
0.406312
0.388466
0.370692
0.353395
0.336995
0.321516
0.528023
0.524868
0.51885
0.508838
0.496136
0.481341
0.465114
0.447902
0.430085
0.411922
0.393636
0.375482
0.35782
0.34099
0.324983
0.538276
0.534397
0.527568
0.516817
0.503437
0.488024
0.471231
0.453502
0.435214
0.416627
0.397973
0.379502
0.36153
0.344327
0.327864
0.546532
0.542061
0.534584
0.523237
0.509313
0.493401
0.476153
0.458007
0.439339
0.42041
0.401461
0.382735
0.36451
0.346998
0.330162
0.552756
0.547833
0.53987
0.528075
0.513739
0.497451
0.47986
0.4614
0.442444
0.423259
0.404089
0.385172
0.366753
0.349
0.331879
0.556921
0.551692
0.543404
0.53131
0.516699
0.50016
0.482339
0.463668
0.444521
0.425164
0.405846
0.386801
0.368251
0.350334
0.33302
0.559008
0.553625
0.545175
0.53293
0.518182
0.501517
0.48358
0.464804
0.44556
0.426118
0.406727
0.387617
0.369001
0.351
0.333589
0.559007
0.553624
0.545174
0.53293
0.518182
0.501516
0.48358
0.464804
0.44556
0.426118
0.406726
0.387617
0.369001
0.351
0.333589
0.55692
0.551691
0.543403
0.531309
0.516698
0.500159
0.482338
0.463667
0.44452
0.425164
0.405846
0.3868
0.36825
0.350334
0.333019
0.552754
0.547831
0.539868
0.528073
0.513737
0.49745
0.479858
0.461398
0.442443
0.423258
0.404088
0.385171
0.366752
0.348999
0.331878
0.546529
0.542059
0.534582
0.523235
0.50931
0.493399
0.476151
0.458005
0.439337
0.420409
0.40146
0.382734
0.364509
0.346996
0.33016
0.538273
0.534394
0.527565
0.516814
0.503435
0.488021
0.471229
0.4535
0.435212
0.416625
0.397971
0.3795
0.361528
0.344325
0.327862
0.528019
0.524864
0.518846
0.508834
0.496133
0.481338
0.465111
0.447899
0.430083
0.411919
0.393633
0.37548
0.357818
0.340988
0.324981
0.515807
0.513508
0.508462
0.49933
0.487433
0.473374
0.457819
0.441222
0.423967
0.406309
0.388463
0.370689
0.353392
0.336993
0.321514
0.501669
0.500382
0.496458
0.488338
0.477371
0.464161
0.449381
0.433493
0.416887
0.399813
0.382478
0.365146
0.348265
0.332348
0.317464
0.485649
0.48555
0.482885
0.475904
0.465985
0.453733
0.439829
0.424741
0.408866
0.392454
0.375701
0.358869
0.342454
0.327065
0.312836
0.467811
0.469069
0.467797
0.462078
0.453321
0.442132
0.429197
0.414997
0.399934
0.384258
0.368153
0.351881
0.335978
0.32116
0.307638
0.448233
0.451004
0.451251
0.446915
0.439428
0.4294
0.417528
0.404299
0.390124
0.375253
0.359862
0.344206
0.328859
0.314648
0.301879
0.427001
0.431427
0.433314
0.430473
0.424361
0.41559
0.404865
0.392685
0.379469
0.365471
0.350856
0.335871
0.32112
0.307547
0.295572
0.404208
0.410419
0.414058
0.41282
0.40818
0.400752
0.391256
0.380198
0.36801
0.354948
0.341169
0.326903
0.312787
0.299879
0.288731
0.379956
0.388067
0.393563
0.394027
0.390947
0.384947
0.376754
0.366885
0.355787
0.343718
0.330827
0.317333
0.303889
0.291668
0.281373
0.35435
0.364467
0.371912
0.37417
0.372733
0.368234
0.361412
0.352796
0.342844
0.331823
0.319876
0.307198
0.294454
0.282935
0.273516
0.327507
0.339718
0.349196
0.35333
0.353611
0.350682
0.345293
0.337985
0.329231
0.319306
0.308344
0.296524
0.284513
0.273712
0.265181
0.299547
0.313929
0.325512
0.331594
0.333657
0.332357
0.328456
0.322506
0.314994
0.306208
0.296277
0.285357
0.274106
0.264026
0.256392
0.270598
0.28721
0.30096
0.309052
0.312953
0.313334
0.310968
0.30642
0.300192
0.292582
0.283716
0.273725
0.263253
0.253902
0.247173
0.240793
0.259679
0.275644
0.285798
0.291583
0.293688
0.292896
0.289786
0.284872
0.27847
0.270701
0.261675
0.252009
0.243385
0.237552
0.210273
0.231459
0.249676
0.261932
0.269637
0.273498
0.274311
0.272667
0.269098
0.26393
0.257286
0.249244
0.240392
0.232485
0.227557
0.17918
0.202677
0.223167
0.237553
0.247203
0.252844
0.255284
0.255128
0.252922
0.249008
0.243507
0.236472
0.228453
0.221265
0.217221
0.147665
0.173463
0.196235
0.212768
0.224375
0.231809
0.235889
0.237233
0.236407
0.233767
0.229429
0.223414
0.216223
0.209724
0.206566
0.115881
0.143951
0.169
0.187681
0.201248
0.210478
0.2162
0.21905
0.21961
0.218252
0.215089
0.210101
0.203737
0.19792
0.195636
0.0839858
0.114281
0.141584
0.162402
0.177918
0.188936
0.196295
0.200644
0.202589
0.202524
0.200556
0.196612
0.191057
0.185854
0.184433
0.0521403
0.0845919
0.114112
0.13704
0.154482
0.16727
0.176249
0.182082
0.185401
0.186629
0.185869
0.182979
0.178207
0.173554
0.172993
0.0205089
0.0550285
0.086708
0.111704
0.131038
0.145565
0.156139
0.163432
0.168102
0.170616
0.171087
0.169293
0.165307
0.161055
0.161272
-0.0107419
0.0257351
0.059497
0.0865046
0.107681
0.123908
0.136043
0.144763
0.150749
0.154525
0.156238
0.155587
0.152402
0.148379
0.149233
-0.041441
-0.00314409
0.0326006
0.0615491
0.0845083
0.102384
0.116034
0.126142
0.133401
0.138395
0.141349
0.141922
0.139663
0.135741
0.136698
-0.0714137
-0.0314723
0.00613645
0.0369464
0.0616162
0.0810732
0.0961865
0.107637
0.116119
0.12227
0.12643
0.128292
0.127129
0.123319
0.123455
-0.100475
-0.0591294
-0.0197824
0.0128065
0.0390979
0.0600548
0.0765684
0.0893141
0.0989672
0.106201
0.11149
0.114665
0.114858
0.111581
0.109439
-0.128429
-0.0860322
-0.045042
-0.0107588
0.0170419
0.0394031
0.0572457
0.0712328
0.082009
0.090253
0.0965608
0.100973
0.102703
0.100575
0.0950751
-0.155053
-0.11215
-0.0695155
-0.0336404
-0.00447196
0.0191887
0.0382811
0.0534484
0.0653003
0.0744922
0.0816982
0.0871862
0.0904322
0.0900324
0.08472
-0.180118
-0.137493
-0.0930488
-0.0557461
-0.0253747
-0.000519625
0.0197356
0.0360106
0.0488872
0.0589794
0.0669825
0.0733645
0.0779477
0.0796516
0.0764711
-0.203479
-0.161919
-0.11547
-0.0770206
-0.0456031
-0.0196537
0.00166708
0.0189646
0.0328071
0.0437612
0.0524971
0.0596241
0.0653035
0.0688871
0.0681597
-0.225201
-0.184954
-0.136661
-0.0974379
-0.0650897
-0.0381458
-0.0158703
0.00235218
0.0170916
0.0288697
0.0383024
0.0460682
0.0526134
0.0576379
0.0587531
-0.245269
-0.206149
-0.15666
-0.116955
-0.0837531
-0.0559335
-0.0328286
-0.0137874
0.00176933
0.0143247
0.0244268
0.0327573
0.0399716
0.0460423
0.0484514
-0.26356
-0.225222
-0.175635
-0.135471
-0.101509
-0.0729651
-0.0491665
-0.0294174
-0.0131325
0.00013942
0.0108767
0.0197169
0.0274432
0.0342694
0.0377861
-0.279939
-0.242426
-0.193402
-0.152836
-0.11829
-0.0892019
-0.0648482
-0.0445037
-0.0275877
-0.013674
-0.00234829
0.00695578
0.0150842
0.0224783
0.0270412
-0.294313
-0.257993
-0.209789
-0.168929
-0.134055
-0.104615
-0.0798421
-0.0590157
-0.0415709
-0.0271007
-0.0152453
-0.00551935
0.00294194
0.0107936
0.0163059
-0.30663
-0.271957
-0.224675
-0.183761
-0.148795
-0.119181
-0.0941211
-0.0729269
-0.0550596
-0.0401234
-0.0278038
-0.0176985
-0.0089551
-0.000719433
0.00563015
-0.316874
-0.284248
-0.238006
-0.197422
-0.162513
-0.132886
-0.107664
-0.0862166
-0.0680337
-0.0527239
-0.0400082
-0.0295689
-0.0205976
-0.0120466
-0.00494565
-0.325062
-0.294799
-0.249814
-0.209909
-0.175294
-0.145727
-0.120461
-0.0988699
-0.0804769
-0.064887
-0.0518418
-0.0411156
-0.0319846
-0.0231929
-0.0154029
-0.331262
-0.30361
-0.260173
-0.221233
-0.187145
-0.157754
-0.132513
-0.11088
-0.0923769
-0.0766015
-0.0632912
-0.0523216
-0.0431099
-0.0341648
-0.025735
-0.335599
-0.31075
-0.269185
-0.231433
-0.198043
-0.168983
-0.143865
-0.122253
-0.103725
-0.0878605
-0.0743491
-0.0631711
-0.0539474
-0.0449707
-0.0359292
-0.338264
-0.316361
-0.276982
-0.240575
-0.207991
-0.179392
-0.154526
-0.133036
-0.114531
-0.0986488
-0.0850152
-0.073659
-0.0644449
-0.0556239
-0.0459803
-0.339506
-0.320649
-0.283724
-0.248736
-0.217015
-0.188973
-0.164479
-0.143222
-0.124834
-0.10897
-0.0953005
-0.0838011
-0.0745648
-0.0660969
-0.0559112
-0.339643
-0.323922
-0.289592
-0.255996
-0.225153
-0.197737
-0.173719
-0.152797
-0.134618
-0.118849
-0.105222
-0.093635
-0.0843117
-0.0762868
-0.065798
-0.339013
-0.3266
-0.294742
-0.262426
-0.232444
-0.205716
-0.182258
-0.161757
-0.143867
-0.128288
-0.114782
-0.103215
-0.093729
-0.086036
-0.0757664
-0.338039
-0.328963
-0.299269
-0.26807
-0.238931
-0.21295
-0.190128
-0.170117
-0.152585
-0.137273
-0.123956
-0.112479
-0.102916
-0.0952596
-0.0858946
-0.33717
-0.331107
-0.303174
-0.272937
-0.24465
-0.219484
-0.197366
-0.177903
-0.160785
-0.145796
-0.132726
-0.121402
-0.11186
-0.104186
-0.0959024
-0.336758
-0.333007
-0.306379
-0.277005
-0.24963
-0.225363
-0.204008
-0.185137
-0.16848
-0.153861
-0.141088
-0.129977
-0.120539
-0.11293
-0.105486
-0.336943
-0.334487
-0.308713
-0.280226
-0.253897
-0.230629
-0.210083
-0.191839
-0.175687
-0.161483
-0.149052
-0.138206
-0.128937
-0.121462
-0.114493
-0.337533
-0.33513
-0.309921
-0.282548
-0.257489
-0.235318
-0.215608
-0.198023
-0.18242
-0.168681
-0.156635
-0.146096
-0.137036
-0.129705
-0.122935
-0.337872
-0.334126
-0.309678
-0.283949
-0.26046
-0.23945
-0.220585
-0.203697
-0.188702
-0.175478
-0.163853
-0.15365
-0.144822
-0.137628
-0.130933
-0.336821
-0.330388
-0.307718
-0.284493
-0.262861
-0.243015
-0.225005
-0.208876
-0.194558
-0.181897
-0.170724
-0.160878
-0.152293
-0.14525
-0.138624
-0.332984
-0.32293
-0.304037
-0.284368
-0.264705
-0.245967
-0.228863
-0.213587
-0.200018
-0.187962
-0.177264
-0.167791
-0.159465
-0.152598
-0.146089
-0.325999
-0.311673
-0.299279
-0.283837
-0.265912
-0.248247
-0.232177
-0.217876
-0.205119
-0.193698
-0.183493
-0.17441
-0.166361
-0.159701
-0.153364
-0.316621
-0.298404
-0.294945
-0.282984
-0.266336
-0.249856
-0.235021
-0.221804
-0.209898
-0.199127
-0.18943
-0.180758
-0.173007
-0.166583
-0.160465
-0.306297
-0.286888
-0.291844
-0.281494
-0.265915
-0.250913
-0.237515
-0.225436
-0.214384
-0.204273
-0.195101
-0.18686
-0.179431
-0.17327
-0.167405
-0.296518
-0.280326
-0.289412
-0.278992
-0.26481
-0.251652
-0.239785
-0.228818
-0.218606
-0.209161
-0.200529
-0.192739
-0.185654
-0.179784
-0.174209
-0.288135
-0.279027
-0.286031
-0.275453
-0.263424
-0.252337
-0.241912
-0.231979
-0.222593
-0.213828
-0.205744
-0.198415
-0.191695
-0.186151
-0.180916
-0.281573
-0.280509
-0.280327
-0.271377
-0.262285
-0.253122
-0.243902
-0.234935
-0.226389
-0.218316
-0.210775
-0.203907
-0.197565
-0.192379
-0.187557
-0.276772
-0.281098
-0.272449
-0.267828
-0.261767
-0.253933
-0.245705
-0.237727
-0.230057
-0.222672
-0.215649
-0.209224
-0.203268
-0.198474
-0.194148
-0.273197
-0.279677
-0.264558
-0.266193
-0.261687
-0.254508
-0.247309
-0.240438
-0.233671
-0.226937
-0.220381
-0.214374
-0.208809
-0.20443
-0.200687
-0.270515
-0.276082
-0.261005
-0.266155
-0.261137
-0.254668
-0.248823
-0.243185
-0.237297
-0.231144
-0.224983
-0.219352
-0.21418
-0.210241
-0.207159
-0.268351
-0.270998
-0.262331
-0.264905
-0.259412
-0.254561
-0.250436
-0.246066
-0.240986
-0.235311
-0.229457
-0.224155
-0.219375
-0.215894
-0.213556
-0.266423
-0.266115
-0.264637
-0.259732
-0.256719
-0.254607
-0.25229
-0.249146
-0.24478
-0.239458
-0.233793
-0.228756
-0.224376
-0.221382
-0.219862
-0.264735
-0.262899
-0.264884
-0.252324
-0.25464
-0.254997
-0.254399
-0.252494
-0.24873
-0.243587
-0.237974
-0.233133
-0.229161
-0.226694
-0.226069
-0.263394
-0.261341
-0.262736
-0.249776
-0.253929
-0.255565
-0.256851
-0.25624
-0.252895
-0.247696
-0.241954
-0.237228
-0.233696
-0.231819
-0.232159
-0.262398
-0.260679
-0.259662
-0.253013
-0.252399
-0.256299
-0.259996
-0.260554
-0.257316
-0.251751
-0.245676
-0.240983
-0.237934
-0.236738
-0.238133
-0.261782
-0.260486
-0.258057
-0.256692
-0.249626
-0.258041
-0.264104
-0.265557
-0.262019
-0.255688
-0.249035
-0.244296
-0.241816
-0.24143
-0.24398
-0.261464
-0.26051
-0.25843
-0.258063
-0.250697
-0.261304
-0.269172
-0.271325
-0.266972
-0.259386
-0.251905
-0.247069
-0.245268
-0.245865
-0.249711
-0.261294
-0.260715
-0.259758
-0.258956
-0.25763
-0.26506
-0.275298
-0.277957
-0.27205
-0.262637
-0.254087
-0.249164
-0.248216
-0.250011
-0.255324
-0.261143
-0.261041
-0.261211
-0.261128
-0.265211
-0.269512
-0.282823
-0.285261
-0.276951
-0.265152
-0.255363
-0.250441
-0.250558
-0.253826
-0.260826
-0.260921
-0.261345
-0.262473
-0.263995
-0.270134
-0.27672
-0.291222
-0.292643
-0.281176
-0.266509
-0.255437
-0.250743
-0.252206
-0.257256
-0.266225
-0.260606
-0.261522
-0.263332
-0.266489
-0.273367
-0.286071
-0.298585
-0.299242
-0.284023
-0.266207
-0.254017
-0.249893
-0.253033
-0.260252
-0.271545
-0.260273
-0.261585
-0.263834
-0.268082
-0.275446
-0.292792
-0.303685
-0.304037
-0.284436
-0.263643
-0.250797
-0.247726
-0.252948
-0.26277
-0.276812
-0.260094
-0.261695
-0.264172
-0.26877
-0.27654
-0.293966
-0.30631
-0.305401
-0.281247
-0.258305
-0.245512
-0.24406
-0.251858
-0.26481
-0.282105
-0.2603
-0.2621
-0.264694
-0.269232
-0.276721
-0.290905
-0.305328
-0.300474
-0.273473
-0.249877
-0.237976
-0.238817
-0.249785
-0.266422
-0.287503
-0.261075
-0.263007
-0.265731
-0.27008
-0.276376
-0.286307
-0.297993
-0.288426
-0.261126
-0.238365
-0.228221
-0.232102
-0.24688
-0.267773
-0.293193
-0.262444
-0.264456
-0.267315
-0.2715
-0.276308
-0.281693
-0.285343
-0.272547
-0.245133
-0.22442
-0.216676
-0.224487
-0.24357
-0.26918
-0.299393
-0.26423
-0.266208
-0.269262
-0.273236
-0.276678
-0.277827
-0.272711
-0.25533
-0.227858
-0.209491