/*--------------------------------*- C++ -*----------------------------------*\
  =========                 |
  \\      /  F ield         | OpenFOAM: The Open Source CFD Toolbox
   \\    /   O peration     | Website:  https://openfoam.org
    \\  /    A nd           | Version:  7
     \\/     M anipulation  |
\*---------------------------------------------------------------------------*/
FoamFile
{
    version     2.0;
    format      ascii;
    class       volScalarField;
    location    "8.9991";
    object      p;
}
// * * * * * * * * * * * * * * * * * * * * * * * * * * * * * * * * * * * * * //

dimensions      [0 2 -2 0 0 0 0];

internalField   nonuniform List<scalar> 
18750
(
-0.0444335
-0.0628681
-0.0959174
-0.143037
-0.200745
-0.266712
-0.338284
-0.413346
-0.490152
-0.567559
-0.644539
-0.719869
-0.792051
-0.859635
-0.921271
-0.0512425
-0.0691917
-0.101792
-0.148512
-0.205865
-0.271513
-0.342787
-0.41755
-0.494044
-0.571147
-0.647901
-0.723137
-0.79531
-0.862836
-0.924317
-0.0645253
-0.0815304
-0.113244
-0.159169
-0.215815
-0.280822
-0.351494
-0.425657
-0.501526
-0.57802
-0.6543
-0.729314
-0.801463
-0.868929
-0.930203
-0.0836389
-0.0992917
-0.129704
-0.174458
-0.230054
-0.294096
-0.363859
-0.437122
-0.512063
-0.587644
-0.663184
-0.737806
-0.809911
-0.877397
-0.938529
-0.107687
-0.121639
-0.150375
-0.193623
-0.247849
-0.310618
-0.379172
-0.451247
-0.524983
-0.599375
-0.673912
-0.747956
-0.819994
-0.887651
-0.948816
-0.135596
-0.147525
-0.17429
-0.215768
-0.268353
-0.329571
-0.396642
-0.467274
-0.539575
-0.612559
-0.685878
-0.75917
-0.831121
-0.899146
-0.960609
-0.166201
-0.175738
-0.200385
-0.239931
-0.290669
-0.350113
-0.415477
-0.484464
-0.555171
-0.626617
-0.698585
-0.770998
-0.842827
-0.911409
-0.973477
-0.198196
-0.205053
-0.227589
-0.265142
-0.313911
-0.371433
-0.434935
-0.502147
-0.571184
-0.641063
-0.711642
-0.783095
-0.854722
-0.923968
-0.98693
-0.230208
-0.234276
-0.254887
-0.290479
-0.337242
-0.392781
-0.454353
-0.519739
-0.587105
-0.655473
-0.724708
-0.795149
-0.866423
-0.936266
-1.00034
-0.260901
-0.262291
-0.281353
-0.315095
-0.359903
-0.413489
-0.473147
-0.536729
-0.602481
-0.669439
-0.737428
-0.806818
-0.877508
-0.947656
-1.01289
-0.289037
-0.28814
-0.306172
-0.33823
-0.381222
-0.432971
-0.490806
-0.552664
-0.616886
-0.682541
-0.749387
-0.817706
-0.887537
-0.957497
-1.02375
-0.313526
-0.311118
-0.328631
-0.35922
-0.400626
-0.450722
-0.506878
-0.567132
-0.629917
-0.694348
-0.76012
-0.827365
-0.896087
-0.965258
-1.03204
-0.333496
-0.330817
-0.348101
-0.377515
-0.417646
-0.466312
-0.520967
-0.579754
-0.641194
-0.704446
-0.769149
-0.835292
-0.902752
-0.970579
-1.03698
-0.348574
-0.346858
-0.364026
-0.392717
-0.431923
-0.479386
-0.532728
-0.59019
-0.650366
-0.712453
-0.776032
-0.840971
-0.907092
-0.973304
-1.03798
-0.358871
-0.358859
-0.376041
-0.404608
-0.443194
-0.489667
-0.541875
-0.598137
-0.657117
-0.718034
-0.78041
-0.843964
-0.908573
-0.973402
-1.03516
-0.364633
-0.366498
-0.384366
-0.413152
-0.451298
-0.496958
-0.54818
-0.603344
-0.661175
-0.720901
-0.782009
-0.843996
-0.90674
-0.970342
-1.02899
-0.366385
-0.370142
-0.38916
-0.418379
-0.456238
-0.501173
-0.551464
-0.605612
-0.662327
-0.72081
-0.780601
-0.840953
-0.901473
-0.963475
-1.01938
-0.36509
-0.370631
-0.390722
-0.420326
-0.457959
-0.502273
-0.551673
-0.604819
-0.660421
-0.717589
-0.77599
-0.834798
-0.892629
-0.953
-1.00578
-0.362121
-0.369005
-0.389488
-0.419142
-0.456496
-0.500226
-0.548769
-0.600881
-0.65536
-0.71115
-0.76798
-0.82556
-0.880284
-0.939106
-0.988285
-0.359028
-0.366252
-0.385908
-0.415076
-0.452003
-0.495085
-0.542733
-0.593727
-0.647043
-0.701472
-0.756357
-0.813138
-0.864663
-0.921943
-0.967553
-0.357057
-0.362986
-0.380338
-0.408446
-0.444728
-0.486993
-0.533613
-0.583333
-0.635332
-0.688556
-0.740975
-0.797213
-0.845848
-0.901471
-0.944533
-0.356409
-0.359034
-0.373016
-0.399643
-0.434964
-0.476141
-0.521532
-0.569786
-0.620091
-0.672335
-0.721872
-0.777419
-0.823714
-0.877083
-0.919225
-0.355916
-0.353407
-0.364249
-0.389132
-0.423022
-0.462757
-0.506659
-0.553307
-0.601286
-0.652627
-0.699235
-0.753557
-0.798445
-0.848481
-0.890421
-0.35382
-0.34562
-0.354768
-0.377422
-0.40924
-0.44716
-0.489202
-0.534181
-0.579096
-0.629184
-0.673205
-0.72543
-0.770301
-0.816602
-0.858
-0.349281
-0.337298
-0.345609
-0.365021
-0.394049
-0.42983
-0.469462
-0.512629
-0.553958
-0.601908
-0.643977
-0.692904
-0.738775
-0.782603
-0.822984
-0.342775
-0.331192
-0.33728
-0.352493
-0.378097
-0.411442
-0.447937
-0.488809
-0.526444
-0.570885
-0.611973
-0.656378
-0.703369
-0.746339
-0.786036
-0.335769
-0.327787
-0.329546
-0.340604
-0.36231
-0.392822
-0.425381
-0.462922
-0.4972
-0.536378
-0.577572
-0.616615
-0.664902
-0.707595
-0.747921
-0.329754
-0.325404
-0.322671
-0.330476
-0.34781
-0.374811
-0.402831
-0.435372
-0.466814
-0.498897
-0.541068
-0.574706
-0.624733
-0.666935
-0.709735
-0.325439
-0.322538
-0.31799
-0.323011
-0.335719
-0.358255
-0.381486
-0.407022
-0.435695
-0.459719
-0.501939
-0.532078
-0.583419
-0.624796
-0.673935
-0.322619
-0.319969
-0.315958
-0.318236
-0.326894
-0.344057
-0.362455
-0.379264
-0.403906
-0.421026
-0.459575
-0.489584
-0.540605
-0.5815
-0.643844
-0.320804
-0.318195
-0.31536
-0.315847
-0.321703
-0.333096
-0.346306
-0.354256
-0.371555
-0.384591
-0.414597
-0.448188
-0.494529
-0.540637
-0.611095
-0.319543
-0.317239
-0.315395
-0.315536
-0.319788
-0.32588
-0.333066
-0.333463
-0.340224
-0.350501
-0.372057
-0.408541
-0.45174
-0.503588
-0.567967
-0.318545
-0.316802
-0.316054
-0.316752
-0.320029
-0.321981
-0.322773
-0.316648
-0.312946
-0.31838
-0.335088
-0.371554
-0.416715
-0.471546
-0.528487
-0.31756
-0.316582
-0.317037
-0.318479
-0.32108
-0.320021
-0.315079
-0.302938
-0.290248
-0.289575
-0.303816
-0.340522
-0.386966
-0.444013
-0.496458
-0.316379
-0.316255
-0.317811
-0.319891
-0.321892
-0.318544
-0.308806
-0.291146
-0.271424
-0.265226
-0.278062
-0.314627
-0.36301
-0.419131
-0.468049
-0.31486
-0.315528
-0.317874
-0.320351
-0.321609
-0.31644
-0.302808
-0.2804
-0.255318
-0.245481
-0.257461
-0.293818
-0.344174
-0.396169
-0.441913
-0.312988
-0.314298
-0.316985
-0.319598
-0.319967
-0.313182
-0.296694
-0.269689
-0.241064
-0.229515
-0.242777
-0.279382
-0.328374
-0.375677
-0.418129
-0.310952
-0.312661
-0.315294
-0.317748
-0.317157
-0.308705
-0.28956
-0.259809
-0.229708
-0.217964
-0.235068
-0.270721
-0.3154
-0.357905
-0.396791
-0.309146
-0.311039
-0.313394
-0.315503
-0.313936
-0.304259
-0.284001
-0.253158
-0.22301
-0.214425
-0.233155
-0.266202
-0.305336
-0.342823
-0.378082
-0.308082
-0.31005
-0.312168
-0.314082
-0.312119
-0.302173
-0.282303
-0.251192
-0.223634
-0.217696
-0.23539
-0.264515
-0.297913
-0.330369
-0.361656
-0.308161
-0.310201
-0.312334
-0.314551
-0.313112
-0.3036
-0.284679
-0.25393
-0.230129
-0.225411
-0.240367
-0.264755
-0.292612
-0.32001
-0.347287
-0.309506
-0.31166
-0.314086
-0.317053
-0.316948
-0.308498
-0.287137
-0.261291
-0.240078
-0.235446
-0.246798
-0.266161
-0.288738
-0.311381
-0.334737
-0.311991
-0.314282
-0.31717
-0.321212
-0.32318
-0.316261
-0.292519
-0.269627
-0.251138
-0.245973
-0.253552
-0.26806
-0.285818
-0.304035
-0.323622
-0.315259
-0.317682
-0.321065
-0.326396
-0.331365
-0.322441
-0.301578
-0.278223
-0.261334
-0.25558
-0.259807
-0.27001
-0.283415
-0.297623
-0.31377
-0.318916
-0.321439
-0.32517
-0.332013
-0.340446
-0.32899
-0.309625
-0.286521
-0.270141
-0.263619
-0.265078
-0.27162
-0.281225
-0.291877
-0.304862
-0.322566
-0.325166
-0.328834
-0.337974
-0.34503
-0.336548
-0.315925
-0.293431
-0.277282
-0.26988
-0.269074
-0.272664
-0.279025
-0.286562
-0.296709
-0.325885
-0.328521
-0.331493
-0.343858
-0.345268
-0.340608
-0.320402
-0.298728
-0.282732
-0.274428
-0.271785
-0.272997
-0.276636
-0.28151
-0.289127
-0.328677
-0.331096
-0.33327
-0.346901
-0.345358
-0.340703
-0.322457
-0.302202
-0.286536
-0.277451
-0.27328
-0.272581
-0.273969
-0.276595
-0.28194
-0.330927
-0.332465
-0.335414
-0.344814
-0.346619
-0.339508
-0.322697
-0.304029
-0.288875
-0.279153
-0.273719
-0.271446
-0.270958
-0.271712
-0.275043
-0.332624
-0.333044
-0.33743
-0.338406
-0.345617
-0.337433
-0.321612
-0.304419
-0.289881
-0.27972
-0.273241
-0.269645
-0.267602
-0.266807
-0.268329
-0.333843
-0.332927
-0.338758
-0.332087
-0.341057
-0.334194
-0.319697
-0.30377
-0.289812
-0.27933
-0.27199
-0.267265
-0.263904
-0.261824
-0.261752
-0.334635
-0.332944
-0.337744
-0.331285
-0.336125
-0.330241
-0.317153
-0.302314
-0.288842
-0.278123
-0.270069
-0.264366
-0.259894
-0.256737
-0.255273
-0.335158
-0.334366
-0.333792
-0.334621
-0.33327
-0.326279
-0.314146
-0.300229
-0.287163
-0.276242
-0.267579
-0.261023
-0.255594
-0.25152
-0.248856
-0.335623
-0.337618
-0.327563
-0.336193
-0.331769
-0.322925
-0.310988
-0.297677
-0.284894
-0.273783
-0.264589
-0.257278
-0.251026
-0.246156
-0.242448
-0.336313
-0.341543
-0.323406
-0.334163
-0.329952
-0.320081
-0.3079
-0.294822
-0.282161
-0.270841
-0.261165
-0.25318
-0.246204
-0.240631
-0.236
-0.337662
-0.344225
-0.325641
-0.33123
-0.3274
-0.31738
-0.304927
-0.291792
-0.279065
-0.26748
-0.25735
-0.248753
-0.241139
-0.234932
-0.229473
-0.340111
-0.344738
-0.333758
-0.33074
-0.324864
-0.314604
-0.30194
-0.288607
-0.275667
-0.263761
-0.253183
-0.244024
-0.235838
-0.229057
-0.222866
-0.344079
-0.343082
-0.342374
-0.333158
-0.323355
-0.311911
-0.298865
-0.285248
-0.271998
-0.259713
-0.248687
-0.239003
-0.230303
-0.223006
-0.216183
-0.350314
-0.340451
-0.34844
-0.33664
-0.323061
-0.309577
-0.295714
-0.281668
-0.268041
-0.255351
-0.24388
-0.233703
-0.224538
-0.216783
-0.209441
-0.358962
-0.340676
-0.351562
-0.339718
-0.323428
-0.307663
-0.292558
-0.277867
-0.263787
-0.250669
-0.23876
-0.228125
-0.218543
-0.210388
-0.202633
-0.369207
-0.347023
-0.353386
-0.341705
-0.323746
-0.305949
-0.289392
-0.273848
-0.25922
-0.245656
-0.233325
-0.222266
-0.212314
-0.203819
-0.195737
-0.380174
-0.359378
-0.355985
-0.342588
-0.323456
-0.304076
-0.286117
-0.269606
-0.254342
-0.240305
-0.227564
-0.216118
-0.205841
-0.197058
-0.188708
-0.390208
-0.374049
-0.360142
-0.342801
-0.322323
-0.301732
-0.282571
-0.265092
-0.24914
-0.234607
-0.221468
-0.209666
-0.199108
-0.190087
-0.181514
-0.397512
-0.38645
-0.36493
-0.342744
-0.320397
-0.298745
-0.278602
-0.260241
-0.243602
-0.22856
-0.215025
-0.202894
-0.19209
-0.182876
-0.174137
-0.401079
-0.394381
-0.368545
-0.342337
-0.317853
-0.295101
-0.274115
-0.254983
-0.237693
-0.222149
-0.208227
-0.195782
-0.184757
-0.175398
-0.16657
-0.401293
-0.397868
-0.370217
-0.34127
-0.314789
-0.290866
-0.269079
-0.249264
-0.231383
-0.215362
-0.201063
-0.188317
-0.177088
-0.167618
-0.158774
-0.399853
-0.398108
-0.369954
-0.339325
-0.311197
-0.286095
-0.263502
-0.243055
-0.224639
-0.208177
-0.193522
-0.180491
-0.169071
-0.159504
-0.150666
-0.398187
-0.396486
-0.368093
-0.33643
-0.307013
-0.280799
-0.257396
-0.236342
-0.217438
-0.200575
-0.185591
-0.172302
-0.160716
-0.151049
-0.142103
-0.397151
-0.394044
-0.365048
-0.332618
-0.302175
-0.274957
-0.250759
-0.229114
-0.209756
-0.192531
-0.177254
-0.163747
-0.152041
-0.142294
-0.132942
-0.397009
-0.39132
-0.361143
-0.327959
-0.296643
-0.268527
-0.243572
-0.221359
-0.201579
-0.184028
-0.168497
-0.154822
-0.143066
-0.13331
-0.123128
-0.397618
-0.388534
-0.356599
-0.322522
-0.290387
-0.26146
-0.235802
-0.213055
-0.192887
-0.175052
-0.159312
-0.145525
-0.133801
-0.124115
-0.112821
-0.398585
-0.385718
-0.35152
-0.316341
-0.283379
-0.253706
-0.227409
-0.204175
-0.183668
-0.1656
-0.149703
-0.135868
-0.124269
-0.114578
-0.102428
-0.399386
-0.38277
-0.345915
-0.309415
-0.275582
-0.245213
-0.218347
-0.194693
-0.173911
-0.155679
-0.139692
-0.125881
-0.114489
-0.10449
-0.0921451
-0.399522
-0.379386
-0.339683
-0.301697
-0.26695
-0.235933
-0.20858
-0.184591
-0.163617
-0.145301
-0.129301
-0.115618
-0.104358
-0.0939353
-0.0818937
-0.398607
-0.375071
-0.332645
-0.293111
-0.257438
-0.225832
-0.19809
-0.17387
-0.152799
-0.134471
-0.11853
-0.105027
-0.0938243
-0.0830652
-0.0715713
-0.396273
-0.369455
-0.324588
-0.283562
-0.247001
-0.214891
-0.186883
-0.162546
-0.141468
-0.123161
-0.107364
-0.0940715
-0.0828841
-0.0719797
-0.061108
-0.392233
-0.362288
-0.315322
-0.272955
-0.235608
-0.203121
-0.174978
-0.150628
-0.129572
-0.111374
-0.0957959
-0.0827354
-0.071575
-0.0607117
-0.0504783
-0.386264
-0.353398
-0.304687
-0.261209
-0.223254
-0.190545
-0.162371
-0.138059
-0.117112
-0.0991162
-0.0838221
-0.0710253
-0.0599556
-0.049254
-0.0396863
-0.378219
-0.342696
-0.292567
-0.248262
-0.209959
-0.177158
-0.149007
-0.124832
-0.104096
-0.0863934
-0.0714485
-0.0589587
-0.0480599
-0.0376066
-0.0287499
-0.368015
-0.33017
-0.278875
-0.2341
-0.195718
-0.16289
-0.134878
-0.110951
-0.0905345
-0.0732179
-0.0586886
-0.0465557
-0.0359039
-0.0257758
-0.0176802
-0.355624
-0.315891
-0.263565
-0.218757
-0.18041
-0.147733
-0.119993
-0.0964311
-0.0764442
-0.0596059
-0.0455609
-0.0338351
-0.0234933
-0.0137648
-0.00648571
-0.341058
-0.299946
-0.246664
-0.20212
-0.164036
-0.131698
-0.104371
-0.0812936
-0.0618449
-0.0455782
-0.0320863
-0.0208143
-0.0108349
-0.00157514
0.00480487
-0.324365
-0.282318
-0.2283
-0.184143
-0.14661
-0.114809
-0.0880382
-0.0655639
-0.0467603
-0.0311563
-0.0182833
-0.00750919
0.00205402
0.0107683
0.0161354
-0.305635
-0.262765
-0.208651
-0.164945
-0.128166
-0.0970922
-0.0710246
-0.0492722
-0.0312171
-0.0163602
-0.00416395
0.00606661
0.0151359
0.0231858
0.0274529
-0.28501
-0.240943
-0.187949
-0.144688
-0.10877
-0.0785866
-0.0533654
-0.0324525
-0.0152434
-0.00120623
0.0102673
0.0199027
0.0283563
0.0355409
0.0386732
-0.262636
-0.217105
-0.166009
-0.123485
-0.088508
-0.0593424
-0.0351013
-0.0151418
0.00113215
0.0142916
0.0250086
0.0339864
0.0416555
0.0476719
0.0494954
-0.238552
-0.191709
-0.142758
-0.101384
-0.0674641
-0.0394223
-0.0162799
0.00261984
0.0178803
0.0301178
0.0400496
0.0482882
0.054967
0.0594109
0.0593359
-0.212672
-0.165292
-0.118303
-0.0784043
-0.0457078
-0.0188946
0.00304429
0.02079
0.0349701
0.046249
0.0553562
0.0627428
0.0681953
0.0706209
0.0679675
-0.185086
-0.138083
-0.0928288
-0.054592
-0.0233011
0.00217129
0.0228124
0.0393233
0.0523674
0.0626491
0.0708613
0.077241
0.081225
0.0814104
0.07649
-0.156042
-0.110059
-0.0665044
-0.0300377
-0.00031075
0.0237063
0.042963
0.0581712
0.0700316
0.0792665
0.0864763
0.0916631
0.0940046
0.092352
0.0872328
-0.125775
-0.0812272
-0.0394639
-0.00485425
0.023184
0.0456399
0.0634333
0.0772812
0.0879125
0.0960368
0.102119
0.105951
0.106644
0.103769
0.102213
-0.0944995
-0.0516603
-0.0118235
0.0208428
0.0470943
0.0678979
0.0841585
0.0965956
0.105951
0.11289
0.117734
0.120144
0.119389
0.115956
0.11679
-0.0624072
-0.0214729
0.0163035
0.0469406
0.0713251
0.0904019
0.105071
0.116052
0.124081
0.12976
0.133294
0.134317
0.132396
0.128851
0.130536
-0.0296811
0.00919672
0.0447994
0.0733287
0.0957798
0.11307
0.126099
0.135582
0.142236
0.146595
0.14879
0.148505
0.145605
0.141959
0.143499
0.00350344
0.0402022
0.0735417
0.0998975
0.12036
0.135819
0.147168
0.155117
0.160355
0.163355
0.164218
0.162717
0.158976
0.15509
0.155916
0.0369745
0.0713952
0.102404
0.126536
0.14497
0.158562
0.168202
0.174588
0.178378
0.18
0.17955
0.176889
0.172324
0.168006
0.16798
0.0705641
0.102629
0.131261
0.153135
0.169509
0.181212
0.189124
0.193926
0.196249
0.196493
0.19476
0.190988
0.185601
0.18069
0.179736
0.104107
0.13376
0.159984
0.179583
0.193882
0.203682
0.209855
0.213063
0.213914
0.212784
0.209787
0.204917
0.198682
0.193109
0.191228
0.137444
0.164646
0.188451
0.20577
0.21799
0.225887
0.23032
0.231934
0.231316
0.228829
0.224594
0.218646
0.211541
0.20524
0.202427
0.170415
0.195151
0.216538
0.231588
0.241739
0.247742
0.250442
0.250472
0.248398
0.244568
0.23911
0.232093
0.224121
0.217086
0.21333
0.202871
0.22514
0.244127
0.256932
0.265033
0.269161
0.270149
0.268612
0.265103
0.259956
0.253299
0.245231
0.236385
0.228588
0.223896
0.234661
0.254486
0.271102
0.281698
0.287782
0.290065
0.289366
0.28629
0.28137
0.274928
0.267096
0.258001
0.248306
0.23975
0.234106
0.265645
0.283061
0.297352
0.305787
0.309895
0.310372
0.308025
0.303443
0.297147
0.289443
0.280467
0.270367
0.25983
0.250511
0.243927
0.295685
0.310747
0.32277
0.329101
0.331287
0.330007
0.326056
0.320009
0.312372
0.303442
0.293357
0.282293
0.270945
0.260862
0.253331
0.324651
0.337429
0.347251
0.351549
0.351875
0.348895
0.343392
0.33593
0.326999
0.316883
0.305728
0.29373
0.281594
0.270759
0.262294
0.352417
0.362995
0.370697
0.373042
0.371579
0.366965
0.35997
0.351147
0.34097
0.329718
0.317541
0.304656
0.29176
0.280177
0.270789
0.378865
0.387344
0.393016
0.393496
0.390325
0.38415
0.375731
0.365607
0.354241
0.341902
0.32875
0.315021
0.301401
0.28909
0.278796
0.403884
0.410376
0.41412
0.412832
0.40804
0.400385
0.390614
0.379257
0.366763
0.353397
0.339327
0.324803
0.310489
0.297467
0.286293
0.427369
0.432
0.433925
0.430975
0.424659
0.415611
0.404569
0.39205
0.378493
0.36416
0.34923
0.333964
0.318996
0.305288
0.293262
0.449223
0.45213
0.452356
0.447857
0.440118
0.429771
0.417542
0.403939
0.389392
0.37416
0.35843
0.342475
0.326893
0.312528
0.299686
0.469355
0.470688
0.469342
0.463414
0.454361
0.442813
0.429488
0.414883
0.39942
0.383358
0.366896
0.350308
0.334155
0.319167
0.305552
0.487683
0.487604
0.484819
0.477588
0.467335
0.454691
0.440364
0.424845
0.408546
0.391728
0.374599
0.357438
0.34076
0.325187
0.310848
0.50413
0.502817
0.498732
0.490326
0.478992
0.465359
0.450131
0.433787
0.416736
0.399239
0.381514
0.363839
0.346684
0.33057
0.315563
0.518634
0.516271
0.51103
0.501579
0.489287
0.474781
0.458754
0.441681
0.423964
0.405867
0.387618
0.369492
0.35191
0.335304
0.319689
0.531154
0.527906
0.521662
0.511306
0.498184
0.48292
0.466202
0.448497
0.430204
0.411589
0.39289
0.374375
0.356421
0.339376
0.323222
0.541661
0.537665
0.530586
0.519467
0.505649
0.489748
0.472449
0.454214
0.435436
0.416387
0.397312
0.378472
0.360201
0.342777
0.326159
0.550119
0.545512
0.537765
0.526033
0.511653
0.495241
0.477474
0.45881
0.439643
0.420245
0.400868
0.381768
0.363238
0.345499
0.328502
0.556493
0.551419
0.543171
0.530979
0.516176
0.499377
0.481257
0.462271
0.44281
0.42315
0.403546
0.38425
0.365523
0.347541
0.330253
0.560757
0.555368
0.546786
0.534286
0.519201
0.502143
0.483787
0.464585
0.444927
0.425092
0.405337
0.38591
0.36705
0.3489
0.331417
0.562894
0.557346
0.548597
0.535943
0.520715
0.503528
0.485054
0.465744
0.445987
0.426064
0.406234
0.386742
0.367814
0.34958
0.331998
0.562894
0.557346
0.548597
0.535943
0.520716
0.503528
0.485054
0.465744
0.445987
0.426064
0.406234
0.386742
0.367814
0.34958
0.331998
0.560757
0.555368
0.546787
0.534286
0.519201
0.502143
0.483787
0.464585
0.444927
0.425092
0.405337
0.38591
0.36705
0.348901
0.331418
0.556493
0.551419
0.543172
0.530979
0.516176
0.499377
0.481258
0.462272
0.44281
0.42315
0.403547
0.384251
0.365524
0.347541
0.330253
0.550119
0.545512
0.537765
0.526034
0.511654
0.495241
0.477474
0.458811
0.439643
0.420245
0.400868
0.381768
0.363239
0.3455
0.328502
0.541662
0.537666
0.530586
0.519468
0.505649
0.489749
0.47245
0.454214
0.435436
0.416388
0.397312
0.378472
0.360201
0.342777
0.326159
0.531155
0.527907
0.521663
0.511306
0.498185
0.482921
0.466202
0.448498
0.430204
0.41159
0.39289
0.374375
0.356421
0.339377
0.323222
0.518635
0.516272
0.51103
0.50158
0.489288
0.474781
0.458754
0.441681
0.423964
0.405867
0.387618
0.369492
0.351911
0.335305
0.31969
0.504131
0.502818
0.498733
0.490326
0.478992
0.46536
0.450131
0.433788
0.416737
0.399239
0.381515
0.36384
0.346685
0.330571
0.315563
0.487684
0.487605
0.48482
0.477589
0.467336
0.454691
0.440365
0.424846
0.408547
0.391728
0.374599
0.357438
0.34076
0.325187
0.310848
0.469356
0.470689
0.469343
0.463415
0.454362
0.442814
0.429489
0.414884
0.399421
0.383359
0.366896
0.350309
0.334156
0.319168
0.305553
0.449224
0.452131
0.452357
0.447858
0.440119
0.429772
0.417543
0.40394
0.389393
0.37416
0.358431
0.342475
0.326894
0.312529
0.299687
0.42737
0.432001
0.433927
0.430977
0.42466
0.415612
0.40457
0.392051
0.378494
0.364161
0.34923
0.333965
0.318997
0.305289
0.293262
0.403885
0.410377
0.414121
0.412833
0.408041
0.400386
0.390615
0.379258
0.366764
0.353398
0.339328
0.324804
0.31049
0.297468
0.286293
0.378867
0.387345
0.393018
0.393497
0.390326
0.384151
0.375732
0.365608
0.354242
0.341902
0.328751
0.315022
0.301401
0.289091
0.278797
0.352419
0.362997
0.370699
0.373044
0.371581
0.366966
0.359972
0.351148
0.340971
0.329719
0.317542
0.304657
0.291761
0.280178
0.27079
0.324653
0.33743
0.347252
0.351551
0.351876
0.348896
0.343394
0.335932
0.327
0.316885
0.305729
0.293731
0.281595
0.27076
0.262295
0.295687
0.310749
0.322771
0.329103
0.331289
0.330008
0.326057
0.32001
0.312373
0.303443
0.293358
0.282294
0.270946
0.260863
0.253332
0.265647
0.283063
0.297354
0.305789
0.309897
0.310374
0.308027
0.303445
0.297148
0.289444
0.280468
0.270368
0.259831
0.250512
0.243928
0.234664
0.254488
0.271104
0.2817
0.287783
0.290066
0.289368
0.286291
0.281371
0.274929
0.267097
0.258002
0.248307
0.239751
0.234107
0.202873
0.225143
0.244129
0.256934
0.265035
0.269163
0.27015
0.268613
0.265104
0.259957
0.253301
0.245232
0.236386
0.228589
0.223897
0.170418
0.195153
0.21654
0.23159
0.241741
0.247743
0.250444
0.250473
0.248399
0.24457
0.239111
0.232095
0.224123
0.217087
0.213331
0.137446
0.164648
0.188453
0.205772
0.217992
0.225889
0.230321
0.231936
0.231318
0.228831
0.224596
0.218648
0.211543
0.205241
0.202428
0.10411
0.133762
0.159987
0.179585
0.193884
0.203684
0.209857
0.213065
0.213915
0.212786
0.209789
0.204919
0.198683
0.19311
0.191229
0.0705668
0.102632
0.131263
0.153137
0.169511
0.181214
0.189126
0.193928
0.196251
0.196495
0.194762
0.190989
0.185602
0.180691
0.179738
0.0369773
0.0713978
0.102407
0.126539
0.144972
0.158564
0.168204
0.17459
0.178379
0.180002
0.179552
0.17689
0.172326
0.168008
0.167982
0.00350641
0.0402049
0.0735443
0.0998999
0.120363
0.135821
0.14717
0.155119
0.160356
0.163356
0.164219
0.162718
0.158977
0.155091
0.155918
-0.029678
0.00919959
0.0448021
0.0733312
0.0957821
0.113073
0.126101
0.135584
0.142238
0.146597
0.148792
0.148506
0.145607
0.141961
0.143501
-0.0624041
-0.0214699
0.0163063
0.0469432
0.0713276
0.0904042
0.105073
0.116054
0.124083
0.129762
0.133296
0.134318
0.132397
0.128853
0.130537
-0.0944962
-0.0516572
-0.0118206
0.0208455
0.0470968
0.0679002
0.0841608
0.0965977
0.105953
0.112892
0.117736
0.120145
0.11939
0.115958
0.116792
-0.125772
-0.0812241
-0.0394609
-0.00485147
0.0231866
0.0456424
0.0634357
0.0772834
0.0879146
0.0960388
0.102121
0.105953
0.106646
0.103771
0.102215
-0.156038
-0.110055
-0.0665014
-0.0300349
-0.000308061
0.0237089
0.0429654
0.0581734
0.0700337
0.0792686
0.0864783
0.091665
0.0940064
0.0923538
0.0872346
-0.185083
-0.138079
-0.0928256
-0.054589
-0.0232983
0.0021739
0.0228149
0.0393256
0.0523697
0.0626512
0.0708633
0.077243
0.0812269
0.0814122
0.0764918
-0.212669
-0.165288
-0.118299
-0.0784012
-0.045705
-0.0188919
0.00304683
0.0207924
0.0349724
0.0462512
0.0553583
0.0627448
0.0681972
0.0706227
0.0679693
-0.238548
-0.191705
-0.142754
-0.101381
-0.0674612
-0.0394195
-0.0162773
0.00262232
0.0178826
0.03012
0.0400518
0.0482902
0.054969
0.0594128
0.0593378
-0.262632
-0.217101
-0.166005
-0.123482
-0.088505
-0.0593396
-0.0350986
-0.0151393
0.00113457
0.0142939
0.0250108
0.0339885
0.0416576
0.0476739
0.0494973
-0.285006
-0.240939
-0.187946
-0.144684
-0.108767
-0.0785837
-0.0533626
-0.0324499
-0.0152409
-0.00120385
0.0102695
0.0199049
0.0283584
0.0355429
0.0386751
-0.305631
-0.262761
-0.208647
-0.164941
-0.128163
-0.0970893
-0.0710218
-0.0492695
-0.0312146
-0.0163578
-0.00416162
0.00606884
0.015138
0.0231879
0.0274549
-0.324361
-0.282315
-0.228296
-0.18414
-0.146607
-0.114806
-0.0880353
-0.0655612
-0.0467577
-0.0311538
-0.0182809
-0.0075069
0.00205621
0.0107704
0.0161374
-0.341054
-0.299942
-0.246661
-0.202116
-0.164033
-0.131695
-0.104368
-0.0812908
-0.0618422
-0.0455757
-0.0320839
-0.020812
-0.0108327
-0.00157299
0.00480694
-0.35562
-0.315887
-0.263561
-0.218753
-0.180406
-0.14773
-0.11999
-0.0964283
-0.0764415
-0.0596033
-0.0455584
-0.0338327
-0.023491
-0.0137626
-0.00648359
-0.36801
-0.330166
-0.278871
-0.234096
-0.195715
-0.162887
-0.134875
-0.110948
-0.0905317
-0.0732152
-0.058686
-0.0465532
-0.0359015
-0.0257735
-0.017678
-0.378215
-0.342692
-0.292563
-0.248258
-0.209955
-0.177155
-0.149004
-0.124829
-0.104093
-0.0863907
-0.0714459
-0.0589562
-0.0480576
-0.0376043
-0.0287477
-0.38626
-0.353394
-0.304683
-0.261205
-0.22325
-0.190542
-0.162368
-0.138056
-0.117109
-0.0991134
-0.0838195
-0.0710228
-0.0599531
-0.0492517
-0.0396841
-0.392229
-0.362283
-0.315318
-0.272952
-0.235605
-0.203117
-0.174975
-0.150625
-0.129569
-0.111372
-0.0957932
-0.0827328
-0.0715725
-0.0607093
-0.050476
-0.396268
-0.36945
-0.324584
-0.283558
-0.246997
-0.214888
-0.18688
-0.162543
-0.141465
-0.123158
-0.107362
-0.0940688
-0.0828816
-0.0719773
-0.0611056
-0.398602
-0.375067
-0.332641
-0.293107
-0.257434
-0.225828
-0.198087
-0.173867
-0.152796
-0.134468
-0.118527
-0.105024
-0.0938217
-0.0830627
-0.0715689
-0.399517
-0.379381
-0.339679
-0.301693
-0.266946
-0.23593
-0.208577
-0.184588
-0.163614
-0.145298
-0.129298
-0.115615
-0.104355
-0.0939328
-0.0818913
-0.399381
-0.382765
-0.34591
-0.309411
-0.275578
-0.245209
-0.218343
-0.19469
-0.173908
-0.155676
-0.139689
-0.125878
-0.114486
-0.104487
-0.0921426
-0.39858
-0.385714
-0.351515
-0.316337
-0.283375
-0.253702
-0.227405
-0.204172
-0.183665
-0.165597
-0.1497
-0.135865
-0.124266
-0.114576
-0.102425
-0.397614
-0.38853
-0.356594
-0.322518
-0.290383
-0.261457
-0.235799
-0.213052
-0.192884
-0.175049
-0.159309
-0.145522
-0.133798
-0.124113
-0.112819
-0.397004
-0.391316
-0.361139
-0.327955
-0.296639
-0.268523
-0.243568
-0.221355
-0.201575
-0.184025
-0.168494
-0.154819
-0.143063
-0.133307
-0.123125
-0.397146
-0.39404
-0.365043
-0.332614
-0.302171
-0.274953
-0.250755
-0.229111
-0.209753
-0.192527
-0.177251
-0.163744
-0.152038
-0.142291
-0.13294
-0.398183
-0.396481
-0.368089
-0.336426
-0.307008
-0.280796
-0.257392
-0.236338
-0.217434
-0.200571
-0.185588
-0.172299
-0.160713
-0.151046
-0.1421
-0.399848
-0.398103
-0.36995
-0.339321
-0.311193
-0.286091
-0.263499
-0.243052
-0.224636
-0.208174
-0.193518
-0.180488
-0.169068
-0.159501
-0.150663
-0.401289
-0.397864
-0.370212
-0.341266
-0.314785
-0.290862
-0.269075
-0.249261
-0.23138
-0.215359
-0.201059
-0.188314
-0.177085
-0.167615
-0.158771
-0.401075
-0.394376
-0.368541
-0.342332
-0.317849
-0.295097
-0.274111
-0.254979
-0.237689
-0.222146
-0.208223
-0.195779
-0.184754
-0.175395
-0.166567
-0.397507
-0.386445
-0.364925
-0.34274
-0.320393
-0.298741
-0.278599
-0.260238
-0.243598
-0.228557
-0.215021
-0.202891
-0.192087
-0.182873
-0.174134
-0.390203
-0.374044
-0.360138
-0.342796
-0.322319
-0.301728
-0.282568
-0.265088
-0.249136
-0.234604
-0.221464
-0.209663
-0.199105
-0.190084
-0.181511
-0.380169
-0.359373
-0.35598
-0.342583
-0.323452
-0.304072
-0.286113
-0.269602
-0.254338
-0.240302
-0.227561
-0.216115
-0.205838
-0.197055
-0.188706
-0.369202
-0.347018
-0.353382
-0.341701
-0.323742
-0.305945
-0.289388
-0.273844
-0.259216
-0.245652
-0.233322
-0.222263
-0.21231
-0.203816
-0.195735
-0.358957
-0.340672
-0.351557
-0.339713
-0.323424
-0.307659
-0.292554
-0.277864
-0.263784
-0.250666
-0.238757
-0.228122
-0.21854
-0.210385
-0.20263
-0.350309
-0.340447
-0.348436
-0.336635
-0.323056
-0.309573
-0.29571
-0.281664
-0.268037
-0.255347
-0.243876
-0.2337
-0.224535
-0.216779
-0.209438
-0.344075
-0.343077
-0.342369
-0.333153
-0.323351
-0.311907
-0.298861
-0.285244
-0.271994
-0.25971
-0.248684
-0.239
-0.2303
-0.223003
-0.21618
-0.340106
-0.344733
-0.333753
-0.330735
-0.324859
-0.3146
-0.301936
-0.288603
-0.275663
-0.263757
-0.25318
-0.24402
-0.235834
-0.229054
-0.222863
-0.337658
-0.344221
-0.325637
-0.331225
-0.327395
-0.317375
-0.304923
-0.291788
-0.279061
-0.267476
-0.257346
-0.24875
-0.241136
-0.234929
-0.22947
-0.336309
-0.341538
-0.323402
-0.334158
-0.329948
-0.320077
-0.307896
-0.294818
-0.282158
-0.270837
-0.261161
-0.253177
-0.246201
-0.240628
-0.235997
-0.335619
-0.337613
-0.327559
-0.336189
-0.331765
-0.322921
-0.310984
-0.297673
-0.28489
-0.273779
-0.264585
-0.257275
-0.251022
-0.246153
-0.242445
-0.335153
-0.334362
-0.333787
-0.334616
-0.333265
-0.326275
-0.314142
-0.300225
-0.287158
-0.276238
-0.267575
-0.26102
-0.25559
-0.251517
-0.248853
-0.33463
-0.332939
-0.337739
-0.33128
-0.336121
-0.330237
-0.317149
-0.30231
-0.288838
-0.278119
-0.270065
-0.264363
-0.259891
-0.256734
-0.25527
-0.333839
-0.332923
-0.338753
-0.332083
-0.341052
-0.33419
-0.319692
-0.303766
-0.289808
-0.279326
-0.271986
-0.267262
-0.2639
-0.26182
-0.261749
-0.33262
-0.333039
-0.337425
-0.338402
-0.345613
-0.337428
-0.321608
-0.304415
-0.289877
-0.279716
-0.273237
-0.269641
-0.267598
-0.266804
-0.268326
-0.330923
-0.332461
-0.33541
-0.34481
-0.346615
-0.339503
-0.322692
-0.304025
-0.288871
-0.279149
-0.273715
-0.271442
-0.270954
-0.271709
-0.275039
-0.328672
-0.331091
-0.333266
-0.346897
-0.345353
-0.340699
-0.322453
-0.302197
-0.286532
-0.277446
-0.273276
-0.272577
-0.273966
-0.276592
-0.281936
-0.325881
-0.328517
-0.331489
-0.343854
-0.345263
-0.340603
-0.320398
-0.298723
-0.282727
-0.274423
-0.271781
-0.272993
-0.276632
-0.281507
-0.289124
-0.322561
-0.325162
-0.328829
-0.337969
-0.345026
-0.336543
-0.31592
-0.293427
-0.277277
-0.269876
-0.26907
-0.27266
-0.279021
-0.286558
-0.296706
-0.318911
-0.321435
-0.325165
-0.332008
-0.340441
-0.328985
-0.30962
-0.286516
-0.270136
-0.263614
-0.265073
-0.271616
-0.281221
-0.291873
-0.304858
-0.315255
-0.317677
-0.32106
-0.326392
-0.33136
-0.322437
-0.301573
-0.278218
-0.261329
-0.255575
-0.259803
-0.270005
-0.283411
-0.297619
-0.313766
-0.311986
-0.314278
-0.317165
-0.321208
-0.323175
-0.316256
-0.292514
-0.269622
-0.251133
-0.245968
-0.253548
-0.268056
-0.285814
-0.304032
-0.323619
-0.309502
-0.311656
-0.314082
-0.317049
-0.316944
-0.308493
-0.287132
-0.261285
-0.240073
-0.235441
-0.246793
-0.266157
-0.288735
-0.311377
-0.334734
-0.308157
-0.310197
-0.31233
-0.314547
-0.313108
-0.303595
-0.284675
-0.253925
-0.230124
-0.225406
-0.240362
-0.264751
-0.292608
-0.320006
-0.347284
-0.308078
-0.310046
-0.312164
-0.314077
-0.312115
-0.302169
-0.282298
-0.251187
-0.223629
-0.217691
-0.235386
-0.264511
-0.297909
-0.330366
-0.361653
-0.309142
-0.311035
-0.31339
-0.315499
-0.313932
-0.304255
-0.283997
-0.253153
-0.223005
-0.21442
-0.233151
-0.266198