/*--------------------------------*- C++ -*----------------------------------*\
  =========                 |
  \\      /  F ield         | OpenFOAM: The Open Source CFD Toolbox
   \\    /   O peration     | Website:  https://openfoam.org
    \\  /    A nd           | Version:  7
     \\/     M anipulation  |
\*---------------------------------------------------------------------------*/
FoamFile
{
    version     2.0;
    format      ascii;
    class       surfaceScalarField;
    location    "8.9991";
    object      phi;
}
// * * * * * * * * * * * * * * * * * * * * * * * * * * * * * * * * * * * * * //

dimensions      [0 3 -1 0 0 0 0];

internalField   nonuniform List<scalar> 
37105
(
-1.59017e-05
1.5903e-05
-1.28394e-09
-3.59255e-05
2.00254e-05
-1.57773e-09
-5.62925e-05
2.03685e-05
-1.55677e-09
-7.72591e-05
2.09681e-05
-1.51722e-09
-9.87651e-05
2.15075e-05
-1.43597e-09
-0.000120795
2.20311e-05
-1.33068e-09
-0.000143305
2.25109e-05
-1.2057e-09
-0.000166267
2.29635e-05
-1.06972e-09
-0.000189692
2.3426e-05
-9.27847e-10
-0.00021364
2.3949e-05
-7.82813e-10
-0.000238209
2.45694e-05
-6.31859e-10
-0.000263453
2.52445e-05
-4.68036e-10
-0.000289335
2.58824e-05
-2.80115e-10
-0.000315758
2.64231e-05
-5.55156e-11
2.69426e-05
1.94914e-10
-0.000342701
-1.56329e-05
3.15359e-05
-3.53957e-05
3.97882e-05
-5.54921e-05
4.0465e-05
-7.61517e-05
4.16278e-05
-9.73073e-05
4.2663e-05
-0.000118931
4.36553e-05
-0.000140972
4.45515e-05
-0.000163394
4.53855e-05
-0.000186198
4.62295e-05
-0.000209431
4.71829e-05
-0.000233186
4.83236e-05
-0.000257525
4.95836e-05
-0.000282434
5.07915e-05
-0.000307815
5.18048e-05
5.27459e-05
-0.000333619
-1.51035e-05
4.66394e-05
-3.43541e-05
5.90388e-05
-5.3923e-05
6.00339e-05
-7.39903e-05
6.16951e-05
-9.44775e-05
6.31502e-05
-0.000115336
6.45142e-05
-0.000136501
6.5716e-05
-0.000157924
6.68085e-05
-0.000179592
6.7898e-05
-0.000201539
6.91289e-05
-0.000223845
7.06303e-05
-0.000246597
7.23356e-05
-0.000269822
7.40165e-05
-0.000293422
7.5405e-05
7.65623e-05
-0.000317239
-1.43301e-05
6.09695e-05
-3.28345e-05
7.75432e-05
-5.16412e-05
7.88406e-05
-7.08678e-05
8.09216e-05
-9.04212e-05
8.27037e-05
-0.000110227
8.43202e-05
-0.000130205
8.56935e-05
-0.000150295
8.68992e-05
-0.000170478
8.80807e-05
-0.000190776
8.94264e-05
-0.000211273
9.11276e-05
-0.000232086
9.31483e-05
-0.000253298
9.52291e-05
-0.000274827
9.6934e-05
9.81451e-05
-0.00029641
-1.33448e-05
7.43142e-05
-3.08786e-05
9.50771e-05
-4.87159e-05
9.66779e-05
-6.68978e-05
9.91035e-05
-8.53128e-05
0.000101119
-0.00010386
0.000102867
-0.000122445
0.000104279
-0.000141008
0.000105462
-0.000159534
0.000106607
-0.000178054
0.000107946
-0.00019667
0.000109744
-0.000215537
0.000112015
-0.000234801
0.000114493
-0.00025442
0.000116553
0.000117785
-0.00027406
-1.22042e-05
8.65185e-05
-2.85288e-05
0.000111402
-4.52226e-05
0.000113372
-6.22032e-05
0.000116084
-7.93361e-05
0.000118252
-9.64957e-05
0.000120027
-0.000113585
0.000121368
-0.000130553
0.000122431
-0.000147412
0.000123465
-0.000164222
0.000124756
-0.000181113
0.000126635
-0.00019827
0.000129173
-0.000215875
0.000132098
-0.000233924
0.000134601
0.000135851
-0.00025199
-1.08345e-05
9.7353e-05
-2.58041e-05
0.000126371
-4.12342e-05
0.000128802
-5.69037e-05
0.000131754
-7.26635e-05
0.000134011
-8.8373e-05
0.000135736
-0.000103941
0.000136936
-0.000119338
0.000137828
-0.000134616
0.000138743
-0.000149877
0.000140016
-0.000165261
0.000142019
-0.000180939
0.000144851
-0.000197053
0.000148212
-0.000213576
0.000151123
0.000152243
-0.000229967
-9.26616e-06
0.000106619
-2.27365e-05
0.000139842
-3.68191e-05
0.000142884
-5.11063e-05
0.000146041
-6.54429e-05
0.000148348
-7.96858e-05
0.000149979
-9.37557e-05
0.000151006
-0.000107646
0.000151718
-0.000121442
0.00015254
-0.000135275
0.000153848
-0.00014926
0.000156005
-0.000163471
0.000159062
-0.000177924
0.000162666
-0.000192505
0.000165705
0.000166389
-0.000206651
-7.52461e-06
0.000114144
-1.93652e-05
0.000151682
-3.20418e-05
0.000155561
-4.49023e-05
0.000158901
-5.77941e-05
0.00016124
-7.05794e-05
0.000162764
-8.31891e-05
0.000163616
-9.56276e-05
0.000164156
-0.000107993
0.000164905
-0.000120406
0.000166262
-0.000132928
0.000168527
-0.000145478
0.000171611
-0.0001579
0.000175088
-0.000169972
0.000177776
0.000177685
-0.000181269
-5.6197e-06
0.000119763
-1.57277e-05
0.00016179
-2.69609e-05
0.000166794
-3.83656e-05
0.000170306
-4.98058e-05
0.00017268
-6.11519e-05
0.00017411
-7.23333e-05
0.000174797
-8.33462e-05
0.000175169
-9.42662e-05
0.000175825
-0.000105171
0.000177166
-0.000116046
0.000179402
-0.000126675
0.000182241
-0.000136707
0.00018512
-0.000145812
0.000186881
0.000185735
-0.000153862
-3.54715e-06
0.000123311
-1.18701e-05
0.000170113
-2.16251e-05
0.000176549
-3.15514e-05
0.000180232
-4.15454e-05
0.000182674
-5.14714e-05
0.000184036
-6.12411e-05
0.000184567
-7.08242e-05
0.000184752
-8.02444e-05
0.000185245
-8.95061e-05
0.000186428
-9.85137e-05
0.00018841
-0.000106978
0.000190706
-0.000114391
0.000192532
-0.000120274
0.000192764
0.000190231
-0.00012477
-1.25267e-06
0.000124563
-7.845e-06
0.000176705
-1.60698e-05
0.000184774
-2.45034e-05
0.000188666
-3.30635e-05
0.000191234
-4.15834e-05
0.000192556
-4.99468e-05
0.000192931
-5.80793e-05
0.000192885
-6.59321e-05
0.000193098
-7.34223e-05
0.000193918
-8.03679e-05
0.000195355
-8.64463e-05
0.000196784
-9.11676e-05
0.000197254
-9.38007e-05
0.000195397
0.000190651
-9.42208e-05
1.01106e-06
0.000123552
-3.71993e-06
0.000181436
-1.03094e-05
0.000191364
-1.72565e-05
0.000195613
-2.44045e-05
0.000198382
-3.15279e-05
0.00019968
-3.84848e-05
0.000199887
-4.5143e-05
0.000199543
-5.13699e-05
0.000199325
-5.69952e-05
0.000199543
-6.17569e-05
0.000200117
-6.52915e-05
0.000200319
-6.72853e-05
0.000199248
-6.70077e-05
0.00019512
0.000186941
-6.32973e-05
3.17301e-06
0.000120379
4.52981e-07
0.000184156
-4.36609e-06
0.000196183
-9.86071e-06
0.000201107
-1.56082e-05
0.00020413
-2.13395e-05
0.000205411
-2.68968e-05
0.000205445
-3.20682e-05
0.000204714
-3.66349e-05
0.000203892
-4.03509e-05
0.000203259
-4.28997e-05
0.000202666
-4.38349e-05
0.000201254
-4.28568e-05
0.00019827
-4.00976e-05
0.00019236
0.000179783
-3.29401e-05
5.53539e-06
0.000114844
5.18416e-06
0.000184508
1.76528e-06
0.000199602
-2.38419e-06
0.000205257
-6.72137e-06
0.000208467
-1.10647e-05
0.000209754
-1.52323e-05
0.000209612
-1.8918e-05
0.0002084
-2.18302e-05
0.000206804
-2.36367e-05
0.000205066
-2.3992e-05
0.000203021
-2.24357e-05
0.000199698
-1.84672e-05
0.000194301
-1.25842e-05
0.000186477
0.000170952
-3.75319e-06
7.98419e-06
0.00010686
9.86244e-06
0.000182629
8.12683e-06
0.000201337
5.3558e-06
0.000208028
2.26047e-06
0.000211562
-8.20702e-07
0.000212836
-3.57074e-06
0.000212362
-5.78125e-06
0.00021061
-7.07607e-06
0.000208099
-7.01542e-06
0.000205005
-5.23853e-06
0.000201244
-1.25226e-06
0.000195711
5.2434e-06
0.000187805
1.40978e-05
0.000177623
0.000159082
2.59684e-05
1.04227e-05
9.6437e-05
1.45779e-05
0.000178474
1.45038e-05
0.000201411
1.31481e-05
0.000209384
1.1436e-05
0.000213274
9.70365e-06
0.000214568
8.2182e-06
0.000213848
7.36675e-06
0.000211462
7.57204e-06
0.000207893
9.33788e-06
0.000203239
1.29799e-05
0.000197602
1.89911e-05
0.0001897
2.85491e-05
0.000178247
3.98167e-05
0.000166355
0.000144639
5.42599e-05
1.27486e-05
8.36884e-05
1.92337e-05
0.000171989
2.08672e-05
0.000199778
2.09113e-05
0.00020934
2.05271e-05
0.000213658
2.00885e-05
0.000215007
1.99268e-05
0.000214009
2.04136e-05
0.000210975
2.19969e-05
0.00020631
2.53228e-05
0.000199913
3.08125e-05
0.000192113
3.83951e-05
0.000182118
5.04494e-05
0.000166193
6.45163e-05
0.000152289
0.000127892
8.12626e-05
1.48023e-05
6.88861e-05
2.36536e-05
0.000163138
2.7127e-05
0.000196304
2.86127e-05
0.000207854
2.95293e-05
0.000212742
3.03579e-05
0.000214178
3.14696e-05
0.000212898
3.32704e-05
0.000209174
3.61591e-05
0.000203421
4.08097e-05
0.000195263
4.81174e-05
0.000184805
5.68335e-05
0.000173401
7.06072e-05
0.000152419
8.74739e-05
0.000135422
0.000108115
0.000107251
1.62992e-05
5.25869e-05
2.75918e-05
0.000151845
3.31479e-05
0.000190748
3.61676e-05
0.000204834
3.83782e-05
0.000210531
4.04576e-05
0.000212099
4.28023e-05
0.000210553
4.58791e-05
0.000206097
5.00608e-05
0.00019924
5.57495e-05
0.000189574
6.4862e-05
0.000175692
7.47594e-05
0.000163504
8.89866e-05
0.000138192
0.000107224
0.000117184
8.40248e-05
0.000131314
1.6733e-05
3.5854e-05
3.07366e-05
0.000137841
3.87451e-05
0.00018274
4.34429e-05
0.000200136
4.69773e-05
0.000206997
5.03032e-05
0.000208773
5.38495e-05
0.000207007
5.81381e-05
0.000201809
6.36885e-05
0.000193689
7.01501e-05
0.000183113
8.07974e-05
0.000165045
9.2544e-05
0.000151757
0.000107618
0.000123118
0.000124629
0.000100174
5.72434e-05
0.00015141
1.5563e-05
2.02909e-05
3.27882e-05
0.000120616
4.36502e-05
0.000171878
5.02358e-05
0.000193551
5.51918e-05
0.000202041
5.97927e-05
0.000204172
6.45281e-05
0.000202271
6.98566e-05
0.00019648
7.68999e-05
0.000186646
8.41313e-05
0.000175881
9.55597e-05
0.000153617
0.000108952
0.000138366
0.000126897
0.000105172
0.000143174
8.38964e-05
3.09936e-05
0.000169424
1.28786e-05
7.41235e-06
3.36283e-05
9.98666e-05
4.7506e-05
0.000158
5.62954e-05
0.000184762
6.28639e-05
0.000195472
6.87776e-05
0.000198258
7.47449e-05
0.000196304
8.09059e-05
0.000190319
8.94165e-05
0.000178135
9.77929e-05
0.000167505
0.000109662
0.000141748
0.000123118
0.000124909
0.00014377
8.45203e-05
0.000161875
6.57912e-05
6.2806e-06
0.000186588
9.52047e-06
-2.10812e-06
3.2958e-05
7.64291e-05
4.98876e-05
0.00014107
6.13262e-05
0.000173323
6.97989e-05
0.000187
7.70692e-05
0.000190988
8.4352e-05
0.000189021
9.1224e-05
0.000183447
0.00010083
0.000168529
0.000110637
0.000157698
0.000123702
0.000128683
0.000136467
0.000112144
0.000157454
6.35333e-05
0.000177447
4.57989e-05
-1.75303e-05
0.000201258
6.17822e-06
-8.28634e-06
3.01767e-05
5.24306e-05
5.04056e-05
0.000120841
6.50064e-05
0.000158722
7.57355e-05
0.00017627
8.43993e-05
0.000182324
9.30926e-05
0.000180328
0.000100788
0.000175752
0.000110944
0.000158372
0.000121778
0.000146864
0.00013656
0.000113901
0.000149865
9.88385e-05
0.000169345
4.40532e-05
0.000190378
2.47656e-05
-4.05677e-05
0.000213416
3.06128e-06
-1.13476e-05
2.49918e-05
3.05001e-05
4.87331e-05
9.71001e-05
6.68771e-05
0.000140578
8.02935e-05
0.000162854
9.04807e-05
0.000172137
0.00010057
0.000170239
0.000109373
0.000166949
0.000119802
0.000147943
0.000131117
0.00013555
0.000146242
9.87761e-05
0.000162255
8.28258e-05
0.000179028
2.72798e-05
0.00020073
3.06411e-06
-6.27816e-05
0.000222944
6.11133e-07
-1.19588e-05
1.83141e-05
1.27971e-05
4.47826e-05
7.06316e-05
6.63522e-05
0.000119009
8.29167e-05
0.00014629
9.50201e-05
0.000160033
0.000106411
0.000158848
0.000116611
0.000156749
0.000126993
0.000137561
0.000139488
0.000123054
0.000152093
8.61718e-05
0.000171183
6.37352e-05
0.000185336
1.31271e-05
0.000208121
-1.97207e-05
-8.39016e-05
0.000229241
-7.74422e-07
-1.11843e-05
1.17727e-05
2.49947e-07
3.82747e-05
4.41296e-05
6.28318e-05
9.44516e-05
8.29384e-05
0.000126183
9.75453e-05
0.000145426
0.000110031
0.000146362
0.000122077
0.000144703
0.000132064
0.000127574
0.000145735
0.000109384
0.000156153
7.57531e-05
0.000177245
4.26434e-05
0.000188639
1.73323e-06
0.000214075
-4.51563e-05
-0.000102042
0.000232215
-9.45469e-07
-1.02389e-05
6.80223e-06
-7.49776e-06
2.94615e-05
2.14703e-05
5.59895e-05
6.79236e-05
7.95781e-05
0.000102594
9.74742e-05
0.00012753
0.000110808
0.000133029
0.000124682
0.000130829
0.000135778
0.000116478
0.000149859
9.53028e-05
0.000159081
6.65307e-05
0.00018103
2.06941e-05
0.000190506
-7.7419e-06
0.000219402
-7.40529e-05
-0.000112884
0.000230245
-4.8502e-07
-9.75384e-06
4.01743e-06
-1.20002e-05
2.06249e-05
4.86284e-06
4.63765e-05
4.21719e-05
7.21726e-05
7.67984e-05
9.37555e-05
0.000105947
0.000109035
0.000117749
0.000122971
0.000116893
0.000135707
0.000103742
0.000150893
8.0117e-05
0.000160265
5.71585e-05
0.000180466
4.93383e-07
0.000189277
-1.65533e-05
0.000218597
-0.000103373
-0.000103102
0.000208815
2.96835e-07
-1.00507e-05
3.60407e-06
-1.53074e-05
1.42956e-05
-5.82866e-06
3.57466e-05
2.07209e-05
6.11724e-05
5.13725e-05
8.50503e-05
8.20695e-05
0.000103798
9.90007e-05
0.000117893
0.000102799
0.000130565
9.10694e-05
0.000145979
6.47033e-05
0.000157992
4.51453e-05
0.000170838
-1.23524e-05
0.000183292
-2.90071e-05
0.000191044
-0.000111125
-0.000109247
0.000197189
1.1194e-06
-1.11701e-05
4.43006e-06
-1.86181e-05
1.13693e-05
-1.27679e-05
2.67699e-05
5.3203e-06
4.85829e-05
2.95595e-05
7.19538e-05
5.86986e-05
9.29725e-05
7.7982e-05
0.000109125
8.66466e-05
0.000121022
7.91717e-05
0.000134327
5.13989e-05
0.000149802
2.96701e-05
0.000157227
-1.9777e-05
0.000167432
-3.92122e-05
0.000169799
-0.000113492
-0.00016774
0.000228292
1.77825e-06
-1.29483e-05
5.22108e-06
-2.20609e-05
1.04581e-05
-1.80049e-05
2.06618e-05
-4.88335e-06
3.68241e-05
1.33972e-05
5.69265e-05
3.85962e-05
7.69797e-05
5.79288e-05
9.4927e-05
6.86993e-05
0.000107651
6.64475e-05
0.000118685
4.03655e-05
0.000135191
1.31638e-05
0.000136795
-2.13814e-05
0.000150319
-5.27361e-05
0.000187425
-0.000150598
-0.000240849
0.000260534
2.03089e-06
-1.49792e-05
5.13752e-06
-2.51676e-05
9.28688e-06
-2.21543e-05
1.59971e-05
-1.15935e-05
2.66832e-05
2.71097e-06
4.17674e-05
2.3512e-05
5.8673e-05
4.10232e-05
7.56708e-05
5.17015e-05
8.92932e-05
5.28251e-05
0.00010076
2.88988e-05
0.000111148
2.77601e-06
0.000115182
-2.54161e-05
0.000157025
-9.45782e-05
0.000214503
-0.000208076
-0.000301664
0.000275318
1.72443e-06
-1.67036e-05
3.77522e-06
-2.72183e-05
6.43833e-06
-2.48174e-05
1.05918e-05
-1.5747e-05
1.69728e-05
-3.67e-06
2.70177e-05
1.34671e-05
3.94753e-05
2.85655e-05
5.31622e-05
3.80146e-05
6.77022e-05
3.82851e-05
7.62497e-05
2.03513e-05
8.44283e-05
-5.40252e-06
0.000117237
-5.82248e-05
0.000182863
-0.000160204
0.000239668
-0.000264881
-0.000351553
0.000289556
8.37789e-07
-1.75414e-05
1.16477e-06
-2.75453e-05
1.74562e-06
-2.53982e-05
3.32705e-06
-1.73285e-05
6.33207e-06
-6.67502e-06
1.20041e-05
7.79511e-06
1.97553e-05
2.08143e-05
3.03261e-05
2.74438e-05
4.15652e-05
2.7046e-05
4.97701e-05
1.21464e-05
8.13909e-05
-3.70233e-05
0.000143934
-0.000120768
0.00020986
-0.00022613
0.000258065
-0.000313086
-0.000381761
0.000288273
-5.01169e-07
-1.70403e-05
-2.25759e-06
-2.57889e-05
-4.16577e-06
-2.34901e-05
-5.37703e-06
-1.61172e-05
-5.61853e-06
-6.43352e-06
-3.87853e-06
6.05512e-06
-1.13441e-07
1.70492e-05
6.1901e-06
2.11403e-05
1.65429e-05
1.66932e-05
4.64042e-05
-1.77148e-05
0.000107322
-9.79412e-05
0.000175686
-0.000189132
0.000228802
-0.000279247
0.000261853
-0.000346137
-0.00040492
0.000285012
-2.01125e-06
-1.5029e-05
-5.90654e-06
-2.18936e-05
-1.0337e-05
-1.90596e-05
-1.44188e-05
-1.20354e-05
-1.79085e-05
-2.94382e-06
-1.99271e-05
8.07376e-06
-1.96059e-05
1.67279e-05
-1.22757e-05
1.38102e-05
1.49374e-05
-1.052e-05
7.28682e-05
-7.56456e-05
0.000140931
-0.000166004
0.000197534
-0.000245734
0.000235191
-0.000316904
0.000261284
-0.00037223
-0.000422359
0.000278723
-3.37561e-06
-1.16534e-05
-9.0771e-06
-1.61921e-05
-1.55538e-05
-1.25828e-05
-2.19648e-05
-5.62449e-06
-2.76439e-05
2.73532e-06
-3.08777e-05
1.13075e-05
-2.85945e-05
1.44448e-05
-8.61154e-06
-6.17284e-06
4.13403e-05
-6.04718e-05
0.000108079
-0.000142384
0.000164689
-0.000222615
0.000206814
-0.000287859
0.000236201
-0.00034629
0.000255552
-0.000391581
-0.000434923
0.000268116
-4.28998e-06
-7.36344e-06
-1.10814e-05
-9.4007e-06
-1.86041e-05
-5.06011e-06
-2.58927e-05
1.66411e-06
-3.15629e-05
8.40547e-06
-3.23623e-05
1.21069e-05
-2.22584e-05
4.34089e-06
1.57208e-05
-4.41521e-05
7.6204e-05
-0.000120955
0.000133317
-0.000199497
0.00017696
-0.000266257
0.000209803
-0.000320703
0.000231877
-0.000368364
0.000247361
-0.000407065
-0.000448128
0.000260566
-4.61815e-06
-2.74529e-06
-1.16638e-05
-2.35503e-06
-1.91394e-05
2.4155e-06
-2.58222e-05
8.34683e-06
-2.98506e-05
1.24339e-05
-2.62888e-05
8.54511e-06
-2.80986e-06
-1.9138e-05
4.69799e-05
-9.39418e-05
0.000102252
-0.000176227
0.000148019
-0.000245265
0.000182574
-0.000300812
0.00020771
-0.000345839
0.0002257
-0.000386354
0.000239847
-0.000421213
-0.000457614
0.000249334
-4.41447e-06
1.66918e-06
-1.10337e-05
4.26422e-06
-1.77138e-05
9.0956e-06
-2.30749e-05
1.37079e-05
-2.46962e-05
1.40553e-05
-1.54237e-05
-7.27384e-07
2.08879e-05
-5.54497e-05
7.36267e-05
-0.000146681
0.000119458
-0.000222057
0.000156168
-0.000281975
0.000183253
-0.000327897
0.000203713
-0.000366299
0.000218852
-0.000401492
0.000229933
-0.000432294
-0.000467938
0.000240257
-3.84829e-06
5.51747e-06
-9.62389e-06
1.00398e-05
-1.51642e-05
1.46359e-05
-1.90675e-05
1.76113e-05
-1.80832e-05
1.30709e-05
1.63516e-06
-2.04457e-05
4.65379e-05
-0.000100352
9.21556e-05
-0.000192298
0.000130379
-0.000260281
0.00015967
-0.000311266
0.00018158
-0.000349807
0.000198243
-0.000382962
0.000210495
-0.000413743
0.000221716
-0.000443516
-0.000476994
0.000230773
-3.08115e-06
8.59862e-06
-7.82526e-06
1.47839e-05
-1.21421e-05
1.89527e-05
-1.45442e-05
2.00134e-05
-1.00697e-05
8.59642e-06
2.02401e-05
-5.07556e-05
6.76611e-05
-0.000147774
0.000106148
-0.000230785
0.000136919
-0.000291052
0.000160434
-0.00033478
0.000177983
-0.000367357
0.000191674
-0.000396653
0.000203077
-0.000425146
0.000212524
-0.000452963
-0.000485056
0.000220586
-2.24918e-06
1.08478e-05
-5.89747e-06
1.84322e-05
-8.8779e-06
2.19332e-05
-1.00228e-05
2.11583e-05
2.79867e-06
-4.22502e-06
4.08218e-05
-8.87787e-05
8.22371e-05
-0.000189189
0.000115343
-0.000263891
0.000140344
-0.000316053
0.000158956
-0.000353393
0.000173253
-0.000381654
0.000185221
-0.000408621
0.000194693
-0.000434618
0.000203702
-0.000461971
-0.000493573
0.000212219
-1.44429e-06
1.22921e-05
-3.98857e-06
2.09765e-05
-5.48868e-06
2.34333e-05
-5.0263e-06
2.06959e-05
1.65481e-05
-2.57994e-05
5.84683e-05
-0.000130699
9.37823e-05
-0.000224503
0.000121225
-0.000291333
0.000141249
-0.000336078
0.000156131
-0.000368274
0.000168066
-0.000393589
0.000178015
-0.00041857
0.00018695
-0.000443554
0.000195473
-0.000470494
-0.000500346
0.000202246
-7.41502e-07
1.30336e-05
-2.08572e-06
2.23207e-05
-2.44894e-06
2.37965e-05
2.62035e-06
1.56266e-05
3.21241e-05
-5.53031e-05
7.07568e-05
-0.000169332
0.000101694
-0.00025544
0.000124136
-0.000313775
0.000140257
-0.000352199
0.000152326
-0.000380344
0.000162186
-0.000403448
0.000171198
-0.000427583
0.000179143
-0.000451499
0.000186558
-0.000477908
-0.000507575
0.000193786
-2.20565e-07
1.32541e-05
-3.89901e-07
2.24901e-05
-5.89502e-07
2.39961e-05
1.12838e-05
3.75334e-06
4.74357e-05
-9.14551e-05
8.0848e-05
-0.000202744
0.000106776
-0.000281368
0.000125007
-0.000332006
0.000137925
-0.000365116
0.00014774
-0.00039016
0.000156354
-0.000412062
0.000164104
-0.000435332
0.000171263
-0.000458658
0.000178648
-0.000485294
-0.000513682
0.000184755
1.7974e-07
1.30744e-05
7.44817e-07
2.1925e-05
1.36447e-06
2.33764e-05
1.98909e-05
-1.47731e-05
5.81111e-05
-0.000129675
8.80466e-05
-0.000232679
0.000109414
-0.000302735
0.000124042
-0.000346634
0.000134481
-0.000375555
0.000142787
-0.000398465
0.000150129
-0.000419405
0.000157107
-0.00044231
0.000163847
-0.000465398
0.000170152
-0.000491598
-0.000519396
0.000175866
5.05356e-07
1.25691e-05
1.61067e-06
2.08197e-05
4.46586e-06
2.05212e-05
3.04786e-05
-4.07858e-05
6.61332e-05
-0.00016533
9.26859e-05
-0.000259232
0.000110232
-0.000320282
0.000121906
-0.000358308
0.000130429
-0.000384079
0.000137386
-0.000405422
0.000143956
-0.000425974
0.000150222
-0.000448577
0.000156108
-0.000471284
0.000162161
-0.000497652
-0.000524763
0.000167529
6.72685e-07
1.18964e-05
1.51708e-06
1.99753e-05
8.88087e-06
1.31574e-05
4.13241e-05
-7.3229e-05
7.2547e-05
-0.000196553
9.50036e-05
-0.000281689
0.00010936
-0.000334638
0.000118755
-0.000367702
0.000125758
-0.000391082
0.000131853
-0.000411517
0.000137653
-0.000431774
0.000143192
-0.000454116
0.000148787
-0.000476879
0.000154165
-0.000503029
-0.000529272
0.000158674
5.76068e-07
1.13203e-05
6.08557e-07
1.99428e-05
1.3435e-05
3.31029e-07
4.9802e-05
-0.000109596
7.7007e-05
-0.000223758
9.55681e-05
-0.00030025
0.000107267
-0.000346337
0.000114925
-0.00037536
0.000120851
-0.000397009
0.000126115
-0.000416781
0.000131295
-0.000436954
0.000136391
-0.000459212
0.000141299
-0.000481786
0.000146114
-0.000507844
-0.000533752
0.000150593
3.75951e-07
1.09443e-05
2.65506e-07
2.00532e-05
1.94019e-05
-1.88053e-05
5.48926e-05
-0.000145087
7.96815e-05
-0.000248547
9.49665e-05
-0.000315535
0.000104325
-0.000355696
0.000110594
-0.000381629
0.000115612
-0.000402027
0.000120298
-0.000421466
0.000124969
-0.000441625
0.000129428
-0.000463672
0.000133954
-0.000486312
0.000138381
-0.000512271
-0.000537533
0.000142162
1.83014e-07
1.07613e-05
1.68173e-06
1.85545e-05
2.6721e-05
-4.38446e-05
5.85302e-05
-0.000176896
8.04505e-05
-0.000270467
9.32161e-05
-0.0003283
0.000100754
-0.000363234
0.000105919
-0.000386793
0.000110283
-0.000406391
0.000114423
-0.000425607
0.000118548
-0.00044575
0.000122628
-0.000467752
0.000126659
-0.000490343
0.00013043
-0.000516042
-0.000541139
0.000134036
-1.5402e-07
1.09154e-05
4.4887e-06
1.39118e-05
3.4156e-05
-7.35118e-05
6.13558e-05
-0.000204096
7.98618e-05
-0.000288973
9.05357e-05
-0.000338974
9.67161e-05
-0.000369414
0.000101045
-0.000391122
0.00010481
-0.000410157
0.000108482
-0.000429278
0.000112203
-0.000449471
0.000115762
-0.00047131
0.000119323
-0.000493904
0.000122775
-0.000519494
-0.000544256
0.000125892
-4.02956e-07
1.13183e-05
7.75474e-06
5.7541e-06
3.98637e-05
-0.000105621
6.3209e-05
-0.000227441
7.83624e-05
-0.000304126
8.71264e-05
-0.000347738
9.22881e-05
-0.000374576
9.59879e-05
-0.000394822
9.93023e-05
-0.000413471
0.000102559
-0.000432535
0.000105795
-0.000452708
0.000108961
-0.000474476
0.000112125
-0.000497068
0.000114988
-0.000522357
-0.000546971
0.000117702
-6.0203e-07
1.19203e-05
1.1313e-05
-6.16095e-06
4.3126e-05
-0.000137434
6.40153e-05
-0.00024833
7.63055e-05
-0.000316416
8.33506e-05
-0.000354783
8.76431e-05
-0.000378869
9.08496e-05
-0.000398028
9.37496e-05
-0.000416371
9.65923e-05
-0.000435377
9.94516e-05
-0.000455567
0.000102181
-0.000477205
0.000104854
-0.000499742
0.000107353
-0.000524855
-0.00054933
0.000109713
-1.00173e-06
1.29221e-05
1.5863e-05
-2.30257e-05
4.42653e-05
-0.000165836
6.33894e-05
-0.000267455
7.37287e-05
-0.000326756
7.93315e-05
-0.000360386
8.28653e-05
-0.000382402
8.56321e-05
-0.000400795
8.81764e-05
-0.000418916
9.06644e-05
-0.000437866
9.30934e-05
-0.000457996
9.54148e-05
-0.000479527
9.77135e-05
-0.000502041
9.97276e-05
-0.00052687
-0.000551215
0.000101613
-9.60198e-07
1.38823e-05
2.01257e-05
-4.41116e-05
4.51811e-05
-0.000190891
6.17358e-05
-0.000284009
7.05917e-05
-0.000335612
7.51717e-05
-0.000364966
7.80677e-05
-0.000385298
8.04247e-05
-0.000403152
8.26145e-05
-0.000421105
8.47222e-05
-0.000439973
8.67786e-05
-0.000460053
8.87062e-05
-0.000481454
9.05402e-05
-0.000503874
9.21571e-05
-0.000528487
-0.000552791
9.37325e-05
-3.84623e-08
1.39207e-05
2.37943e-05
-6.79443e-05
4.5553e-05
-0.00021265
5.95703e-05
-0.000298027
6.70168e-05
-0.000343058
7.0842e-05
-0.000368791
7.32462e-05
-0.000387703
7.5221e-05
-0.000405127
7.70601e-05
-0.000422944
7.88221e-05
-0.000441735
8.04843e-05
-0.000461715
8.20052e-05
-0.000482975
8.34563e-05
-0.000505326
8.4659e-05
-0.000529689
-0.000553941
8.58093e-05
1.03237e-06
1.28884e-05
2.65202e-05
-9.34321e-05
4.54304e-05
-0.00023156
5.70772e-05
-0.000309673
6.3206e-05
-0.000349187
6.64118e-05
-0.000371997
6.84311e-05
-0.000389722
7.00612e-05
-0.000406757
7.15529e-05
-0.000424436
7.29414e-05
-0.000443124
7.42267e-05
-0.000463
7.5367e-05
-0.000484115
7.63847e-05
-0.000506343
7.71869e-05
-0.000530491
-0.000554782
7.8028e-05
2.68889e-06
1.01995e-05
2.81631e-05
-0.000118906
4.49191e-05
-0.000248316
5.44293e-05
-0.000319184
5.93233e-05
-0.000354081
6.19327e-05
-0.000374607
6.3606e-05
-0.000391395
6.49206e-05
-0.000408071
6.60712e-05
-0.000425587
6.71066e-05
-0.000444159
6.80114e-05
-0.000463905
6.87517e-05
-0.000484856
6.93774e-05
-0.000506969
6.97911e-05
-0.000530905
-0.000555203
7.02116e-05
4.9141e-06
5.28537e-06
2.87978e-05
-0.00014279
4.3975e-05
-0.000263494
5.16727e-05
-0.000326881
5.54421e-05
-0.00035785
5.74793e-05
-0.000376644
5.88131e-05
-0.000392729
5.98212e-05
-0.000409079
6.06423e-05
-0.000426408
6.13134e-05
-0.00044483
6.18386e-05
-0.00046443
6.21984e-05
-0.000485216
6.24099e-05
-0.00050718
6.24089e-05
-0.000530904
-0.000555204
6.24103e-05
7.50793e-06
-2.22255e-06
2.8624e-05
-0.000163906
4.23815e-05
-0.000277251
4.8791e-05
-0.000333291
5.16034e-05
-0.000360663
5.30828e-05
-0.000378123
5.40567e-05
-0.000393703
5.47543e-05
-0.000409777
5.52471e-05
-0.000426901
5.55682e-05
-0.000445151
5.57194e-05
-0.000464581
5.56851e-05
-0.000485181
5.5497e-05
-0.000506992
5.50888e-05
-0.000530496
-0.000554733
5.46178e-05
1.01742e-05
-1.23967e-05
2.86828e-05
-0.000182415
4.03945e-05
-0.000288963
4.56918e-05
-0.000338588
4.77749e-05
-0.000362746
4.876e-05
-0.000379108
4.93692e-05
-0.000394312
4.97439e-05
-0.000410152
4.99099e-05
-0.000427067
4.98772e-05
-0.000445119
4.96513e-05
-0.000464355
4.92308e-05
-0.000484761
4.86332e-05
-0.000506395
4.78074e-05
-0.00052967
-0.00055381
4.68843e-05
1.21368e-05
-2.45335e-05
2.84567e-05
-0.000198735
3.81918e-05
-0.000298698
4.24035e-05
-0.0003428
4.39152e-05
-0.000364258
4.44917e-05
-0.000379685
4.47463e-05
-0.000394567
4.47902e-05
-0.000410196
4.46227e-05
-0.000426899
4.42419e-05
-0.000444738
4.36456e-05
-0.000463759
4.28291e-05
-0.000483944
4.18217e-05
-0.000505387
4.05917e-05
-0.00052844
-0.000552416
3.91976e-05
1.33435e-05
-3.7877e-05
2.77873e-05
-0.000213178
3.58025e-05
-0.000306713
3.90201e-05
-0.000346017
4.00385e-05
-0.000365276
4.02714e-05
-0.000379918
4.01978e-05
-0.000394493
3.99095e-05
-0.000409907
3.94063e-05
-0.000426396
3.86743e-05
-0.000444006
3.7705e-05
-0.00046279
3.64955e-05
-0.000482735
3.50672e-05
-0.000503959
3.34206e-05
-0.000526794
-0.000550577
3.15821e-05
1.38277e-05
-5.17047e-05
2.67218e-05
-0.000226072
3.32718e-05
-0.000313263
3.56144e-05
-0.00034836
3.61842e-05
-0.000365846
3.61006e-05
-0.000379834
3.5714e-05
-0.000394106
3.50985e-05
-0.000409292
3.42564e-05
-0.000425554
3.31747e-05
-0.000442924
3.18401e-05
-0.000461455
3.02413e-05
-0.000481136
2.83915e-05
-0.000502109
2.6298e-05
-0.0005247
-0.0005483
2.40208e-05
1.37649e-05
-6.54696e-05
2.53061e-05
-0.000237614
3.06264e-05
-0.000318583
3.22245e-05
-0.000349958
3.23784e-05
-0.000366
3.1991e-05
-0.000379447
3.13032e-05
-0.000393419
3.03659e-05
-0.000408354
2.91866e-05
-0.000424375
2.77539e-05
-0.000441492
2.60536e-05
-0.000459755
2.40781e-05
-0.000479161
2.18245e-05
-0.000499855
1.92261e-05
-0.000522102
-0.000545585
1.65108e-05
1.33462e-05
-7.88157e-05
2.36404e-05
-0.000247908
2.79103e-05
-0.000322853
2.88728e-05
-0.000350921
2.86429e-05
-0.00036577
2.79531e-05
-0.000378757
2.69646e-05
-0.00039243
2.57094e-05
-0.000407099
2.41942e-05
-0.000422859
2.24116e-05
-0.000439709
2.03501e-05
-0.000457693
1.80043e-05
-0.000476815
1.53803e-05
-0.000497231
1.22808e-05
-0.000519002
-0.000542326
9.02169e-06
1.2691e-05
-9.15067e-05
2.17978e-05
-0.000257015
2.51558e-05
-0.000326211
2.55745e-05
-0.000351339
2.49891e-05
-0.000365184
2.3998e-05
-0.000377766
2.2709e-05
-0.000391141
2.11373e-05
-0.000405528
1.92891e-05
-0.000421011
1.71571e-05
-0.000437577
1.47312e-05
-0.000455267
1.2016e-05
-0.0004741
9.01388e-06
-0.000494229
5.57664e-06
-0.000515565
-0.000538183
1.43444e-06
1.18774e-05
-0.000103384
1.98498e-05
-0.000264987
2.24042e-05
-0.000328766
2.23466e-05
-0.000351282
2.14275e-05
-0.000364265
2.01329e-05
-0.000376471
1.85383e-05
-0.000389547
1.665e-05
-0.000403639
1.44702e-05
-0.000418831
1.19898e-05
-0.000435097
9.20114e-06
-0.000452479
6.12247e-06
-0.000471021
2.64735e-06
-0.000490754
-7.73706e-07
-0.000512144
-0.000533469
-5.48774e-06
1.09264e-05
-0.000114311
1.78449e-05
-0.000271906
1.96891e-05
-0.00033061
1.92045e-05
-0.000350797
1.79639e-05
-0.000363025
1.63636e-05
-0.000374871
1.44604e-05
-0.000387643
1.22536e-05
-0.000401432
9.74305e-06
-0.000416321
6.91479e-06
-0.000432268
3.76289e-06
-0.000449327
2.43518e-07
-0.000467502
-3.47144e-06
-0.000487039
-7.6281e-06
-0.000507987
-0.000528813
-1.22849e-05
9.85534e-06
-0.000124166
1.58345e-05
-0.000277885
1.70414e-05
-0.000331817
1.61624e-05
-0.000349918
1.46028e-05
-0.000361465
1.2693e-05
-0.000372961
1.04754e-05
-0.000385426
7.94634e-06
-0.000398903
5.10064e-06
-0.000413475
1.92228e-06
-0.00042909
-1.56125e-06
-0.000445843
-5.33525e-06
-0.000463728
-9.41298e-06
-0.000482961
-1.41301e-05
-0.00050327
-0.000523912
-1.90312e-05
8.88587e-06
-0.000133052
1.38674e-05
-0.000282866
1.4473e-05
-0.000332423
1.32186e-05
-0.000348664
1.13439e-05
-0.00035959
9.12244e-06
-0.00037074
6.58478e-06
-0.000382888
3.72559e-06
-0.000396044
5.18193e-07
-0.000410268
-2.94541e-06
-0.000425626
-6.74878e-06
-0.00044204
-1.08595e-05
-0.000459617
-1.53351e-05
-0.000478486
-2.0448e-05
-0.000498157
-0.000518676
-2.56838e-05
7.95095e-06
-0.000141003
1.19715e-05
-0.000286887
1.19959e-05
-0.000332447
1.03727e-05
-0.00034704
8.18684e-06
-0.000357404
5.6489e-06
-0.000368202
2.77893e-06
-0.000380018
-4.30585e-07
-0.000392835
-3.87841e-06
-0.00040682
-7.69366e-06
-0.000421811
-1.18322e-05
-0.000437901
-1.6297e-05
-0.000455152
-2.11842e-05
-0.000473599
-2.66032e-05
-0.000492738
-0.00051306
-3.22191e-05
7.04013e-06
-0.000148043
1.01556e-05
-0.000290002
9.61647e-06
-0.000331908
7.63033e-06
-0.000345054
5.12908e-06
-0.000354903
2.25942e-06
-0.000365332
-9.33194e-07
-0.000376825
-4.3831e-06
-0.000389385
-8.19144e-06
-0.000403011
-1.23385e-05
-0.000417664
-1.68124e-05
-0.000433427
-2.164e-05
-0.000450325
-2.69405e-05
-0.000468298
-3.26351e-05
-0.000487044
-0.000507064
-3.86306e-05
6.16132e-06
-0.000154204
8.42546e-06
-0.000292266
7.33844e-06
-0.000330821
4.99586e-06
-0.000342712
2.15923e-06
-0.000352067
-1.02953e-06
-0.000362143
-4.47628e-06
-0.000373379
-8.26983e-06
-0.000385591
-1.24066e-05
-0.000398875
-1.68787e-05
-0.000413192
-2.16859e-05
-0.00042862
-2.6869e-05
-0.000445141
-3.25106e-05
-0.000462657
-3.85318e-05
-0.000481023
-0.000500692
-4.49041e-05
5.31973e-06
-0.000159524
6.78154e-06
-0.000293728
5.16845e-06
-0.000329208
2.46693e-06
-0.00034001
-7.18091e-07
-0.000348882
-4.15259e-06
-0.000358709
-7.9383e-06
-0.000369593
-1.20593e-05
-0.00038147
-1.65179e-05
-0.000394416
-2.13132e-05
-0.000408397
-2.64529e-05
-0.000423481
-3.19782e-05