/*--------------------------------*- C++ -*----------------------------------*\
  =========                 |
  \\      /  F ield         | OpenFOAM: The Open Source CFD Toolbox
   \\    /   O peration     | Website:  https://openfoam.org
    \\  /    A nd           | Version:  7
     \\/     M anipulation  |
\*---------------------------------------------------------------------------*/
FoamFile
{
    version     2.0;
    format      ascii;
    class       volVectorField;
    location    "8.9991";
    object      U;
}
// * * * * * * * * * * * * * * * * * * * * * * * * * * * * * * * * * * * * * //

dimensions      [0 1 -1 0 0 0 0];

internalField   nonuniform List<vector> 
18750
(
(-0.0555923 0.0337392 -1.62725e-20)
(-0.187956 0.0388206 5.47059e-21)
(-0.322737 0.0357228 5.90024e-20)
(-0.44052 0.0333681 1.34944e-20)
(-0.554845 0.0309343 -3.19419e-20)
(-0.658265 0.0286154 -7.69488e-20)
(-0.75575 0.0263069 7.75997e-20)
(-0.843792 0.0240959 5.02553e-20)
(-0.925712 0.0220009 -3.71163e-20)
(-1.0001 0.0201048 -9.82516e-20)
(-1.06957 0.0184002 3.68158e-19)
(-1.13274 0.0168335 -2.97988e-19)
(-1.1909 0.015292 1.74925e-19)
(-1.24276 0.0137654 -3.34828e-19)
(-1.28944 0.0123427 7.81659e-20)
(-0.057657 0.100622 9.95931e-21)
(-0.189198 0.115953 1.58962e-20)
(-0.322129 0.106735 7.71191e-21)
(-0.438089 0.0996985 8.94336e-20)
(-0.550472 0.092423 1.83741e-19)
(-0.651846 0.0854833 2.426e-19)
(-0.747116 0.0785753 -2.03757e-19)
(-0.832771 0.071961 3.26977e-19)
(-0.912105 0.0656961 3.01173e-19)
(-0.983754 0.0600286 -9.19207e-20)
(-1.0504 0.0549462 -3.89204e-19)
(-1.1107 0.0503048 2.15116e-20)
(-1.16587 0.0457689 8.68389e-20)
(-1.21446 0.0412692 2.20055e-19)
(-1.25751 0.0370165 -3.28078e-19)
(-0.0617054 0.165769 3.00356e-20)
(-0.191659 0.191613 4.48578e-20)
(-0.320979 0.176503 -1.44839e-19)
(-0.433398 0.164873 9.55077e-21)
(-0.54205 0.152837 -3.41935e-19)
(-0.639538 0.141327 1.1097e-19)
(-0.73065 0.129869 -3.09092e-19)
(-0.811882 0.118904 -3.80782e-20)
(-0.88648 0.108529 -2.32229e-19)
(-0.953176 0.0991532 6.77395e-19)
(-1.01478 0.0907826 8.80704e-19)
(-1.07009 0.0832237 7.61889e-19)
(-1.12019 0.0759284 4.41584e-19)
(-1.16336 0.0686698 2.95071e-19)
(-1.20044 0.0616387 -5.33036e-19)
(-0.067581 0.228089 -1.55084e-19)
(-0.19529 0.264864 1.84726e-19)
(-0.319397 0.244246 -1.39217e-19)
(-0.426732 0.22819 -2.94471e-19)
(-0.530117 0.211539 5.07155e-19)
(-0.622206 0.195556 -4.69105e-19)
(-0.707638 0.179643 6.83002e-19)
(-0.782943 0.164429 -5.69863e-19)
(-0.851319 0.150059 3.9216e-19)
(-0.911641 0.137097 -9.50212e-19)
(-0.966931 0.125588 -1.33814e-18)
(-1.01621 0.11534 7.16572e-20)
(-1.0605 0.105608 -2.49112e-19)
(-1.09771 0.0958914 -5.31025e-19)
(-1.12838 0.08619 1.96518e-18)
(-0.0750555 0.286576 -1.16433e-19)
(-0.199992 0.334816 2.64888e-19)
(-0.317491 0.309261 6.26996e-20)
(-0.418419 0.28905 2.33914e-19)
(-0.515302 0.268019 -3.08752e-19)
(-0.600852 0.247726 1.32816e-19)
(-0.679548 0.227513 1.60887e-18)
(-0.748009 0.208209 2.43401e-19)
(-0.809408 0.19002 4.25795e-19)
(-0.862818 0.173657 -1.44209e-19)
(-0.911534 0.159228 1.3109e-19)
(-0.954922 0.146572 -4.7935e-20)
(-0.994025 0.134765 -1.39716e-18)
(-1.02632 0.122942 -7.75472e-19)
(-1.05173 0.110749 -2.23887e-18)
(-0.0839089 0.340396 2.64049e-19)
(-0.205667 0.400626 8.34922e-20)
(-0.315338 0.370937 -1.27679e-19)
(-0.408775 0.346968 -9.31696e-20)
(-0.498245 0.321877 1.01452e-19)
(-0.576488 0.297511 -1.38582e-18)
(-0.647847 0.273223 -1.79369e-19)
(-0.709102 0.250062 8.89262e-20)
(-0.763447 0.228329 -6.33826e-19)
(-0.810192 0.208866 -8.55314e-19)
(-0.852924 0.19183 6.14268e-19)
(-0.891419 0.177092 -6.01045e-19)
(-0.926753 0.163552 1.83237e-18)
(-0.955818 0.149972 -1.4146e-18)
(-0.977458 0.135502 3.06629e-18)
(-0.09386 0.388724 -2.3368e-19)
(-0.212103 0.46152 -4.01402e-19)
(-0.312911 0.4288 1.66368e-19)
(-0.398072 0.40158 1.24071e-18)
(-0.479522 0.372846 1.25445e-18)
(-0.550017 0.344743 -4.29969e-19)
(-0.613807 0.316701 2.16173e-19)
(-0.667914 0.290021 1.36389e-19)
(-0.715586 0.265123 1.34867e-18)
(-0.756361 0.24296 1.84281e-18)
(-0.794014 0.22369 -8.89129e-19)
(-0.828627 0.207191 -1.67907e-18)
(-0.861175 0.192218 -3.08975e-18)
(-0.887761 0.177201 5.19833e-19)
(-0.905633 0.16067 -3.75508e-18)
(-0.10455 0.430682 -2.03147e-19)
(-0.219026 0.516898 -2.4043e-19)
(-0.310127 0.482531 -1.77226e-18)
(-0.386514 0.452644 6.2626e-19)
(-0.459593 0.420772 -7.57463e-19)
(-0.522158 0.389356 5.10501e-19)
(-0.578405 0.357976 5.28999e-19)
(-0.625646 0.328195 -2.31859e-18)
(-0.667176 0.300591 -1.52255e-18)
(-0.702657 0.276203 -2.5357e-18)
(-0.7358 0.255131 -4.25878e-19)
(-0.766726 0.237193 1.7851e-18)
(-0.796114 0.221 6.92122e-18)
(-0.819266 0.204719 -1.05256e-18)
(-0.831693 0.186236 1.86366e-18)
(-0.115526 0.465488 1.09464e-18)
(-0.226096 0.566303 4.42541e-19)
(-0.306866 0.531933 1.93849e-18)
(-0.37423 0.500011 -1.43533e-18)
(-0.438797 0.465585 6.75066e-19)
(-0.49343 0.43138 -1.12427e-18)
(-0.542292 0.397157 -2.56683e-18)
(-0.582977 0.364755 2.26967e-18)
(-0.618758 0.334946 2.65239e-19)
(-0.649264 0.308824 3.77219e-18)
(-0.67783 0.286341 -1.21555e-18)
(-0.704333 0.267134 -5.42355e-18)
(-0.729106 0.249692 -3.2869e-18)
(-0.746964 0.232078 3.37009e-19)
(-0.752094 0.211771 -1.56804e-18)
(-0.126206 0.492422 -9.02756e-19)
(-0.232847 0.609375 -5.16112e-19)
(-0.302953 0.576902 6.56009e-19)
(-0.361291 0.543615 1.00645e-19)
(-0.417333 0.507288 -2.65039e-19)
(-0.464136 0.470878 -3.02349e-19)
(-0.505805 0.434354 1.17434e-18)
(-0.540157 0.399835 -1.36725e-18)
(-0.570327 0.368289 1.33315e-18)
(-0.595767 0.34084 1.64062e-18)
(-0.619215 0.317227 -2.89176e-18)
(-0.6401 0.29681 5.4329e-18)
(-0.658493 0.278003 6.28824e-19)
(-0.669264 0.258953 8.4463e-19)
(-0.666097 0.237052 1.94742e-18)
(-0.135939 0.510926 1.67565e-18)
(-0.238772 0.645889 -5.48269e-19)
(-0.298194 0.617397 -2.47254e-18)
(-0.347679 0.583426 9.80997e-19)
(-0.395293 0.545922 -5.70059e-19)
(-0.434437 0.507956 6.72431e-19)
(-0.469097 0.469694 4.93699e-18)
(-0.497207 0.433518 2.35444e-18)
(-0.521671 0.400607 1.54561e-18)
(-0.541672 0.372108 -5.13629e-18)
(-0.559265 0.347542 5.5496e-18)
(-0.573347 0.325935 2.00679e-18)
(-0.583811 0.305578 -3.22519e-18)
(-0.586065 0.284799 3.89391e-18)
(-0.574308 0.261347 -1.14958e-19)
(-0.143882 0.520397 3.23068e-19)
(-0.243292 0.675795 8.96768e-20)
(-0.292368 0.65336 -1.56912e-19)
(-0.333354 0.619469 -1.75142e-18)
(-0.372679 0.581572 3.49076e-18)
(-0.40436 0.542684 -1.7854e-18)
(-0.432164 0.503208 -5.22201e-18)
(-0.454052 0.465797 1.57294e-18)
(-0.472583 0.431797 -2.50781e-18)
(-0.486652 0.402396 3.84897e-18)
(-0.497668 0.37695 -6.87103e-18)
(-0.504024 0.354163 5.33745e-19)
(-0.505461 0.332109 2.87865e-18)
(-0.498177 0.309425 -6.00945e-18)
(-0.478125 0.284539 -1.40259e-18)
(-0.149044 0.52046 -1.09506e-18)
(-0.245826 0.699054 3.19687e-19)
(-0.285311 0.684707 9.769e-19)
(-0.318161 0.651807 -4.61738e-20)
(-0.349433 0.614338 -4.72695e-18)
(-0.37391 0.575172 4.58452e-19)
(-0.395006 0.534995 1.69959e-18)
(-0.410632 0.496671 -4.56913e-18)
(-0.422977 0.461741 3.38086e-18)
(-0.43063 0.431458 -3.08527e-18)
(-0.434453 0.405101 8.37687e-18)
(-0.432524 0.381172 -3.47349e-18)
(-0.424497 0.357535 4.1863e-18)
(-0.40705 0.332798 8.4474e-18)
(-0.378095 0.305849 3.62364e-18)
(-0.150646 0.511555 -4.2446e-19)
(-0.245897 0.715786 -2.20131e-21)
(-0.276848 0.711237 -4.22559e-20)
(-0.301991 0.680584 -1.06487e-19)
(-0.325492 0.644348 -2.26346e-18)
(-0.343022 0.605449 -1.00933e-18)
(-0.357561 0.565018 1.64929e-18)
(-0.366939 0.526072 9.9181e-19)
(-0.372889 0.490307 -5.7388e-18)
(-0.373776 0.459087 -3.21837e-19)
(-0.370011 0.431709 -1.64427e-18)
(-0.359482 0.406595 3.33081e-18)
(-0.341953 0.381539 -4.6245e-18)
(-0.314093 0.354868 -6.39313e-19)
(-0.274603 0.325224 -4.09454e-18)
(-0.14797 0.493852 1.87161e-18)
(-0.242917 0.725397 -1.64718e-18)
(-0.266772 0.73295 -2.30288e-18)
(-0.284591 0.706024 4.14621e-18)
(-0.30079 0.671696 3.69942e-18)
(-0.311704 0.633648 4.75752e-18)
(-0.319847 0.593382 2.04897e-19)
(-0.32299 0.55402 3.2314e-18)
(-0.322466 0.517437 4.32329e-18)
(-0.316412 0.485126 6.41371e-18)
(-0.304886 0.456512 -2.94359e-18)
(-0.285555 0.430109 6.16123e-18)
(-0.25863 0.403844 -4.2946e-20)
(-0.221931 0.376448 -3.10362e-18)
(-0.168091 0.342931 -7.62748e-18)
(-0.140596 0.467126 -1.1593e-18)
(-0.236309 0.727267 1.84758e-18)
(-0.254919 0.750171 1.23305e-18)
(-0.265964 0.728373 -3.88067e-18)
(-0.275322 0.696508 -1.84012e-18)
(-0.279897 0.659747 -3.40632e-19)
(-0.281869 0.620058 -2.4844e-18)
(-0.278895 0.580477 -4.26534e-18)
(-0.271909 0.543092 -7.24289e-18)
(-0.258927 0.509525 -3.12716e-18)
(-0.239794 0.479482 4.36315e-18)
(-0.211882 0.451516 -9.08116e-18)
(-0.175133 0.42385 3.11584e-19)
(-0.131413 0.396261 5.71097e-18)
(-0.0635282 0.361941 8.1644e-18)
(-0.128228 0.431125 -2.74263e-18)
(-0.225748 0.721211 2.1617e-18)
(-0.241028 0.762863 -3.78243e-18)
(-0.246116 0.747718 -1.83196e-18)
(-0.249197 0.718959 -1.15849e-19)
(-0.247728 0.683959 2.59625e-18)
(-0.243656 0.645126 4.23463e-18)
(-0.234746 0.605549 1.399e-18)
(-0.221451 0.567392 2.02593e-18)
(-0.20167 0.532353 -5.71024e-18)
(-0.175303 0.500542 1.48256e-19)
(-0.139406 0.470649 -4.34192e-18)
(-0.0926991 0.44126 -3.20333e-18)
(-0.0433802 0.413205 -9.13577e-18)
(0.0404597 0.382225 -1.30828e-19)
(-0.110772 0.385862 2.41359e-18)
(-0.211191 0.707118 3.81558e-19)
(-0.225055 0.770773 6.05168e-19)
(-0.22509 0.763958 4.55558e-18)
(-0.222429 0.738993 1.93165e-18)
(-0.215308 0.706301 -2.41879e-18)
(-0.205389 0.668675 1.90395e-18)
(-0.190684 0.629341 -1.10845e-18)
(-0.171326 0.590448 -2.20769e-18)
(-0.14497 0.55379 2.52034e-18)
(-0.111768 0.519915 -8.43218e-18)
(-0.06923 0.488015 -3.33732e-19)
(-0.0116703 0.455553 -4.70324e-18)
(0.0394183 0.425765 7.26918e-18)
(0.14478 0.402679 6.60894e-19)
(-0.0886796 0.331692 -9.03325e-19)
(-0.192899 0.684613 -2.56067e-18)
(-0.207199 0.773336 7.02438e-19)
(-0.203047 0.776851 -5.19994e-18)
(-0.195094 0.756554 -3.6054e-18)
(-0.182681 0.726698 -2.03928e-18)
(-0.167227 0.69072 -3.60674e-18)
(-0.146901 0.651931 3.49278e-18)
(-0.121782 0.612514 4.92397e-18)
(-0.0891218 0.57424 9.57671e-18)
(-0.0490833 0.537936 -4.12036e-19)
(-0.00227469 0.504252 1.07008e-17)
(0.0681838 0.467762 4.18659e-18)
(0.113575 0.432138 3.22287e-18)
(0.248879 0.423134 -7.13934e-18)
(-0.0634605 0.269167 1.54028e-18)
(-0.171502 0.652877 3.88595e-18)
(-0.187855 0.769554 2.69694e-18)
(-0.180282 0.785941 3.61245e-18)
(-0.1674 0.771483 2.83486e-20)
(-0.149981 0.745042 1.46171e-18)
(-0.129301 0.711204 3.89374e-20)
(-0.103538 0.673261 -2.68948e-18)
(-0.0729683 0.633586 4.18981e-18)
(-0.0346209 0.594023 -1.46002e-17)
(0.0133409 0.554912 4.25908e-18)
(0.0609123 0.520076 -2.81569e-18)
(0.1494 0.481864 5.44684e-19)
(0.177168 0.428405 -4.11241e-18)
(0.346364 0.437088 -4.54209e-18)
(-0.0391469 0.199087 -2.51564e-18)
(-0.148075 0.610429 3.36743e-18)
(-0.167454 0.757809 -8.83806e-19)
(-0.157119 0.790452 -1.50083e-18)
(-0.139644 0.783551 3.20085e-18)
(-0.117472 0.761198 3.51488e-19)
(-0.0918666 0.729921 -9.74666e-19)
(-0.0608393 0.693242 -1.16052e-19)
(-0.0248856 0.653654 -2.70237e-18)
(0.0177784 0.613376 6.99313e-18)
(0.0761554 0.570784 4.23983e-18)
(0.11901 0.533558 2.23985e-18)
(0.233981 0.504258 -1.95e-19)
(0.238771 0.427003 5.22996e-18)
(0.433293 0.434875 -4.41143e-19)
(-0.022415 0.125291 7.35664e-19)
(-0.124222 0.555239 -8.18924e-19)
(-0.146389 0.735962 6.17001e-19)
(-0.133912 0.789174 2.77435e-18)
(-0.112191 0.792143 -1.79133e-18)
(-0.0854905 0.774862 -1.1672e-18)
(-0.0552669 0.746688 -2.24851e-18)
(-0.0192774 0.711642 1.77573e-18)
(0.0226448 0.672217 -1.85869e-18)
(0.0669876 0.632252 -2.12377e-18)
(0.140208 0.587281 -3.67815e-18)
(0.170331 0.539812 -2.14e-18)
(0.317249 0.527147 7.6063e-18)
(0.305143 0.441638 -1.03843e-17)
(0.514918 0.434623 -2.47809e-19)
(-0.0151726 0.0565516 3.14393e-18)
(-0.101353 0.484952 -1.23415e-18)
(-0.124777 0.701607 -3.2093e-18)
(-0.11091 0.780423 -8.78475e-19)
(-0.0854483 0.796336 4.64865e-18)
(-0.0544417 0.785485 -7.49446e-20)
(-0.0198862 0.761089 2.30234e-18)
(0.0202149 0.728383 -1.27196e-18)
(0.0698144 0.688992 -4.96897e-18)
(0.111775 0.649149 1.15618e-17)
(0.205796 0.607766 -8.44235e-18)
(0.21743 0.542387 2.47743e-18)
(0.392532 0.536776 -1.0817e-17)
(0.371863 0.45774 3.82286e-18)
(0.589661 0.441917 3.07872e-18)
(-0.0103369 0.00221086 -1.12198e-18)
(-0.0791029 0.396894 -3.59521e-18)
(-0.102622 0.652679 1.62031e-18)
(-0.0883402 0.76185 2.85718e-19)
(-0.0598171 0.794476 -4.15136e-18)
(-0.0248331 0.792292 2.59764e-18)
(0.0140943 0.77259 1.24978e-19)
(0.0564202 0.74293 -6.392e-19)
(0.116559 0.703881 -5.01861e-18)
(0.150815 0.661183 -6.06732e-19)
(0.270066 0.630788 6.67741e-18)
(0.265384 0.552158 5.42025e-19)
(0.457979 0.538061 1.55874e-18)
(0.436371 0.465612 4.3805e-18)
(0.652439 0.445824 -1.09886e-17)
(-0.00139105 -0.0326189 -1.69826e-18)
(-0.0579934 0.291394 5.97036e-20)
(-0.0798105 0.587315 -2.06327e-18)
(-0.0664385 0.730596 1.67536e-18)
(-0.0356978 0.784454 2.32752e-18)
(0.0025789 0.794006 -1.76258e-18)
(0.046501 0.780372 -3.16613e-19)
(0.0880756 0.754658 -1.48422e-18)
(0.162286 0.718177 3.79818e-18)
(0.184508 0.666623 7.18082e-19)
(0.327871 0.647596 -9.61132e-18)
(0.314822 0.569012 2.56168e-18)
(0.513104 0.542075 1.58022e-18)
(0.498787 0.472066 -7.10194e-18)
(0.705707 0.448576 1.61456e-18)
(0.0102508 -0.0485328 3.80522e-19)
(-0.0416628 0.179616 1.02377e-18)
(-0.0577157 0.503788 1.90336e-18)
(-0.0455582 0.682955 -1.62906e-18)
(-0.0133866 0.763259 -8.2807e-20)
(0.0267846 0.789016 4.18878e-18)
(0.0771496 0.78337 -2.08178e-19)
(0.114278 0.761189 6.60766e-21)
(0.204817 0.732384 6.03068e-18)
(0.214573 0.669853 -3.43258e-18)
(0.374262 0.652742 2.48013e-18)
(0.364458 0.582679 -6.84968e-18)
(0.554972 0.546253 5.83576e-19)
(0.555623 0.478379 -1.73996e-18)
(0.749357 0.448842 3.04664e-18)
(0.0193727 -0.0511106 -2.8477e-19)
(-0.028441 0.0833599 1.28076e-18)
(-0.0376399 0.402109 -1.70416e-18)
(-0.0265004 0.615869 3.56177e-18)
(0.00677408 0.727382 -3.03457e-18)
(0.0465291 0.774425 -2.7578e-18)
(0.105073 0.780799 -1.71097e-18)
(0.135128 0.760823 -3.70797e-18)
(0.241012 0.743001 -7.26806e-18)
(0.244175 0.673513 1.13806e-18)
(0.402329 0.649937 5.69334e-18)
(0.413079 0.587948 4.46051e-18)
(0.580532 0.54447 7.32146e-19)
(0.604646 0.479698 -3.64426e-18)
(0.781764 0.444745 -1.746e-18)
(0.0238079 -0.046723 6.81556e-19)
(-0.0109745 0.0187086 1.19879e-18)
(-0.0195447 0.283565 -5.08031e-18)
(-0.0099136 0.527027 -3.5135e-18)
(0.0244507 0.672933 -1.0248e-19)
(0.0608219 0.746373 2.85173e-18)
(0.128317 0.770107 -1.04782e-18)
(0.150895 0.75182 8.23235e-18)
(0.265124 0.747304 7.30935e-19)
(0.279348 0.678267 -4.52845e-18)
(0.409185 0.639651 -4.36893e-18)
(0.466075 0.590106 -6.80417e-18)
(0.58468 0.534331 7.51349e-18)
(0.65589 0.480051 4.86697e-18)
(0.801853 0.437275 -8.17764e-21)
(0.0249856 -0.0405589 -1.89947e-18)
(0.0100808 -0.0160766 -3.52871e-18)
(-0.00360077 0.163978 2.52783e-18)
(0.00302327 0.417497 3.09157e-18)
(0.0388813 0.59595 1.9236e-18)
(0.0692574 0.699762 -1.98271e-18)
(0.143862 0.749064 5.0635e-18)
(0.164455 0.732146 -7.22738e-18)
(0.268233 0.734863 8.14747e-18)
(0.322119 0.68931 5.14332e-18)
(0.394889 0.620178 -1.58908e-18)
(0.527731 0.596875 -2.20335e-18)
(0.566872 0.51336 -3.00355e-18)
(0.723371 0.48807 -5.83026e-18)
(0.797427 0.416451 6.90518e-18)
(0.0258506 -0.0350856 5.36359e-18)
(0.0292849 -0.0303942 4.11056e-18)
(0.0141816 0.0751818 9.31274e-19)
(0.0124995 0.296382 -5.23757e-20)
(0.0491047 0.49565 -6.64314e-19)
(0.0720451 0.628348 -7.88773e-19)
(0.146639 0.710854 -3.94243e-18)
(0.179365 0.708752 6.81468e-18)
(0.249533 0.694351 -5.37071e-18)
(0.360189 0.694406 -4.81128e-20)
(0.371093 0.595244 5.16542e-18)
(0.578587 0.598131 3.58164e-18)
(0.536096 0.480819 3.55593e-18)
(0.788754 0.491442 -3.05334e-20)
(0.75713 0.364017 -4.21253e-18)
(0.0287461 -0.0313149 -3.22312e-18)
(0.046387 -0.0342181 -3.33854e-18)
(0.0371702 0.0283278 1.04074e-18)
(0.0240574 0.185043 -1.67465e-18)
(0.0542269 0.378949 -7.79372e-19)
(0.0725632 0.532786 2.84742e-18)
(0.132522 0.641365 -7.61086e-19)
(0.190478 0.680855 -7.02371e-19)
(0.220847 0.639191 -2.10256e-18)
(0.371657 0.666419 -4.86208e-18)
(0.352528 0.567982 2.23205e-18)
(0.587153 0.571423 -2.70985e-18)
(0.492857 0.443884 -4.10158e-18)
(0.827178 0.464427 -1.86343e-18)
(0.527875 0.26836 7.46532e-18)
(0.0344638 -0.0297432 3.64061e-18)
(0.0629873 -0.0353272 -2.85872e-18)
(0.0609287 0.0083338 -4.69238e-18)
(0.0423012 0.107911 4.73178e-19)
(0.0567125 0.26491 1.14609e-18)
(0.070872 0.423946 -7.91967e-19)
(0.109655 0.540278 2.17838e-18)
(0.180365 0.624871 4.63899e-19)
(0.202343 0.589362 -2.76234e-19)
(0.335431 0.599341 1.39292e-19)
(0.355967 0.533451 -2.3025e-18)
(0.527247 0.515186 3.17727e-19)
(0.505362 0.413564 1.3248e-18)
(0.690063 0.390603 -1.02578e-18)
(0.586177 0.2481 7.14241e-18)
(0.0424797 -0.0305347 7.65282e-19)
(0.0788436 -0.0381505 -1.64612e-18)
(0.0802261 -0.00268358 4.57875e-18)
(0.0625785 0.06571 3.55097e-18)
(0.0595617 0.174172 -3.56662e-18)
(0.0650118 0.315961 -2.33851e-19)
(0.0862323 0.426318 -1.64343e-18)
(0.146665 0.528769 -6.10206e-19)
(0.184061 0.532689 4.35646e-18)
(0.27926 0.515671 2.23355e-18)
(0.342548 0.475086 2.99012e-18)
(0.470954 0.45087 -2.47458e-18)
(0.436392 0.344832 1.62974e-18)
(0.672233 0.346681 -9.76011e-19)
(0.891288 0.304702 -9.13155e-18)
(0.0514314 -0.033313 6.10968e-19)
(0.0916338 -0.0441303 9.77192e-19)
(0.0921222 -0.0154564 -2.52648e-18)
(0.0755524 0.0378488 -2.88803e-18)
(0.0603082 0.109704 -2.66359e-18)
(0.0535045 0.219915 2.32756e-19)
(0.0603596 0.315232 1.91498e-18)
(0.106108 0.41117 -3.45389e-18)
(0.143378 0.445017 -1.75913e-18)
(0.227413 0.427504 9.92565e-19)
(0.311655 0.396866 -2.76552e-18)
(0.361318 0.354086 2.70275e-19)
(0.440114 0.290761 1.96357e-18)
(0.831604 0.352981 -2.73124e-18)
(1.05751 0.343277 2.20517e-18)
(0.0592547 -0.0371764 -1.37498e-18)
(0.0983734 -0.0528375 3.12283e-18)
(0.0943065 -0.033097 2.07316e-18)
(0.0751924 0.00837414 1.3926e-18)
(0.0523449 0.0582632 2.27805e-18)
(0.0338367 0.136811 -2.30141e-19)
(0.0313986 0.213596 -1.77075e-18)
(0.0563421 0.288653 4.02837e-19)
(0.0930674 0.332746 2.33566e-18)
(0.181073 0.330902 -3.73325e-18)
(0.223897 0.287325 -1.77091e-18)
(0.307416 0.266382 1.54654e-19)
(0.630764 0.302986 -5.79856e-19)
(0.9802 0.373155 3.32615e-18)
(1.21527 0.372769 -2.97724e-18)
(0.0636922 -0.0408822 1.49893e-18)
(0.0968099 -0.0627451 1.00235e-18)
(0.0854009 -0.0544098 -1.21309e-19)
(0.0604676 -0.0265078 -9.0249e-19)
(0.0316283 0.00736034 2.01743e-19)
(0.00468134 0.0606976 -2.62836e-18)
(-0.00633465 0.118299 5.72912e-19)
(0.00331921 0.167391 -1.11244e-18)
(0.0486824 0.214595 -1.10246e-18)
(0.0945703 0.209831 2.54788e-18)
(0.174502 0.186037 3.75599e-18)
(0.467299 0.261214 1.84248e-18)
(0.834901 0.336493 1.94746e-18)
(1.13285 0.396169 -2.52882e-18)
(1.3016 0.392358 -2.55343e-18)
(0.0630017 -0.0430845 1.24028e-18)
(0.086353 -0.0718112 -2.363e-18)
(0.0659095 -0.0764803 -1.14511e-18)
(0.033557 -0.0643119 -2.55421e-18)
(-0.00143198 -0.0462664 1.14808e-18)
(-0.0348847 -0.0135396 2.77536e-18)
(-0.0545952 0.023679 -3.11257e-18)
(-0.0528246 0.05226 1.09156e-18)
(-0.0217265 0.091611 2.02747e-18)
(0.0473916 0.102635 5.31208e-19)
(0.332145 0.176919 -2.44793e-18)
(0.697175 0.298828 -1.06947e-18)
(1.01882 0.370308 -5.68581e-21)
(1.21744 0.40768 1.42751e-18)
(1.31909 0.389741 5.47845e-18)
(0.056477 -0.0426877 -2.00759e-18)
(0.0680817 -0.0777467 -2.0171e-18)
(0.0383229 -0.0953696 1.12906e-18)
(-0.00156059 -0.0994322 4.53452e-18)
(-0.0431683 -0.0975681 -2.92798e-18)
(-0.0833389 -0.0829339 8.17078e-19)
(-0.110242 -0.0633142 1.18673e-18)
(-0.104695 -0.0442932 -1.01542e-19)
(-0.0384051 -0.00309885 2.48778e-19)
(0.200662 0.0913522 1.08973e-18)
(0.580293 0.226377 -1.04884e-18)
(0.902141 0.339936 -2.29911e-18)
(1.12486 0.386021 -2.13965e-18)
(1.2558 0.403016 1.77662e-18)
(1.35353 0.390736 5.12044e-19)
(0.0446648 -0.0390659 -4.97175e-19)
(0.0443662 -0.0783979 4.00369e-18)
(0.00673124 -0.106692 8.40987e-19)
(-0.0389716 -0.124168 1.19204e-18)
(-0.0847219 -0.13485 1.07638e-18)
(-0.125175 -0.13208 1.01587e-18)
(-0.142661 -0.12031 -3.52807e-19)
(-0.0895225 -0.0953071 6.28254e-19)
(0.103484 -0.00499935 2.92039e-19)
(0.463362 0.151159 1.36498e-18)
(0.797413 0.277301 8.92761e-20)
(1.03008 0.359507 1.60141e-18)
(1.18744 0.38554 -1.32529e-18)
(1.29046 0.399699 -1.2898e-18)
(1.33628 0.379806 8.45244e-19)
(0.0291725 -0.0323062 1.80218e-18)
(0.0184695 -0.0726052 -1.63974e-18)
(-0.0236856 -0.107186 1.82559e-19)
(-0.0706316 -0.132034 -2.43535e-18)
(-0.113129 -0.147996 -2.00288e-18)
(-0.139133 -0.147969 3.40626e-18)
(-0.123126 -0.132795 9.28355e-19)
(0.0261542 -0.0802102 -1.30774e-18)
(0.35564 0.0695434 3.38941e-19)
(0.691149 0.209541 -3.6993e-18)
(0.942946 0.305506 1.37981e-18)
(1.11433 0.364079 -1.68861e-18)
(1.23098 0.383201 2.09202e-18)
(1.28696 0.386335 -2.3772e-19)
(1.34056 0.37075 -1.22562e-18)
(0.0120945 -0.0232763 -2.82407e-18)
(-0.00658961 -0.0609754 -2.88648e-18)
(-0.0490353 -0.0970417 -2.9492e-18)
(-0.0915417 -0.123383 -2.23779e-18)
(-0.122492 -0.139235 1.4631e-18)
(-0.121324 -0.137138 -5.84597e-18)
(-0.0500729 -0.117731 5.3183e-19)
(0.234094 -0.0064546 4.70187e-19)
(0.58478 0.137524 2.62506e-19)
(0.855453 0.245164 1.73488e-18)
(1.04591 0.319257 -1.48953e-18)
(1.17176 0.364299 3.72589e-18)
(1.2448 0.372076 -7.89869e-19)
(1.29904 0.377628 -1.53389e-18)
(1.33195 0.363312 8.60948e-19)
(-0.00471791 -0.0132766 5.01674e-19)
(-0.0289553 -0.0455512 2.35094e-18)
(-0.0681155 -0.0795272 3.38534e-18)
(-0.102276 -0.104029 5.20456e-19)
(-0.117408 -0.118062 2.69934e-18)
(-0.0823657 -0.114935 1.44125e-18)
(0.0817083 -0.0752429 4.34398e-19)
(0.463376 0.0695975 -2.06905e-18)
(0.76343 0.183621 -1.24357e-19)
(0.97713 0.267729 9.20187e-19)
(1.11822 0.327624 3.68486e-18)
(1.20305 0.357629 -5.08046e-19)
(1.26382 0.365783 1.34363e-18)
(1.29267 0.367533 1.26715e-18)
(1.31784 0.350389 1.98832e-18)
(-0.0197815 -0.00370378 9.38049e-19)
(-0.0478404 -0.0288738 -3.14594e-18)
(-0.0815707 -0.058688 -6.56966e-19)
(-0.105514 -0.0801268 3.6108e-21)
(-0.102328 -0.0936863 -5.12746e-18)
(-0.0182917 -0.0962702 1.33088e-18)
(0.276897 0.00224819 -5.95843e-19)
(0.646965 0.123242 6.97939e-19)
(0.90049 0.217457 2.30367e-18)
(1.06617 0.284693 -8.01689e-19)
(1.16567 0.330048 -2.86393e-18)
(1.23059 0.353849 -4.15981e-19)
(1.26465 0.356465 -4.53113e-19)
(1.29 0.356577 -9.81829e-19)
(1.31862 0.345882 -2.15947e-18)
(-0.0322292 0.00451639 1.94372e-19)
(-0.0630821 -0.0128626 8.50369e-19)
(-0.0905622 -0.037445 -2.23098e-18)
(-0.104169 -0.0556273 9.16619e-19)
(-0.0798503 -0.073026 2.16295e-18)
(0.0930815 -0.0608007 -8.83122e-19)
(0.486879 0.0731953 -2.16477e-19)
(0.799827 0.168223 -1.90766e-18)
(1.00566 0.245065 4.07643e-19)
(1.12957 0.296225 -1.36143e-18)
(1.20236 0.333246 1.37511e-18)
(1.24117 0.346829 -1.15207e-18)
(1.26972 0.349341 2.01993e-18)
(1.28951 0.350999 -7.44713e-19)
(1.30173 0.33548 -1.53973e-18)
(-0.0418251 0.0109271 1.017e-18)
(-0.0748679 0.00124927 6.36838e-19)
(-0.0955311 -0.0172307 5.7288e-19)
(-0.0987185 -0.0315177 1.15764e-19)
(-0.0407129 -0.0590747 1.04126e-18)
(0.258424 0.0139645 -2.38413e-18)
(0.65135 0.125394 1.22803e-18)
(0.920787 0.205208 2.76773e-18)
(1.08383 0.266366 -2.65801e-19)
(1.17651 0.306552 2.08588e-18)
(1.22256 0.332933 1.28073e-18)
(1.25277 0.342371 2.20771e-19)
(1.27023 0.344644 4.08086e-19)
(1.28072 0.341277 7.9205e-19)
(1.30103 0.330478 1.7965e-18)
(-0.0485014 0.0153745 1.57074e-18)
(-0.0833277 0.0126863 2.24607e-18)
(-0.0962813 0.00141412 -2.04151e-18)
(-0.0898242 -0.011705 1.8645e-18)
(0.0327983 -0.0403757 -4.41067e-18)
(0.443601 0.0837479 9.93077e-19)
(0.793034 0.172065 -3.6873e-19)
(1.01745 0.236895 -1.74935e-18)
(1.1433 0.284996 -3.07734e-18)
(1.20672 0.313262 -1.18378e-18)
(1.23957 0.334076 -2.97882e-18)
(1.25685 0.338424 1.86045e-18)
(1.26779 0.338607 -2.48856e-18)
(1.28162 0.337365 1.66019e-18)
(1.29072 0.32547 1.1053e-18)
(-0.052483 0.0179354 -3.72592e-18)
(-0.0883524 0.020915 1.37363e-19)
(-0.0932704 0.0187378 2.6673e-19)
(-0.0749643 0.00160924 5.31929e-19)
(0.146772 0.0134146 3.01305e-19)
(0.594932 0.134286 2.0409e-18)
(0.908263 0.210737 1.0761e-18)
(1.09162 0.263461 -2.8772e-19)
(1.18424 0.298922 1.39734e-18)
(1.22916 0.319927 9.09652e-19)
(1.24747 0.334131 4.21819e-19)
(1.25944 0.334686 -1.0485e-18)
(1.26879 0.336892 3.42325e-18)
(1.27395 0.331267 5.78027e-19)
(1.28424 0.319728 -1.20891e-18)
(-0.0543562 0.0186845 3.43778e-18)
(-0.0897383 0.0258493 -2.47176e-18)
(-0.0895814 0.0316892 7.85802e-19)
(-0.0441595 0.000937905 -8.63645e-20)
(0.300804 0.07913 4.21023e-18)
(0.727964 0.180556 -3.45461e-19)
(1.00126 0.245325 -1.29593e-18)
(1.1468 0.285693 3.09053e-18)
(1.21461 0.311545 2.79458e-19)
(1.24199 0.324702 1.20729e-18)
(1.25358 0.334472 -2.40272e-18)
(1.26132 0.333522 5.68303e-20)
(1.26414 0.333293 -1.06654e-18)
(1.27196 0.327299 -2.11813e-19)
(1.27978 0.318565 -6.94574e-19)
(-0.0547155 0.017683 -9.20975e-19)
(-0.0877585 0.0292738 2.57931e-18)
(-0.0863073 0.0373768 1.57349e-18)
(0.0142879 0.000311647 1.27505e-18)
(0.460816 0.128468 -6.81574e-19)
(0.84566 0.218107 -2.68434e-19)
(1.07449 0.272642 1.72638e-18)
(1.18767 0.303779 -1.31065e-18)
(1.23365 0.320844 3.96878e-19)
(1.25101 0.329221 -2.02847e-18)
(1.25628 0.33551 1.39561e-19)
(1.25958 0.331378 3.05345e-19)
(1.26349 0.332505 -4.40442e-19)
(1.26737 0.32465 -2.58907e-18)
(1.27062 0.314303 1.06389e-18)
(-0.0537576 0.0153134 -1.62138e-18)
(-0.0833017 0.0324387 -2.038e-18)
(-0.0814034 0.0345167 1.08505e-18)
(0.103342 0.0276997 -1.48477e-19)
(0.59517 0.171281 -1.73685e-18)
(0.939937 0.251784 -5.71383e-20)
(1.12979 0.296587 -1.2159e-18)
(1.2153 0.318648 -2.32744e-18)
(1.24684 0.329416 -9.12809e-19)
(1.25542 0.333347 8.41986e-19)
(1.25677 0.335948 7.66031e-19)
(1.25963 0.331719 -7.62951e-20)
(1.2593 0.331396 -1.1921e-18)
(1.26251 0.321112 2.13854e-18)
(1.26725 0.314315 6.46945e-19)
(-0.0518327 0.0120224 1.5929e-18)
(-0.0788946 0.0338539 -2.50138e-21)
(-0.0675693 0.020026 -2.65982e-18)
(0.231642 0.0776017 -6.07115e-20)
(0.716583 0.20905 4.10323e-19)
(1.01974 0.27968 7.40496e-19)
(1.17231 0.315177 -1.29038e-18)
(1.23522 0.330532 6.43936e-19)
(1.25411 0.336005 -3.02436e-20)
(1.25749 0.336794 6.88587e-19)
(1.25692 0.337697 -6.11416e-19)
(1.25643 0.331424 -1.69878e-18)
(1.25636 0.330806 -8.16869e-20)
(1.25934 0.320376 -1.03249e-18)
(1.25911 0.312913 -8.72401e-19)
(-0.0495267 0.00941851 6.43553e-19)
(-0.0779197 0.0305179 -1.31956e-18)
(-0.032792 -0.000432725 1.34806e-18)
(0.384966 0.12477 -4.21992e-19)
(0.824042 0.23971 -2.36522e-19)
(1.08098 0.302285 -6.5165e-19)
(1.20201 0.330826 1.0289e-18)
(1.24677 0.340402 6.41662e-19)
(1.25796 0.342099 -3.74894e-19)
(1.25782 0.340681 -1.0431e-18)
(1.2548 0.338786 -3.72558e-19)
(1.25453 0.332436 1.74212e-18)
(1.25284 0.331291 1.05225e-18)
(1.25351 0.318281 1.02049e-18)
(1.25421 0.312966 -3.06955e-19)
(-0.0473124 0.00981875 -4.07568e-19)
(-0.0800496 0.0217975 1.44932e-19)
(0.0280667 -0.00747777 -5.50551e-19)
(0.527327 0.164485 -1.67133e-20)
(0.915695 0.267428 -4.29294e-19)
(1.12999 0.321404 -6.30666e-19)
(1.22378 0.343185 2.20436e-19)
(1.25467 0.348439 -1.27191e-18)
(1.25938 0.347283 1.10248e-18)
(1.25647 0.343784 1.37818e-18)
(1.25319 0.340914 1.71317e-19)
(1.25097 0.33362 -1.51303e-18)
(1.24839 0.331092 -1.44934e-18)
(1.24989 0.3183 -1.07631e-18)
(1.24797 0.313832 4.22269e-19)
(-0.0454916 0.0138941 -1.29773e-18)
(-0.0803064 0.00849014 3.52901e-19)
(0.117739 0.0168303 -2.48512e-19)
(0.648284 0.200478 1.12723e-20)
(0.992383 0.292253 -1.09966e-19)
(1.16713 0.337219 -2.34554e-19)
(1.23778 0.353446 4.44531e-19)
(1.25769 0.355342 -2.46697e-19)
(1.25854 0.352066 -3.14772e-19)
(1.2546 0.347528 -6.04399e-19)
(1.2499 0.342781 -5.31013e-19)
(1.24749 0.335062 -2.41519e-19)
(1.24478 0.332276 9.00377e-19)
(1.24425 0.317901 -3.46523e-20)
(1.24172 0.31406 6.80736e-19)
(-0.0449408 0.0191044 5.40197e-19)
(-0.0711133 -0.00755518 9.12844e-19)
(0.236131 0.0643975 1.44148e-19)
(0.752552 0.231548 5.63231e-19)
(1.05435 0.313896 1.22626e-18)
(1.19546 0.350969 4.49219e-19)
(1.24729 0.362064 1.63041e-18)
(1.25919 0.361288 8.44816e-19)
(1.25706 0.356597 5.2584e-19)
(1.25159 0.350694 1.18619e-18)
(1.24692 0.345163 3.61918e-19)
(1.24365 0.33714 6.53407e-19)
(1.23971 0.332745 3.20895e-19)
(1.23955 0.318344 1.46477e-19)
(1.23636 0.315869 4.7117e-19)
(-0.046316 0.0208204 7.47874e-19)
(-0.0467202 -0.0204822 -1.28637e-18)
(0.372077 0.113881 -2.43817e-19)
(0.843703 0.258269 5.7747e-19)
(1.10365 0.332148 -1.22951e-18)
(1.2159 0.362383 -4.98435e-19)
(1.25252 0.369447 -1.00172e-18)
(1.25812 0.366745 -3.05858e-20)
(1.25398 0.360843 -2.6002e-19)
(1.24835 0.354364 -9.99019e-19)
(1.24295 0.347672 7.50605e-19)
(1.23913 0.339015 5.65402e-20)
(1.23546 0.334199 -3.13947e-20)
(1.23415 0.319241 2.56402e-19)
(1.22968 0.316634 -5.7834e-19)
(-0.0495346 0.0156021 -5.36496e-20)
(-0.00596214 -0.0237384 5.51996e-19)
(0.503001 0.157095 1.48281e-19)
(0.923453 0.282882 -8.06093e-19)
(1.14239 0.347815 5.39597e-19)
(1.23025 0.372315 1.70373e-19)
(1.25518 0.376154 -4.44631e-19)
(1.25641 0.371859 -2.08541e-19)
(1.25097 0.365189 -6.23509e-19)
(1.24443 0.357774 1.07879e-19)
(1.23891 0.350328 -7.2657e-19)
(1.23478 0.341552 -5.06711e-19)
(1.23013 0.335362 1.33051e-19)
(1.22858 0.320189 1.34566e-19)
(1.22422 0.318565 -2.32093e-19)
(-0.0543143 0.00200272 -2.77755e-19)
(0.0520218 -0.0159253 -1.72862e-19)
(0.61581 0.194275 3.94129e-19)
(0.992221 0.306794 6.93835e-19)
(1.17323 0.361952 1.33555e-19)
(1.23989 0.38088 -3.67882e-19)
(1.2555 0.38217 4.59695e-19)
(1.25337 0.376836 3.95911e-19)
(1.2468 0.369392 2.03256e-19)
(1.24022 0.361491 3.76305e-20)
(1.23436 0.353291 2.33396e-19)
(1.22959 0.343856 1.01556e-19)
(1.22512 0.337023 -6.92424e-20)
(1.22308 0.321862 -8.69932e-20)
(1.21765 0.319847 7.48993e-20)
(-0.0590614 -0.0182803 -1.29747e-19)
(0.131843 0.00729726 -1.49585e-19)
(0.712848 0.226928 1.21107e-19)
(1.04935 0.32915 -1.65374e-19)
(1.19726 0.375112 -3.48849e-19)
(1.24601 0.388893 2.72878e-20)
(1.25436 0.388057 2.11615e-19)
(1.2499 0.38178 -1.89365e-19)
(1.24276 0.373818 1.24012e-19)
(1.23562 0.365203 2.46834e-19)
(1.2295 0.356264 3.90769e-20)
(1.22459 0.346638 9.54107e-20)
(1.21952 0.338734 -1.13366e-19)
(1.21699 0.323336 7.60305e-20)
(1.21182 0.321605 -5.47227e-20)
(-0.0613011 -0.0396515 -4.15679e-20)
(0.227649 0.0428081 -1.60845e-20)