/*--------------------------------*- C++ -*----------------------------------*\
  =========                 |
  \\      /  F ield         | OpenFOAM: The Open Source CFD Toolbox
   \\    /   O peration     | Website:  https://openfoam.org
    \\  /    A nd           | Version:  7
     \\/     M anipulation  |
\*---------------------------------------------------------------------------*/
FoamFile
{
    version     2.0;
    format      ascii;
    class       volScalarField;
    location    "1.9998";
    object      p;
}
// * * * * * * * * * * * * * * * * * * * * * * * * * * * * * * * * * * * * * //

dimensions      [0 2 -2 0 0 0 0];

internalField   nonuniform List<scalar> 
18750
(
-0.346255
-0.369394
-0.409303
-0.462643
-0.522371
-0.581962
-0.632409
-0.663789
-0.667337
-0.63687
-0.570288
-0.472807
-0.356861
-0.231526
-0.111496
-0.354698
-0.377242
-0.416679
-0.469753
-0.529541
-0.589595
-0.640886
-0.673359
-0.678079
-0.648664
-0.582609
-0.484457
-0.366402
-0.239877
-0.121581
-0.371265
-0.392652
-0.43116
-0.483717
-0.543627
-0.604611
-0.657628
-0.692387
-0.699582
-0.672353
-0.60743
-0.508157
-0.38626
-0.257235
-0.141027
-0.395339
-0.415081
-0.452249
-0.504089
-0.564232
-0.626679
-0.682444
-0.720933
-0.732213
-0.708591
-0.645536
-0.544939
-0.4181
-0.285383
-0.168521
-0.426052
-0.44376
-0.479264
-0.530299
-0.590906
-0.655496
-0.715289
-0.759376
-0.776852
-0.758693
-0.698539
-0.596727
-0.464391
-0.326355
-0.203445
-0.462334
-0.477696
-0.511359
-0.561679
-0.623156
-0.690781
-0.756204
-0.808242
-0.834554
-0.824131
-0.768336
-0.665989
-0.527954
-0.381649
-0.246787
-0.502986
-0.515634
-0.54753
-0.597451
-0.660406
-0.732164
-0.805083
-0.867795
-0.906
-0.905901
-0.856382
-0.754668
-0.61086
-0.452505
-0.299704
-0.546556
-0.556156
-0.586627
-0.636678
-0.701899
-0.779031
-0.861402
-0.937602
-0.990929
-1.00385
-0.962413
-0.86256
-0.712884
-0.538777
-0.362961
-0.591295
-0.597717
-0.627363
-0.678238
-0.746604
-0.830348
-0.923994
-1.01628
-1.08779
-1.11622
-1.0844
-0.986814
-0.831014
-0.63871
-0.436639
-0.635238
-0.638617
-0.668319
-0.720776
-0.793136
-0.884552
-0.990861
-1.10118
-1.19321
-1.23884
-1.21748
-1.12164
-0.959418
-0.748729
-0.519617
-0.676307
-0.677086
-0.707964
-0.762704
-0.839734
-0.939501
-1.05912
-1.18824
-1.30187
-1.36517
-1.35371
-1.25851
-1.08989
-0.862967
-0.608336
-0.712353
-0.71145
-0.744687
-0.80225
-0.884343
-0.992597
-1.12523
-1.27241
-1.40702
-1.48711
-1.48384
-1.38773
-1.21299
-0.973586
-0.695427
-0.741335
-0.740419
-0.776838
-0.837542
-0.924719
-1.04091
-1.18522
-1.34813
-1.50126
-1.59605
-1.59866
-1.50016
-1.31958
-1.07194
-0.77364
-0.761421
-0.763159
-0.802758
-0.866805
-0.958703
-1.08154
-1.23532
-1.41031
-1.5777
-1.68407
-1.6901
-1.58791
-1.40286
-1.15061
-0.839798
-0.772332
-0.778239
-0.820991
-0.888623
-0.98445
-1.11191
-1.27208
-1.45463
-1.63057
-1.74478
-1.75154
-1.64555
-1.45953
-1.20761
-0.892312
-0.77408
-0.784648
-0.831107
-0.902115
-1.00061
-1.13013
-1.29285
-1.47876
-1.6562
-1.77414
-1.78008
-1.67313
-1.48892
-1.24181
-0.929518
-0.767276
-0.782628
-0.83324
-0.906902
-1.0063
-1.13554
-1.29604
-1.47827
-1.65349
-1.77093
-1.77634
-1.67142
-1.492
-1.25398
-0.951002
-0.753589
-0.773569
-0.828104
-0.90315
-1.00114
-1.12626
-1.27997
-1.4533
-1.62091
-1.73551
-1.74127
-1.64143
-1.47124
-1.24619
-0.957454
-0.735987
-0.759928
-0.817024
-0.891552
-0.985472
-1.10278
-1.24536
-1.40444
-1.56024
-1.66987
-1.67726
-1.58606
-1.42949
-1.22078
-0.949985
-0.718698
-0.744999
-0.801727
-0.873277
-0.960528
-1.06669
-1.1945
-1.33486
-1.47566
-1.57771
-1.58821
-1.50953
-1.37041
-1.18071
-0.93043
-0.706796
-0.732131
-0.784003
-0.84991
-0.928171
-1.02014
-1.13048
-1.24925
-1.37276
-1.46434
-1.47961
-1.41714
-1.2983
-1.12926
-0.900906
-0.704051
-0.722821
-0.765356
-0.82344
-0.890537
-0.965712
-1.05649
-1.15292
-1.25754
-1.33807
-1.3589
-1.31488
-1.21761
-1.06975
-0.863899
-0.709031
-0.713991
-0.747168
-0.796236
-0.84963
-0.906181
-0.975469
-1.05109
-1.13589
-1.20674
-1.23373
-1.20864
-1.13263
-1.00538
-0.821973
-0.713585
-0.700385
-0.731578
-0.770666
-0.807005
-0.844228
-0.890334
-0.948171
-1.01356
-1.07735
-1.11065
-1.10359
-1.04696
-0.938924
-0.777407
-0.713169
-0.686211
-0.721933
-0.748514
-0.764128
-0.781801
-0.804167
-0.846692
-0.895589
-0.954838
-0.994673
-1.0036
-0.963288
-0.8726
-0.732176
-0.70949
-0.682476
-0.718971
-0.730467
-0.723368
-0.719422
-0.720244
-0.747671
-0.785571
-0.842451
-0.889411
-0.91123
-0.883464
-0.807921
-0.687718
-0.706697
-0.695291
-0.719734
-0.716634
-0.687681
-0.657725
-0.641701
-0.653056
-0.687495
-0.742682
-0.797516
-0.827861
-0.808783
-0.745735
-0.644913
-0.707153
-0.708487
-0.722373
-0.707993
-0.658706
-0.600275
-0.570362
-0.567371
-0.60189
-0.657406
-0.720121
-0.753977
-0.740324
-0.686534
-0.603998
-0.708761
-0.717962
-0.728045
-0.704736
-0.635219
-0.552478
-0.506387
-0.496515
-0.529787
-0.589265
-0.656283
-0.689587
-0.679053
-0.631174
-0.564615
-0.707581
-0.721171
-0.734692
-0.704268
-0.615367
-0.516919
-0.45374
-0.442951
-0.474331
-0.539672
-0.60419
-0.634579
-0.62567
-0.581809
-0.526056
-0.701356
-0.717217
-0.736489
-0.701782
-0.600523
-0.492832
-0.42
-0.404311
-0.440038
-0.505662
-0.562796
-0.588774
-0.580353
-0.541169
-0.488248
-0.688982
-0.706444
-0.728132
-0.694281
-0.59275
-0.481045
-0.40761
-0.386643
-0.42622
-0.483815
-0.53129
-0.551592
-0.542679
-0.507886
-0.457201
-0.670993
-0.689184
-0.710483
-0.681267
-0.592073
-0.485736
-0.409785
-0.394442
-0.426177
-0.471902
-0.508278
-0.522024
-0.512027
-0.479621
-0.43347
-0.648928
-0.666765
-0.686772
-0.666331
-0.596244
-0.505561
-0.428831
-0.4163
-0.435699
-0.467236
-0.491884
-0.498844
-0.486933
-0.45669
-0.416173
-0.625648
-0.641978
-0.660571
-0.6532
-0.610951
-0.533718
-0.472977
-0.444972
-0.449939
-0.466984
-0.480285
-0.480587
-0.466726
-0.438126
-0.402047
-0.604431
-0.618666
-0.636739
-0.64522
-0.638478
-0.56893
-0.515984
-0.476318
-0.465314
-0.468683
-0.471752
-0.466145
-0.450143
-0.422822
-0.390398
-0.587763
-0.599108
-0.617374
-0.641239
-0.661607
-0.617452
-0.551389
-0.502828
-0.478919
-0.470587
-0.465051
-0.454315
-0.436453
-0.410105
-0.379923
-0.577061
-0.586022
-0.603746
-0.644305
-0.672261
-0.65557
-0.579826
-0.522929
-0.489198
-0.471695
-0.459236
-0.444397
-0.424848
-0.398942
-0.370646
-0.572474
-0.579813
-0.594397
-0.650565
-0.672377
-0.667651
-0.597112
-0.536266
-0.495779
-0.471502
-0.453797
-0.435681
-0.414725
-0.389215
-0.362051
-0.570592
-0.577597
-0.586696
-0.646225
-0.663689
-0.659441
-0.602257
-0.543078
-0.49902
-0.470003
-0.44836
-0.427794
-0.405726
-0.380289
-0.354143
-0.569553
-0.575798
-0.580204
-0.627485
-0.650002
-0.643965
-0.598054
-0.543924
-0.499301
-0.467318
-0.44285
-0.420435
-0.397454
-0.372199
-0.346737
-0.568459
-0.572057
-0.574765
-0.598392
-0.632233
-0.62605
-0.5882
-0.540205
-0.497106
-0.463677
-0.437209
-0.413434
-0.389797
-0.364589
-0.339718
-0.567065
-0.567327
-0.569188
-0.564289
-0.610051
-0.607588
-0.575954
-0.533559
-0.49295
-0.459207
-0.431473
-0.406704
-0.382511
-0.357463
-0.333056
-0.565477
-0.562312
-0.564717
-0.53688
-0.585406
-0.588711
-0.562855
-0.525364
-0.48745
-0.454112
-0.425651
-0.400162
-0.375591
-0.350653
-0.326597
-0.563682
-0.557838
-0.559053
-0.529584
-0.564421
-0.570378
-0.549783
-0.516515
-0.481122
-0.448535
-0.419763
-0.393794
-0.368894
-0.344116
-0.320387
-0.561721
-0.556447
-0.549528
-0.540789
-0.552748
-0.554574
-0.537128
-0.507431
-0.474332
-0.442654
-0.413835
-0.387542
-0.362434
-0.337801
-0.314282
-0.560487
-0.560134
-0.5383
-0.552025
-0.549542
-0.543012
-0.525603
-0.498411
-0.467295
-0.436551
-0.407868
-0.381403
-0.356122
-0.331641
-0.308331
-0.560288
-0.568833
-0.530795
-0.554699
-0.548235
-0.535143
-0.515783
-0.489781
-0.460199
-0.430332
-0.401886
-0.375327
-0.34996
-0.325627
-0.302425
-0.561596
-0.576722
-0.535312
-0.551643
-0.545597
-0.529209
-0.507701
-0.481823
-0.453193
-0.424039
-0.395868
-0.369304
-0.343884
-0.319687
-0.296593
-0.564895
-0.580358
-0.552396
-0.550862
-0.541854
-0.523899
-0.500852
-0.474605
-0.446412
-0.417754
-0.389837
-0.363291
-0.337875
-0.31382
-0.290759
-0.570052
-0.578684
-0.570852
-0.55507
-0.539151
-0.518957
-0.494768
-0.468019
-0.439898
-0.411507
-0.383777
-0.357278
-0.331892
-0.307954
-0.284924
-0.577309
-0.572027
-0.583254
-0.56144
-0.538472
-0.5148
-0.489198
-0.461868
-0.433619
-0.405319
-0.3777
-0.351235
-0.325906
-0.30209
-0.279046
-0.58821
-0.567107
-0.588876
-0.567216
-0.5392
-0.511672
-0.484162
-0.456034
-0.427502
-0.399161
-0.371581
-0.345149
-0.319889
-0.296166
-0.273117
-0.603076
-0.571335
-0.590758
-0.57119
-0.54027
-0.509332
-0.479627
-0.450443
-0.421483
-0.393005
-0.365412
-0.338996
-0.313807
-0.290175
-0.267123
-0.620374
-0.586629
-0.592804
-0.573111
-0.540732
-0.507251
-0.475449
-0.44504
-0.415506
-0.386807
-0.359158
-0.332753
-0.307636
-0.284079
-0.261067
-0.637208
-0.609814
-0.597681
-0.573678
-0.540096
-0.504898
-0.471362
-0.439731
-0.409534
-0.380542
-0.352801
-0.326395
-0.301352
-0.277886
-0.254955
-0.651221
-0.632732
-0.605347
-0.573924
-0.538329
-0.501917
-0.467099
-0.434389
-0.403505
-0.37417
-0.346304
-0.319899
-0.294944
-0.271582
-0.248788
-0.659685
-0.649427
-0.612562
-0.574119
-0.535769
-0.498228
-0.46247
-0.428887
-0.39736
-0.367659
-0.339647
-0.313237
-0.288376
-0.265155
-0.242576
-0.66157
-0.658167
-0.617165
-0.573834
-0.532722
-0.493941
-0.4574
-0.423116
-0.39102
-0.360965
-0.332796
-0.306374
-0.281615
-0.258577
-0.236319
-0.658212
-0.660123
-0.61871
-0.572657
-0.529292
-0.489208
-0.451896
-0.417012
-0.384429
-0.354049
-0.32572
-0.299272
-0.27462
-0.251829
-0.229984
-0.654124
-0.658021
-0.617636
-0.57041
-0.525434
-0.484105
-0.445992
-0.410544
-0.377532
-0.346863
-0.31838
-0.291902
-0.267368
-0.244859
-0.223463
-0.650943
-0.654454
-0.614798
-0.567149
-0.521071
-0.478636
-0.439706
-0.403698
-0.370296
-0.339368
-0.310743
-0.284235
-0.259822
-0.237597
-0.21664
-0.649822
-0.650914
-0.610961
-0.563029
-0.516153
-0.472764
-0.433031
-0.396458
-0.362684
-0.331524
-0.302771
-0.276248
-0.251964
-0.229989
-0.209379
-0.65099
-0.648053
-0.606681
-0.558238
-0.510662
-0.466432
-0.425936
-0.388803
-0.35467
-0.323295
-0.294434
-0.267921
-0.243795
-0.222049
-0.201521
-0.654128
-0.646003
-0.602246
-0.552908
-0.504594
-0.459584
-0.418371
-0.380695
-0.346217
-0.314646
-0.285709
-0.259245
-0.235328
-0.213822
-0.192975
-0.658617
-0.644677
-0.597774
-0.547119
-0.497942
-0.452161
-0.41027
-0.372087
-0.337291
-0.305556
-0.276579
-0.250209
-0.226548
-0.205298
-0.18387
-0.663675
-0.643874
-0.593232
-0.540862
-0.490668
-0.444102
-0.401568
-0.362926
-0.32786
-0.296005
-0.267027
-0.240809
-0.21743
-0.196391
-0.174484
-0.668504
-0.643256
-0.588483
-0.534069
-0.482705
-0.435333
-0.392206
-0.353175
-0.3179
-0.285979
-0.257051
-0.231051
-0.207974
-0.187069
-0.164987
-0.672471
-0.642205
-0.583269
-0.526607
-0.473962
-0.425791
-0.382148
-0.342809
-0.307397
-0.275471
-0.246671
-0.220934
-0.198241
-0.177186
-0.155432
-0.675089
-0.640039
-0.577266
-0.518322
-0.46436
-0.415429
-0.371363
-0.331804
-0.296337
-0.264478
-0.235893
-0.210475
-0.188074
-0.166889
-0.14573
-0.675935
-0.636297
-0.570151
-0.509051
-0.453828
-0.404209
-0.359821
-0.320148
-0.284714
-0.25302
-0.224674
-0.199613
-0.177438
-0.156292
-0.135798
-0.674672
-0.630683
-0.561653
-0.498643
-0.442293
-0.392098
-0.347508
-0.307836
-0.272528
-0.24103
-0.213
-0.188321
-0.166362
-0.145428
-0.125606
-0.671048
-0.623002
-0.551569
-0.486962
-0.429691
-0.379083
-0.334424
-0.294852
-0.259715
-0.228495
-0.200854
-0.176587
-0.154898
-0.134281
-0.11515
-0.66489
-0.613134
-0.539754
-0.473903
-0.415992
-0.365166
-0.320544
-0.281128
-0.246257
-0.215407
-0.188224
-0.164417
-0.143075
-0.122841
-0.10444
-0.656099
-0.601029
-0.52611
-0.459403
-0.401196
-0.350314
-0.305788
-0.266641
-0.232146
-0.20176
-0.175108
-0.151818
-0.130898
-0.111106
-0.0934895
-0.644638
-0.586719
-0.510574
-0.44345
-0.38526
-0.334432
-0.290141
-0.251386
-0.217379
-0.187553
-0.161506
-0.138798
-0.118366
-0.0990737
-0.0823088
-0.63052
-0.570318
-0.49312
-0.426061
-0.36804
-0.317491
-0.273601
-0.235366
-0.201959
-0.172791
-0.147427
-0.125361
-0.105475
-0.086744
-0.0709078
-0.613788
-0.551933
-0.473786
-0.407118
-0.349529
-0.299493
-0.256174
-0.218593
-0.185899
-0.157484
-0.13288
-0.111512
-0.0922263
-0.0741215
-0.0592913
-0.594517
-0.531521
-0.452726
-0.386577
-0.329741
-0.280452
-0.237879
-0.201083
-0.169213
-0.141646
-0.117876
-0.097261
-0.078629
-0.0612175
-0.0474526
-0.572823
-0.508788
-0.430133
-0.36458
-0.308717
-0.260394
-0.218738
-0.182859
-0.151924
-0.125298
-0.102432
-0.0826166
-0.0646917
-0.0480458
-0.0353841
-0.548876
-0.483333
-0.406248
-0.341313
-0.286529
-0.239351
-0.198777
-0.163948
-0.134059
-0.108466
-0.0865673
-0.0675929
-0.050424
-0.0346143
-0.0231055
-0.522849
-0.455404
-0.380842
-0.316901
-0.263271
-0.217374
-0.178031
-0.144384
-0.11565
-0.0911765
-0.0703059
-0.0522094
-0.0358415
-0.0209375
-0.0107
-0.494809
-0.425506
-0.353792
-0.291378
-0.23903
-0.194523
-0.156543
-0.124202
-0.0967298
-0.07346
-0.0536735
-0.0364962
-0.020988
-0.00707891
0.00173285
-0.46465
-0.394276
-0.325197
-0.26472
-0.213867
-0.170865
-0.134364
-0.103443
-0.0773318
-0.0553406
-0.0366906
-0.0204901
-0.00594389
0.00682519
0.0141926
-0.432385
-0.362068
-0.295276
-0.23695
-0.187834
-0.146468
-0.111552
-0.0821533
-0.0574896
-0.036837
-0.0193679
-0.00422256
0.00919962
0.0206119
0.026739
-0.398211
-0.328914
-0.264237
-0.208159
-0.160985
-0.121397
-0.0881707
-0.0603844
-0.0372381
-0.0179654
-0.00170992
0.012291
0.0243897
0.0341677
0.0390861
-0.362401
-0.294758
-0.232237
-0.178477
-0.133397
-0.0957209
-0.064284
-0.0381896
-0.016615
0.00125276
0.0162727
0.029046
0.0396253
0.0473919
0.0502583
-0.3252
-0.259608
-0.199394
-0.148035
-0.105162
-0.0695125
-0.0399588
-0.0156249
0.00433729
0.0207829
0.0345416
0.0460073
0.0548866
0.0601334
0.0594369
-0.286825
-0.223553
-0.165817
-0.116953
-0.0763791
-0.0428532
-0.0152642
0.00725184
0.0255704
0.0405721
0.0530153
0.063063
0.0700559
0.0724449
0.067825
-0.247474
-0.186722
-0.131617
-0.0853453
-0.0471518
-0.0158284
0.00972803
0.0303804
0.0470284
0.06055
0.0715808
0.0800402
0.0849752
0.0849475
0.0794221
-0.207332
-0.149264
-0.0969153
-0.0533244
-0.0175832
0.0114733
0.0349437
0.0536963
0.0686461
0.0806327
0.090128
0.0968235
0.0996782
0.0980934
0.0977317
-0.166581
-0.111332
-0.0618388
-0.0210032
0.0122239
0.038962
0.0603058
0.0771298
0.0903487
0.100731
0.10858
0.113443
0.114478
0.11232
0.115611
-0.125396
-0.0730829
-0.02652
0.0115033
0.0421668
0.0665471
0.0857349
0.100606
0.112056
0.120764
0.126899
0.129997
0.129611
0.127547
0.132275
-0.0839529
-0.0346678
0.00890797
0.0440785
0.0721425
0.0941376
0.111149
0.124046
0.13369
0.140671
0.145078
0.14653
0.144989
0.14301
0.147749
-0.0424213
0.00376236
0.044312
0.0766056
0.102048
0.121642
0.136464
0.14737
0.155179
0.160408
0.163119
0.163064
0.160558
0.158412
0.162224
-0.000970319
0.0420599
0.0795609
0.108968
0.13178
0.148967
0.161595
0.1705
0.176458
0.179933
0.180994
0.17952
0.176065
0.173434
0.176083
0.0402354
0.0800799
0.114525
0.141052
0.161237
0.176022
0.186459
0.193361
0.197467
0.199206
0.198675
0.195859
0.191443
0.188058
0.189434
0.0810338
0.11768
0.149078
0.172742
0.190316
0.202714
0.210974
0.215882
0.218148
0.218177
0.216089
0.211948
0.20652
0.202281
0.202418
0.121268
0.154723
0.183096
0.203929
0.218919
0.228955
0.235058
0.237992
0.238442
0.236799
0.233204
0.227768
0.221284
0.216087
0.215007
0.160783
0.191073
0.216458
0.234503
0.246948
0.254657
0.258634
0.259624
0.258287
0.255002
0.249922
0.243203
0.235666
0.229524
0.227226
0.199432
0.226599
0.249047
0.264358
0.274307
0.279733
0.281625
0.28071
0.277628
0.272747
0.266222
0.258237
0.249631
0.242514
0.239032
0.237071
0.261175
0.280749
0.293393
0.300904
0.304102
0.303959
0.301183
0.296397
0.289955
0.28202
0.272806
0.263168
0.25509
0.250414
0.27356
0.29468
0.311454
0.321509
0.326651
0.327684
0.325563
0.320983
0.314545
0.30659
0.297286
0.286869
0.276209
0.267178
0.261338
0.308769
0.326995
0.341059
0.348609
0.351462
0.350401
0.346369
0.340042
0.332006
0.322588
0.311964
0.300399
0.288759
0.27878
0.27178
0.342569
0.358011
0.369461
0.374605
0.375254
0.372181
0.36631
0.358305
0.348732
0.337907
0.326013
0.313339
0.30075
0.289849
0.281714
0.37484
0.387619
0.396566
0.39941
0.397952
0.392952
0.385322
0.375711
0.364667
0.352498
0.339398
0.325674
0.312174
0.30036
0.291114
0.405469
0.41572
0.422283
0.422941
0.419479
0.412649
0.403348
0.392209
0.379766
0.366317
0.352068
0.33735
0.322987
0.310292
0.299961
0.434347
0.44222
0.446527
0.445121
0.439768
0.431209
0.420327
0.407745
0.39398
0.379327
0.364001
0.348347
0.333159
0.31961
0.308232
0.461374
0.467029
0.469218
0.46588
0.458752
0.448573
0.43621
0.422274
0.407267
0.391483
0.375151
0.358629
0.342667
0.328296
0.315912
0.486457
0.490065
0.490282
0.485149
0.476372
0.464685
0.450945
0.43575
0.419591
0.402758
0.385493
0.368164
0.351477
0.336326
0.322984
0.509509
0.511254
0.509652
0.502869
0.492573
0.479498
0.464488
0.448131
0.430909
0.413113
0.394995
0.376928
0.359568
0.34368
0.329435
0.53045
0.530528
0.527268
0.518982
0.507302
0.492963
0.476797
0.459383
0.441193
0.422519
0.403628
0.384894
0.366917
0.350341
0.335253
0.549208
0.54783
0.543075
0.533438
0.520515
0.505039
0.487834
0.469469
0.45041
0.430951
0.411369
0.392037
0.373501
0.356293
0.34043
0.56572
0.563106
0.557026
0.546192
0.532169
0.515688
0.497566
0.478361
0.458534
0.438382
0.418194
0.398337
0.379303
0.361522
0.344958
0.579946
0.576303
0.569074
0.557202
0.542228
0.524878
0.505962
0.486031
0.465541
0.444792
0.424083
0.403775
0.384307
0.366018
0.348834
0.591868
0.587361
0.579175
0.566432
0.550659
0.53258
0.512998
0.492457
0.471411
0.450162
0.429018
0.408334
0.388498
0.369771
0.352056
0.601455
0.596243
0.587294
0.57385
0.557435
0.53877
0.518652
0.497621
0.476127
0.454476
0.432985
0.412
0.391865
0.372777
0.354625
0.608675
0.602925
0.593405
0.579435
0.562536
0.543429
0.522907
0.501506
0.479675
0.457723
0.435971
0.41476
0.394398
0.375031
0.356546
0.613503
0.60739
0.597489
0.583167
0.565946
0.546543
0.525751
0.504103
0.482046
0.459893
0.437967
0.416605
0.39609
0.376532
0.357823
0.615922
0.609625
0.599533
0.585036
0.567653
0.548103
0.527175
0.505404
0.483234
0.460979
0.438966
0.417529
0.396937
0.377283
0.35846
0.615922
0.609625
0.599533
0.585036
0.567653
0.548103
0.527175
0.505404
0.483234
0.460979
0.438966
0.417529
0.396937
0.377283
0.35846
0.613503
0.60739
0.597489
0.583167
0.565946
0.546543
0.525751
0.504103
0.482046
0.459893
0.437967
0.416605
0.39609
0.376532
0.357823
0.608675
0.602925
0.593405
0.579435
0.562536
0.543429
0.522907
0.501506
0.479675
0.457723
0.435971
0.41476
0.394398
0.375031
0.356546
0.601455
0.596243
0.587294
0.57385
0.557435
0.53877
0.518652
0.497621
0.476126
0.454476
0.432985
0.412
0.391865
0.372777
0.354625
0.591868
0.587361
0.579175
0.566432
0.550659
0.53258
0.512998
0.492457
0.471411
0.450162
0.429018
0.408334
0.388498
0.369771
0.352056
0.579946
0.576303
0.569074
0.557202
0.542228
0.524878
0.505962
0.486031
0.465541
0.444792
0.424083
0.403775
0.384307
0.366018
0.348834
0.56572
0.563106
0.557026
0.546192
0.532169
0.515688
0.497566
0.478361
0.458534
0.438382
0.418194
0.398337
0.379303
0.361522
0.344958
0.549208
0.54783
0.543075
0.533438
0.520515
0.505039
0.487834
0.469469
0.45041
0.430951
0.411369
0.392037
0.373501
0.356293
0.340429
0.53045
0.530528
0.527268
0.518982
0.507302
0.492963
0.476797
0.459383
0.441193
0.422519
0.403628
0.384894
0.366917
0.350341
0.335253
0.509509
0.511254
0.509652
0.502869
0.492573
0.479498
0.464488
0.448131
0.430909
0.413113
0.394995
0.376928
0.359568
0.34368
0.329435
0.486457
0.490065
0.490282
0.485149
0.476372
0.464685
0.450945
0.43575
0.419591
0.402758
0.385493
0.368164
0.351477
0.336326
0.322984
0.461374
0.467029
0.469218
0.46588
0.458752
0.448573
0.43621
0.422274
0.407267
0.391483
0.375151
0.358629
0.342667
0.328296
0.315912
0.434347
0.44222
0.446527
0.445121
0.439767
0.431209
0.420327
0.407745
0.39398
0.379327
0.364001
0.348347
0.333159
0.31961
0.308232
0.405469
0.41572
0.422283
0.422941
0.419479
0.412649
0.403348
0.392209
0.379766
0.366317
0.352068
0.33735
0.322987
0.310292
0.299961
0.37484
0.387619
0.396566
0.39941
0.397951
0.392952
0.385322
0.375711
0.364667
0.352498
0.339398
0.325674
0.312174
0.30036
0.291114
0.342569
0.358011
0.369461
0.374605
0.375254
0.372181
0.36631
0.358305
0.348732
0.337907
0.326013
0.313339
0.30075
0.289848
0.281714
0.308769
0.326995
0.341058
0.348609
0.351461
0.350401
0.346368
0.340042
0.332006
0.322588
0.311964
0.300399
0.288759
0.27878
0.27178
0.27356
0.29468
0.311454
0.321508
0.326651
0.327684
0.325563
0.320983
0.314545
0.30659
0.297286
0.286869
0.276209
0.267178
0.261338
0.237071
0.261175
0.280749
0.293393
0.300904
0.304102
0.303959
0.301183
0.296397
0.289955
0.28202
0.272806
0.263168
0.25509
0.250414
0.199432
0.226599
0.249047
0.264358
0.274307
0.279733
0.281625
0.28071
0.277628
0.272746
0.266222
0.258237
0.249631
0.242514
0.239032
0.160783
0.191073
0.216458
0.234503
0.246947
0.254657
0.258634
0.259624
0.258287
0.255002
0.249922
0.243203
0.235666
0.229524
0.227226
0.121268
0.154723
0.183096
0.203929
0.218919
0.228955
0.235058
0.237992
0.238441
0.236799
0.233204
0.227768
0.221284
0.216087
0.215007
0.0810337
0.11768
0.149078
0.172742
0.190316
0.202714
0.210974
0.215882
0.218147
0.218177
0.216089
0.211948
0.20652
0.202281
0.202418
0.0402353
0.0800798
0.114525
0.141052
0.161237
0.176022
0.186459
0.193361
0.197467
0.199206
0.198675
0.195859
0.191443
0.188058
0.189434
-0.000970432
0.0420598
0.0795608
0.108968
0.13178
0.148967
0.161595
0.1705
0.176458
0.179933
0.180994
0.179519
0.176064
0.173434
0.176083
-0.0424214
0.00376226
0.0443119
0.0766055
0.102048
0.121642
0.136464
0.147369
0.155179
0.160407
0.163119
0.163064
0.160558
0.158412
0.162224
-0.083953
-0.034668
0.00890786
0.0440784
0.0721425
0.0941376
0.111149
0.124045
0.13369
0.140671
0.145078
0.14653
0.144989
0.14301
0.147749
-0.125396
-0.073083
-0.0265201
0.0115032
0.0421667
0.0665471
0.0857348
0.100606
0.112056
0.120764
0.126899
0.129997
0.129611
0.127547
0.132275
-0.166581
-0.111332
-0.0618389
-0.0210033
0.0122238
0.0389619
0.0603057
0.0771297
0.0903486
0.100731
0.10858
0.113443
0.114478
0.11232
0.115611
-0.207332
-0.149264
-0.0969154
-0.0533245
-0.0175833
0.0114732
0.0349436
0.0536962
0.0686461
0.0806326
0.090128
0.0968234
0.0996781
0.0980933
0.0977316
-0.247474
-0.186722
-0.131618
-0.0853454
-0.0471519
-0.0158285
0.00972794
0.0303803
0.0470283
0.0605499
0.0715808
0.0800402
0.0849751
0.0849474
0.0794221
-0.286825
-0.223553
-0.165817
-0.116953
-0.0763792
-0.0428533
-0.0152643
0.00725176
0.0255703
0.0405721
0.0530152
0.0630629
0.0700558
0.0724448
0.067825
-0.3252
-0.259608
-0.199395
-0.148035
-0.105162
-0.0695126
-0.0399589
-0.015625
0.00433721
0.0207828
0.0345415
0.0460073
0.0548865
0.0601333
0.0594369
-0.362401
-0.294758
-0.232237
-0.178477
-0.133398
-0.095721
-0.0642841
-0.0381897
-0.0166151
0.00125268
0.0162726
0.0290459
0.0396253
0.0473919
0.0502583
-0.398211
-0.328915
-0.264237
-0.208159
-0.160985
-0.121398
-0.0881708
-0.0603845
-0.0372382
-0.0179655
-0.00171
0.0122909
0.0243897
0.0341676
0.039086
-0.432386
-0.362068
-0.295276
-0.23695
-0.187834
-0.146468
-0.111552
-0.0821534
-0.0574897
-0.0368371
-0.019368
-0.00422264
0.00919956
0.0206118
0.0267389
-0.46465
-0.394276
-0.325198
-0.264721
-0.213868
-0.170865
-0.134364
-0.103443
-0.0773319
-0.0553407
-0.0366906
-0.0204901
-0.00594396
0.00682512
0.0141925
-0.494809
-0.425506
-0.353792
-0.291378
-0.23903
-0.194523
-0.156543
-0.124202
-0.0967299
-0.0734601
-0.0536736
-0.0364963
-0.020988
-0.00707898
0.00173279
-0.52285
-0.455404
-0.380842
-0.316902
-0.263271
-0.217374
-0.178031
-0.144384
-0.11565
-0.0911766
-0.070306
-0.0522095
-0.0358416
-0.0209376
-0.0107
-0.548876
-0.483333
-0.406248
-0.341313
-0.286529
-0.239351
-0.198777
-0.163949
-0.134059
-0.108466
-0.0865674
-0.0675929
-0.050424
-0.0346143
-0.0231055
-0.572823
-0.508789
-0.430134
-0.36458
-0.308717
-0.260394
-0.218738
-0.182859
-0.151924
-0.125298
-0.102432
-0.0826167
-0.0646918
-0.0480459
-0.0353842
-0.594517
-0.531522
-0.452726
-0.386577
-0.329741
-0.280452
-0.23788
-0.201083
-0.169213
-0.141646
-0.117877
-0.0972611
-0.0786291
-0.0612175
-0.0474527
-0.613788
-0.551934
-0.473786
-0.407118
-0.349529
-0.299493
-0.256175
-0.218593
-0.185899
-0.157484
-0.13288
-0.111512
-0.0922264
-0.0741216
-0.0592914
-0.63052
-0.570318
-0.49312
-0.426061
-0.36804
-0.317492
-0.273601
-0.235366
-0.20196
-0.172791
-0.147427
-0.125361
-0.105475
-0.086744
-0.0709079
-0.644638
-0.58672
-0.510574
-0.44345
-0.38526
-0.334432
-0.290141
-0.251386
-0.217379
-0.187553
-0.161507
-0.138798
-0.118366
-0.0990738
-0.0823089
-0.656099
-0.601029
-0.52611
-0.459404
-0.401196
-0.350314
-0.305788
-0.266641
-0.232146
-0.20176
-0.175108
-0.151818
-0.130898
-0.111106
-0.0934896
-0.66489
-0.613134
-0.539755
-0.473903
-0.415992
-0.365166
-0.320544
-0.281128
-0.246258
-0.215407
-0.188224
-0.164417
-0.143075
-0.122842
-0.10444
-0.671048
-0.623002
-0.551569
-0.486962
-0.429691
-0.379083
-0.334425
-0.294853
-0.259715
-0.228495
-0.200854
-0.176587
-0.154898
-0.134281
-0.11515
-0.674672
-0.630683
-0.561653
-0.498644
-0.442293
-0.392098
-0.347508
-0.307836
-0.272528
-0.24103
-0.213
-0.188321
-0.166362
-0.145428
-0.125606
-0.675935
-0.636297
-0.570151
-0.509051
-0.453828
-0.404209
-0.359821
-0.320148
-0.284714
-0.25302
-0.224674
-0.199614
-0.177438
-0.156292
-0.135798
-0.67509
-0.640039
-0.577267
-0.518322
-0.464361
-0.415429
-0.371363
-0.331804
-0.296337
-0.264478
-0.235894
-0.210475
-0.188074
-0.166889
-0.14573
-0.672472
-0.642205
-0.583269
-0.526608
-0.473962
-0.425791
-0.382148
-0.342809
-0.307397
-0.275471
-0.246671
-0.220935
-0.198241
-0.177186
-0.155432
-0.668505
-0.643256
-0.588483
-0.534069
-0.482705
-0.435333
-0.392206
-0.353175
-0.317901
-0.28598
-0.257051
-0.231051
-0.207974
-0.187069
-0.164987
-0.663675
-0.643874
-0.593232
-0.540863
-0.490669
-0.444102
-0.401568
-0.362926
-0.32786
-0.296005
-0.267027
-0.24081
-0.21743
-0.196391
-0.174484
-0.658617
-0.644678
-0.597774
-0.54712
-0.497942
-0.452162
-0.41027
-0.372087
-0.337292
-0.305556
-0.276579
-0.25021
-0.226548
-0.205298
-0.18387
-0.654128
-0.646003
-0.602246
-0.552909
-0.504594
-0.459585
-0.418371
-0.380696
-0.346217
-0.314646
-0.285709
-0.259246
-0.235328
-0.213822
-0.192975
-0.65099
-0.648053
-0.606681
-0.558238
-0.510662
-0.466432
-0.425936
-0.388803
-0.35467
-0.323295
-0.294434
-0.267921
-0.243795
-0.222049
-0.201521
-0.649822
-0.650914
-0.610961
-0.563029
-0.516153
-0.472765
-0.433031
-0.396458
-0.362684
-0.331524
-0.302772
-0.276248
-0.251964
-0.229989
-0.209379
-0.650943
-0.654454
-0.614798
-0.567149
-0.521072
-0.478637
-0.439706
-0.403698
-0.370296
-0.339368
-0.310743
-0.284235
-0.259822
-0.237597
-0.21664
-0.654124
-0.658021
-0.617636
-0.57041
-0.525434
-0.484105
-0.445992
-0.410544
-0.377532
-0.346863
-0.31838
-0.291902
-0.267368
-0.244859
-0.223463
-0.658213
-0.660123
-0.61871
-0.572657
-0.529293
-0.489208
-0.451897
-0.417013
-0.384429
-0.354049
-0.32572
-0.299272
-0.274621
-0.251829
-0.229984
-0.66157
-0.658167
-0.617165
-0.573834
-0.532723
-0.493941
-0.4574
-0.423116
-0.39102
-0.360965
-0.332796
-0.306374
-0.281615
-0.258577
-0.236319
-0.659686
-0.649427
-0.612562
-0.574119
-0.535769
-0.498228
-0.46247
-0.428888
-0.39736
-0.367659
-0.339647
-0.313237
-0.288376
-0.265155
-0.242576
-0.651221
-0.632732
-0.605347
-0.573925
-0.538329
-0.501917
-0.467099
-0.434389
-0.403505
-0.37417
-0.346304
-0.319899
-0.294944
-0.271582
-0.248788
-0.637209
-0.609814
-0.597682
-0.573679
-0.540097
-0.504898
-0.471362
-0.439731
-0.409534
-0.380542
-0.352801
-0.326396
-0.301353
-0.277887
-0.254955
-0.620375
-0.58663
-0.592805
-0.573112
-0.540733
-0.507251
-0.475449
-0.44504
-0.415506
-0.386807
-0.359158
-0.332753
-0.307636
-0.284079
-0.261067
-0.603077
-0.571335
-0.590758
-0.57119
-0.54027
-0.509332
-0.479627
-0.450443
-0.421483
-0.393005
-0.365412
-0.338996
-0.313807
-0.290175
-0.267123
-0.58821
-0.567107
-0.588876
-0.567216
-0.5392
-0.511672
-0.484163
-0.456034
-0.427502
-0.399161
-0.371581
-0.34515
-0.319889
-0.296166
-0.273117
-0.577309
-0.572028
-0.583254
-0.561441
-0.538472
-0.514801
-0.489198
-0.461868
-0.433619
-0.405319
-0.3777
-0.351235
-0.325906
-0.30209
-0.279046
-0.570052
-0.578684
-0.570852
-0.55507
-0.539151
-0.518958
-0.494768
-0.468019
-0.439898
-0.411507
-0.383777
-0.357278
-0.331892
-0.307955
-0.284924
-0.564895
-0.580359
-0.552396
-0.550862
-0.541854
-0.523899
-0.500852
-0.474606
-0.446412
-0.417754
-0.389837
-0.363291
-0.337875
-0.31382
-0.290759
-0.561596
-0.576722
-0.535312
-0.551644
-0.545598
-0.529209
-0.507701
-0.481823
-0.453193
-0.424039
-0.395868
-0.369304
-0.343884
-0.319687
-0.296593
-0.560288
-0.568833
-0.530795
-0.554699
-0.548235
-0.535143
-0.515783
-0.489781
-0.4602
-0.430332
-0.401886
-0.375327
-0.34996
-0.325627
-0.302425
-0.560487
-0.560134
-0.5383
-0.552025
-0.549542
-0.543012
-0.525604
-0.498411
-0.467296
-0.436551
-0.407868
-0.381403
-0.356123
-0.331641
-0.308331
-0.561722
-0.556447
-0.549528
-0.540789
-0.552748
-0.554574
-0.537128
-0.507431
-0.474333
-0.442654
-0.413835
-0.387542
-0.362434
-0.337802
-0.314282
-0.563682
-0.557838
-0.559053
-0.529584
-0.564421
-0.570378
-0.549784
-0.516515
-0.481123
-0.448535
-0.419763
-0.393794
-0.368894
-0.344117
-0.320387
-0.565477
-0.562312
-0.564717
-0.536881
-0.585406
-0.588711
-0.562855
-0.525364
-0.48745
-0.454112
-0.425651
-0.400162
-0.375591
-0.350653
-0.326597
-0.567065
-0.567327
-0.569188
-0.564289
-0.610051
-0.607589
-0.575954
-0.533559
-0.49295
-0.459207
-0.431473
-0.406704
-0.382511
-0.357463
-0.333056
-0.568459
-0.572058
-0.574765
-0.598392
-0.632233
-0.62605
-0.5882
-0.540205
-0.497107
-0.463677
-0.437209
-0.413434
-0.389797
-0.36459
-0.339718
-0.569553
-0.575798
-0.580204
-0.627485
-0.650002
-0.643966
-0.598054
-0.543925
-0.499301
-0.467318
-0.44285
-0.420435
-0.397455
-0.372199
-0.346737
-0.570592
-0.577597
-0.586697
-0.646225
-0.663689
-0.659441
-0.602258
-0.543078
-0.49902
-0.470003
-0.448361
-0.427794
-0.405726
-0.380289
-0.354143
-0.572474
-0.579813
-0.594397
-0.650566
-0.672377
-0.667651
-0.597112
-0.536266
-0.495779
-0.471502
-0.453797
-0.435681
-0.414725
-0.389215
-0.362051
-0.577061
-0.586022
-0.603746
-0.644305
-0.672261
-0.65557
-0.579826
-0.522929
-0.489198
-0.471695
-0.459236
-0.444397