/*--------------------------------*- C++ -*----------------------------------*\
  =========                 |
  \\      /  F ield         | OpenFOAM: The Open Source CFD Toolbox
   \\    /   O peration     | Website:  https://openfoam.org
    \\  /    A nd           | Version:  7
     \\/     M anipulation  |
\*---------------------------------------------------------------------------*/
FoamFile
{
    version     2.0;
    format      ascii;
    class       volVectorField;
    location    "1.9998";
    object      U;
}
// * * * * * * * * * * * * * * * * * * * * * * * * * * * * * * * * * * * * * //

dimensions      [0 1 -1 0 0 0 0];

internalField   nonuniform List<vector> 
18750
(
(-0.0643745 0.0382042 -1.19183e-19)
(-0.213245 0.0423961 3.39428e-20)
(-0.358022 0.0376254 2.50507e-19)
(-0.479921 0.0336977 4.59988e-20)
(-0.593502 0.0295776 -7.87119e-20)
(-0.689339 0.0250212 -1.70063e-19)
(-0.768598 0.0189698 1.39139e-19)
(-0.818988 0.0110249 7.58883e-20)
(-0.838965 0.00155391 -4.77899e-20)
(-0.822851 -0.00817945 -1.09593e-19)
(-0.774552 -0.0169043 3.26233e-19)
(-0.69848 -0.0237389 -1.94984e-19)
(-0.611016 -0.0295214 8.46953e-20)
(-0.495579 -0.0368285 -8.55407e-20)
(-0.308493 -0.0541726 1.7297e-20)
(-0.0670341 0.114122 7.82585e-20)
(-0.215436 0.126794 6.78273e-20)
(-0.358624 0.112595 3.45755e-21)
(-0.479201 0.100916 2.57423e-19)
(-0.591725 0.0886591 4.63692e-19)
(-0.686683 0.0750669 5.29885e-19)
(-0.764969 0.057016 -3.83325e-19)
(-0.814441 0.0334326 5.2739e-19)
(-0.834374 0.005502 4.33184e-19)
(-0.820159 -0.0231545 -8.09852e-20)
(-0.775279 -0.04917 -3.32032e-19)
(-0.700787 -0.0708817 3.76452e-20)
(-0.607061 -0.0904517 6.40114e-20)
(-0.479204 -0.113299 6.77688e-20)
(-0.289749 -0.160011 -4.20971e-20)
(-0.0722875 0.188586 1.77983e-19)
(-0.219839 0.210031 1.77184e-19)
(-0.360028 0.186749 -5.5071e-19)
(-0.478243 0.167639 -5.45044e-21)
(-0.589107 0.147564 -8.89637e-19)
(-0.683064 0.125183 2.46145e-19)
(-0.760691 0.0954669 -5.84385e-19)
(-0.810309 0.0569495 -8.16198e-20)
(-0.832423 0.0116958 -3.31525e-19)
(-0.823133 -0.0349592 7.88079e-19)
(-0.783728 -0.0788382 7.91369e-19)
(-0.709323 -0.118689 5.00908e-19)
(-0.60304 -0.156328 2.12799e-19)
(-0.457593 -0.196275 9.33712e-20)
(-0.273118 -0.259899 -7.23802e-20)
(-0.0799953 0.260686 -6.69258e-19)
(-0.226435 0.291383 6.99833e-19)
(-0.362458 0.259619 -4.58275e-19)
(-0.47759 0.233657 -8.19069e-19)
(-0.586663 0.206351 1.21321e-18)
(-0.68021 0.17572 -1.02078e-18)
(-0.75868 0.135096 1.27306e-18)
(-0.811162 0.0828579 -9.48912e-19)
(-0.838878 0.0215748 5.73621e-19)
(-0.836622 -0.0429558 -1.17537e-18)
(-0.801286 -0.107205 -1.30989e-18)
(-0.722565 -0.169475 9.60184e-20)
(-0.600953 -0.228665 -1.33903e-19)
(-0.44142 -0.28606 -2.0128e-19)
(-0.264499 -0.352182 3.14546e-19)
(-0.0899181 0.329581 -3.8899e-19)
(-0.235088 0.370178 8.38439e-19)
(-0.365978 0.33081 2.36569e-19)
(-0.477493 0.298878 6.98655e-19)
(-0.584854 0.26527 -7.31911e-19)
(-0.678833 0.22737 3.05791e-19)
(-0.760001 0.177153 3.05198e-18)
(-0.818139 0.112764 3.63522e-19)
(-0.853585 0.0362671 6.70511e-19)
(-0.857435 -0.0474393 -1.77155e-19)
(-0.82209 -0.135585 1.46273e-19)
(-0.735728 -0.223743 7.50753e-20)
(-0.601185 -0.306983 -8.11219e-19)
(-0.433684 -0.381488 -3.47496e-19)
(-0.257972 -0.437949 -4.74774e-19)
(-0.101797 0.394539 9.10331e-19)
(-0.24556 0.445713 1.22796e-19)
(-0.370408 0.399988 -3.80687e-19)
(-0.477785 0.363278 -2.62359e-19)
(-0.583456 0.324644 1.74391e-19)
(-0.67849 0.280854 -2.91872e-18)
(-0.763705 0.222701 -2.9974e-19)
(-0.828935 0.147582 2.01221e-19)
(-0.871577 0.0558044 -8.99057e-19)
(-0.878046 -0.0491898 -1.28159e-18)
(-0.838735 -0.163842 6.76824e-19)
(-0.744265 -0.279837 -4.83094e-19)
(-0.600815 -0.389066 1.0334e-18)
(-0.428872 -0.480931 -6.59145e-19)
(-0.249228 -0.523197 8.34992e-19)
(-0.11535 0.45486 -6.91149e-19)
(-0.257479 0.517294 -1.24884e-18)
(-0.375265 0.466811 4.18386e-19)
(-0.477917 0.426796 3.01803e-18)
(-0.581659 0.384677 2.80313e-18)
(-0.677806 0.336668 -8.8123e-19)
(-0.767242 0.272318 4.61004e-19)
(-0.838861 0.187535 2.50029e-19)
(-0.88568 0.0799504 2.18011e-18)
(-0.890199 -0.0481835 2.50169e-18)
(-0.843838 -0.190813 -1.07778e-18)
(-0.74123 -0.335378 -1.74029e-18)
(-0.59121 -0.471479 -2.43606e-18)
(-0.417 -0.581577 9.10065e-20)
(-0.23114 -0.611355 -1.16196e-18)
(-0.13011 0.509569 -5.04081e-19)
(-0.270205 0.584215 -6.1976e-19)
(-0.379836 0.531041 -4.45841e-18)
(-0.477066 0.489347 1.45055e-18)
(-0.578242 0.445468 -1.73771e-18)
(-0.674679 0.394989 1.03878e-18)
(-0.766963 0.326003 1.06345e-18)
(-0.842264 0.23227 -4.40007e-18)
(-0.888896 0.108394 -2.59589e-18)
(-0.886635 -0.0438802 -4.20303e-18)
(-0.829424 -0.214827 -7.376e-19)
(-0.71672 -0.387453 1.97036e-18)
(-0.560374 -0.549243 5.80999e-18)
(-0.385001 -0.678818 -7.66245e-19)
(-0.19441 -0.700254 8.46892e-19)
(-0.145545 0.55763 2.78493e-18)
(-0.283083 0.6459 1.12417e-18)
(-0.383255 0.592328 4.81604e-18)
(-0.47417 0.550599 -3.38667e-18)
(-0.571616 0.506676 1.48717e-18)
(-0.666669 0.455441 -2.36001e-18)
(-0.75912 0.383248 -5.19981e-18)
(-0.833963 0.28126 4.376e-18)
(-0.875193 0.141274 4.61448e-19)
(-0.860695 -0.034912 6.17142e-18)
(-0.787876 -0.233246 -1.88184e-18)
(-0.662104 -0.432404 -6.71271e-18)
(-0.499061 -0.61667 -3.10511e-18)
(-0.32374 -0.76647 5.41834e-20)
(-0.132339 -0.785743 -6.37502e-19)
(-0.160852 0.597905 -2.20848e-18)
(-0.295169 0.701648 -1.28458e-18)
(-0.384627 0.650346 1.49696e-18)
(-0.468227 0.610198 2.31591e-19)
(-0.560403 0.567912 -5.79061e-19)
(-0.651593 0.517488 -6.64263e-19)
(-0.740323 0.443307 2.39727e-18)
(-0.809588 0.333974 -2.81719e-18)
(-0.839864 0.178862 2.59485e-18)
(-0.807284 -0.020267 3.19796e-18)
(-0.714297 -0.244438 -5.02453e-18)
(-0.573439 -0.467461 7.45955e-18)
(-0.403795 -0.669412 4.02087e-19)
(-0.230709 -0.83936 3.13046e-19)
(-0.041796 -0.862976 9.20627e-19)
(-0.17516 0.629194 3.90823e-18)
(-0.305545 0.750827 -1.2803e-18)
(-0.383057 0.704687 -5.73558e-18)
(-0.458206 0.667452 2.18993e-18)
(-0.543079 0.628196 -1.26525e-18)
(-0.627291 0.579916 1.46423e-18)
(-0.707929 0.505 1.07533e-17)
(-0.766214 0.389499 5.11377e-18)
(-0.779976 0.220578 3.3343e-18)
(-0.724187 0.000177411 -1.02762e-17)
(-0.607751 -0.247827 1.00042e-17)
(-0.451549 -0.491051 3.08259e-18)
(-0.276304 -0.704556 -4.10612e-18)
(-0.108446 -0.893902 3.96954e-18)
(0.0757423 -0.926175 3.9175e-19)
(-0.187359 0.650463 6.56987e-19)
(-0.313151 0.792942 2.26318e-19)
(-0.377757 0.754767 -3.15224e-19)
(-0.443356 0.721595 -3.90708e-18)
(-0.518755 0.686644 7.72297e-18)
(-0.592812 0.641689 -3.9342e-18)
(-0.660814 0.567077 -1.15749e-17)
(-0.702559 0.446415 3.79785e-18)
(-0.695186 0.265511 -5.48453e-18)
(-0.612927 0.0263898 8.0157e-18)
(-0.471611 -0.242979 -1.34378e-17)
(-0.301727 -0.502669 1.08949e-18)
(-0.122898 -0.720876 3.81683e-18)
(0.0369801 -0.928091 -6.06055e-18)
(0.214216 -0.968098 -8.43094e-19)
(-0.195981 0.660064 -2.47448e-18)
(-0.316982 0.827503 7.32941e-19)
(-0.368093 0.800018 2.18671e-18)
(-0.423073 0.771806 -9.92848e-20)
(-0.486861 0.742046 -1.04751e-17)
(-0.547673 0.701227 1.00372e-18)
(-0.598899 0.627906 3.76667e-18)
(-0.619634 0.503516 -1.04919e-17)
(-0.58799 0.312819 8.07949e-18)
(-0.478193 0.0577783 -7.02952e-18)
(-0.312407 -0.229768 1.71141e-17)
(-0.131956 -0.502731 -6.49318e-18)
(0.0475416 -0.718576 6.2614e-18)
(0.198133 -0.941058 9.13227e-18)
(0.366529 -0.98463 2.56666e-18)
(-0.19941 0.65754 -9.27238e-19)
(-0.316156 0.854385 1.54639e-20)
(-0.353831 0.839474 -1.06901e-19)
(-0.397237 0.817149 -2.29018e-19)
(-0.447557 0.793218 -5.05215e-18)
(-0.492464 0.757028 -2.32153e-18)
(-0.523649 0.685837 3.80979e-18)
(-0.519779 0.558967 2.35898e-18)
(-0.462277 0.360602 -1.38471e-17)
(-0.326825 0.0932264 -9.39534e-19)
(-0.138059 -0.208878 -3.3897e-18)
(0.04908 -0.490792 6.43228e-18)
(0.226246 -0.699834 -6.65585e-18)
(0.366957 -0.933118 -3.78243e-20)
(0.525592 -0.97997 -2.82252e-18)
(-0.196472 0.642999 4.03504e-18)
(-0.309778 0.872508 -3.52037e-18)
(-0.334739 0.872486 -5.02649e-18)
(-0.365737 0.857132 9.1062e-18)
(-0.401336 0.839258 8.19549e-18)
(-0.42852 0.807835 1.07846e-17)
(-0.437923 0.73993 5.05013e-19)
(-0.408176 0.612462 7.89248e-18)
(-0.325218 0.409166 1.07502e-17)
(-0.166105 0.130989 1.56038e-17)
(0.0434952 -0.180569 -6.4009e-18)
(0.231838 -0.465471 1.21053e-17)
(0.405366 -0.669319 -3.12447e-19)
(0.53547 -0.909127 -4.12658e-18)
(0.684321 -0.958074 -6.82764e-18)
(-0.186194 0.61574 -2.4478e-18)
(-0.297073 0.88075 3.99688e-18)
(-0.310867 0.898937 2.65754e-18)
(-0.329182 0.89126 -8.47281e-18)
(-0.34962 0.878993 -4.09748e-18)
(-0.358175 0.852412 -7.82512e-19)
(-0.344595 0.787472 -5.85909e-18)
(-0.287474 0.660293 -1.04046e-17)
(-0.178591 0.452782 -1.80466e-17)
(-0.00160678 0.166758 -7.62389e-18)
(0.227477 -0.145746 9.77143e-18)
(0.411024 -0.432226 -1.79921e-17)
(0.575455 -0.627907 6.67437e-19)
(0.697258 -0.871569 7.26462e-18)
(0.836738 -0.922002 7.15166e-18)
(-0.167646 0.574874 -5.70046e-18)
(-0.277453 0.878458 4.5624e-18)
(-0.282262 0.918721 -8.06185e-18)
(-0.288296 0.919247 -3.92765e-18)
(-0.293568 0.912085 -3.00084e-19)
(-0.283724 0.889863 5.83327e-18)
(-0.247701 0.828192 1.00509e-17)
(-0.165645 0.704625 3.50815e-18)
(-0.0330186 0.497224 5.06284e-18)
(0.160457 0.205584 -1.40698e-17)
(0.405041 -0.102979 2.45311e-19)
(0.578574 -0.38929 -8.37261e-18)
(0.733513 -0.57784 -5.39703e-18)
(0.84891 -0.824544 -1.20683e-17)
(0.978892 -0.875331 -1.65318e-19)
(-0.14 0.519736 5.01472e-18)
(-0.250818 0.865321 7.87064e-19)
(-0.249609 0.93174 1.32653e-18)
(-0.244367 0.940903 9.76749e-18)
(-0.235198 0.937645 4.14852e-18)
(-0.207494 0.918008 -5.48528e-18)
(-0.150316 0.859617 4.35218e-18)
(-0.0450313 0.739998 -2.65642e-18)
(0.107343 0.538523 -5.28411e-18)
(0.313529 0.246779 6.41656e-18)
(0.571892 -0.0563225 -1.89648e-17)
(0.732587 -0.339903 -3.99435e-19)
(0.876831 -0.524299 -7.30564e-18)
(0.987856 -0.771815 9.65387e-18)
(1.10741 -0.821185 1.12296e-18)
(-0.102747 0.449905 -1.82822e-18)
(-0.217294 0.840823 -5.24877e-18)
(-0.213502 0.937544 1.49964e-18)
(-0.198783 0.956151 -1.10337e-17)
(-0.176516 0.955336 -7.79209e-18)
(-0.132412 0.936452 -4.41277e-18)
(-0.0563938 0.88026 -8.20104e-18)
(0.0704957 0.764215 7.96483e-18)
(0.237733 0.573174 1.17186e-17)
(0.455298 0.286099 2.24035e-17)
(0.725109 -0.00939587 -3.83361e-19)
(0.866397 -0.286188 2.0466e-17)
(1.00156 -0.468267 6.83719e-18)
(1.11251 -0.715084 3.76666e-18)
(1.21993 -0.763344 -7.04793e-18)
(-0.0564461 0.365315 3.06821e-18)
(-0.17799 0.804501 7.93098e-18)
(-0.175522 0.935677 5.58896e-18)
(-0.153412 0.965071 7.63875e-18)
(-0.119849 0.965476 1.21639e-19)
(-0.0611826 0.945389 3.21996e-18)
(0.0302835 0.889851 4.56195e-20)
(0.177555 0.776389 -6.28022e-18)
(0.351231 0.598001 9.34216e-18)
(0.583588 0.322198 -3.28148e-17)
(0.856483 0.0366374 9.10106e-18)
(0.975338 -0.230619 -5.67522e-18)
(1.10832 -0.413915 8.50278e-19)
(1.22234 -0.657592 -5.1876e-18)
(1.31563 -0.704422 -4.0479e-18)
(-0.00369346 0.26478 -5.01013e-18)
(-0.134666 0.754352 6.76636e-18)
(-0.137046 0.924128 -1.85602e-18)
(-0.109874 0.967352 -3.10024e-18)
(-0.0674052 0.968733 6.685e-18)
(0.00382937 0.94537 7.92281e-19)
(0.106493 0.888646 -2.14954e-18)
(0.274344 0.777165 -2.67782e-19)
(0.444687 0.610607 -6.04504e-18)
(0.696704 0.351769 1.5419e-17)
(0.95892 0.0777157 8.22273e-18)
(1.05738 -0.177997 3.82336e-18)
(1.19752 -0.364068 -1.30782e-19)
(1.31711 -0.600959 6.39413e-18)
(1.39401 -0.645573 -2.70873e-19)
(0.039915 0.142491 1.46274e-18)
(-0.0900165 0.686445 -1.64478e-18)
(-0.100201 0.900786 1.2453e-18)
(-0.0701175 0.962755 5.72442e-18)
(-0.0212465 0.965899 -3.67753e-18)
(0.0603137 0.937522 -2.25048e-18)
(0.16977 0.875841 -4.65505e-18)
(0.358322 0.768643 3.59435e-18)
(0.516676 0.60869 -3.88725e-18)
(0.793513 0.37087 -3.66049e-18)
(1.02712 0.110119 -7.33948e-18)
(1.1137 -0.132061 -3.98411e-18)
(1.27308 -0.321395 1.08227e-17)
(1.39751 -0.546725 -1.27146e-17)
(1.45544 -0.588389 -4.11492e-21)
(0.0454856 0.0134976 6.30111e-18)
(-0.0492435 0.593083 -2.46056e-18)
(-0.0660568 0.860679 -6.56972e-18)
(-0.0360336 0.949919 -1.79336e-18)
(0.0168125 0.9568 9.27694e-18)
(0.105978 0.924266 -5.78729e-20)
(0.21974 0.850036 4.28845e-18)
(0.423614 0.750881 -2.40314e-18)
(0.570305 0.591667 -9.1863e-18)
(0.869811 0.3788 2.15983e-17)
(1.05768 0.130647 -1.48735e-17)
(1.15212 -0.0963695 3.78203e-18)
(1.3395 -0.287716 -1.52771e-17)
(1.46368 -0.4956 5.23139e-18)
(1.50066 -0.533964 3.2683e-18)
(0.0306886 -0.0836441 -2.20905e-18)
(-0.0133541 0.47047 -7.30059e-18)
(-0.0351731 0.801897 3.3468e-18)
(-0.0095454 0.926787 5.94717e-19)
(0.0458454 0.939603 -8.15361e-18)
(0.137343 0.908017 4.95321e-18)
(0.260762 0.814504 3.04539e-20)
(0.462121 0.722228 -1.02227e-18)
(0.615345 0.561802 -8.16335e-18)
(0.918103 0.374586 -1.30929e-18)
(1.0542 0.13687 1.09442e-17)
(1.18491 -0.0727458 6.82226e-19)
(1.4 -0.262541 2.1115e-18)
(1.51553 -0.447289 5.06392e-18)
(1.5307 -0.483179 -9.66313e-18)
(0.0408648 -0.131086 -3.44889e-18)
(0.022062 0.304016 1.17287e-19)
(-0.00551605 0.721164 -4.23402e-18)
(0.00727532 0.890164 3.44926e-18)
(0.0654759 0.910961 4.46504e-18)
(0.150149 0.885491 -3.22573e-18)
(0.29853 0.778389 -5.84249e-19)
(0.470089 0.681243 -2.23109e-18)
(0.660524 0.525887 6.84963e-18)
(0.927218 0.357243 1.06534e-18)
(1.03049 0.128208 -1.47256e-17)
(1.22524 -0.0606898 3.55246e-18)
(1.45497 -0.244344 1.90993e-18)
(1.55264 -0.401738 -8.40465e-18)
(1.54728 -0.437179 1.28247e-18)
(0.0758813 -0.135469 7.98836e-19)
(0.0461917 0.115187 2.06282e-18)
(0.0212421 0.614749 4.19661e-18)
(0.0131356 0.834859 -3.35337e-18)
(0.0744733 0.870663 -5.52861e-20)
(0.142895 0.846084 7.28173e-18)
(0.324536 0.742056 -3.18515e-19)
(0.456583 0.628151 2.70867e-19)
(0.699669 0.486617 9.06588e-18)
(0.88978 0.322842 -4.95033e-18)
(1.01316 0.106266 3.89159e-18)
(1.28029 -0.0580624 -9.6451e-18)
(1.50133 -0.230533 6.90286e-19)
(1.57472 -0.358293 -1.73016e-18)
(1.55236 -0.396598 2.94234e-18)
(0.115905 -0.12021 -5.71142e-19)
(0.0735877 -0.0313853 2.69717e-18)
(0.0393477 0.485774 -3.55784e-18)
(0.00740053 0.75351 7.53954e-18)
(0.0670799 0.81968 -5.61687e-18)
(0.124693 0.785095 -4.63859e-18)
(0.315485 0.692622 -2.72967e-18)
(0.447016 0.568286 -4.97337e-18)
(0.703879 0.436989 -9.90168e-18)
(0.819796 0.269296 1.82094e-18)
(1.03319 0.0764883 7.80725e-18)
(1.34585 -0.0613589 6.01459e-18)
(1.53482 -0.218506 7.22418e-19)
(1.58267 -0.317072 -3.72833e-18)
(1.5484 -0.362506 -1.09401e-18)
(0.14985 -0.110532 1.48982e-18)
(0.127627 -0.103898 2.67388e-18)
(0.0473975 0.345502 -1.13391e-17)
(-0.00764041 0.645573 -7.4902e-18)
(0.0345328 0.749855 -1.61818e-19)
(0.107765 0.714616 4.67265e-18)
(0.263092 0.618263 -1.24137e-18)
(0.45293 0.506036 1.09203e-17)
(0.642844 0.365336 1.44468e-18)
(0.768937 0.202581 -5.83135e-18)
(1.10221 0.0457225 -5.88529e-18)
(1.40878 -0.0674303 -8.80608e-18)
(1.55317 -0.206361 9.07539e-18)
(1.57854 -0.278442 4.88589e-18)
(1.53761 -0.335257 -6.17237e-20)
(0.179081 -0.118683 -4.10831e-18)
(0.178791 -0.128067 -7.82474e-18)
(0.0409695 0.211303 5.6913e-18)
(-0.0318432 0.525359 6.68922e-18)
(-0.0239849 0.64851 3.55893e-18)
(0.0768237 0.635029 -3.03028e-18)
(0.199062 0.523787 6.81525e-18)
(0.429338 0.428102 -8.81012e-18)
(0.535325 0.26721 1.00572e-17)
(0.802942 0.137542 6.65677e-18)
(1.19885 0.0182706 -2.07977e-18)
(1.45652 -0.0740345 -2.78073e-18)
(1.55781 -0.192965 -3.54453e-18)
(1.56568 -0.243598 -5.76028e-18)
(1.52174 -0.314942 5.86183e-18)
(0.201352 -0.139696 1.17379e-17)
(0.196358 -0.143158 9.28051e-18)
(0.0227254 0.10313 2.19555e-18)
(-0.073661 0.40704 -2.0689e-19)
(-0.0918203 0.520133 -1.38422e-18)
(0.00409786 0.524308 -1.3259e-18)
(0.157686 0.425798 -5.15832e-18)
(0.324949 0.31025 8.08052e-18)
(0.492235 0.165313 -6.41687e-18)
(0.924032 0.0851759 -1.12027e-19)
(1.28901 -0.00554391 6.77068e-18)
(1.48516 -0.0798042 4.60187e-18)
(1.55301 -0.178282 4.09222e-18)
(1.54819 -0.214428 4.88585e-20)
(1.50155 -0.302151 -3.43116e-18)
(0.211133 -0.159853 -7.00328e-18)
(0.18258 -0.160272 -7.44873e-18)
(-0.00734588 0.0244443 2.43108e-18)
(-0.135645 0.291907 -3.824e-18)
(-0.166886 0.38808 -1.5993e-18)
(-0.0906328 0.382232 4.09262e-18)
(0.0892547 0.307932 -1.08991e-18)
(0.199524 0.166789 -8.32373e-19)
(0.607824 0.0928852 -2.63193e-18)
(1.06372 0.0435275 -6.57271e-18)
(1.35464 -0.0260987 3.0746e-18)
(1.49894 -0.0837707 -3.63183e-18)
(1.54315 -0.163288 -4.8553e-18)
(1.5299 -0.192945 -1.78373e-18)
(1.47851 -0.294361 6.1247e-18)
(0.206709 -0.170836 7.85842e-18)
(0.149044 -0.177537 -6.29732e-18)
(-0.0511469 -0.0381052 -1.08438e-17)
(-0.207793 0.179537 1.04279e-18)
(-0.256861 0.261583 2.03166e-18)
(-0.171497 0.241421 -1.05143e-18)
(-0.0454858 0.141225 2.83699e-18)
(0.257818 0.0649635 6.2183e-19)
(0.796657 0.0425973 -6.34528e-19)
(1.17591 0.00756749 -6.58739e-20)
(1.3991 -0.0427629 -3.27598e-18)
(1.5042 -0.0854261 4.11138e-19)
(1.53094 -0.149866 1.51381e-18)
(1.51168 -0.179212 -8.80439e-19)
(1.47125 -0.233143 6.05746e-18)
(0.188919 -0.171118 1.60112e-18)
(0.102673 -0.188299 -3.36777e-18)
(-0.10763 -0.085199 1.0269e-17)
(-0.278285 0.0847234 7.57945e-18)
(-0.34021 0.154173 -6.58251e-18)
(-0.266659 0.118734 -1.83373e-19)
(-0.0917062 -0.00166825 -2.04212e-18)
(0.495199 0.0130883 -5.66904e-19)
(0.959724 -0.000168042 5.72236e-18)
(1.26034 -0.0208182 3.07641e-18)
(1.4305 -0.0542441 4.58475e-18)
(1.50461 -0.085134 -3.36724e-18)
(1.518 -0.138883 2.10937e-18)
(1.4986 -0.151581 -1.08293e-18)
(1.45394 -0.218554 -7.6738e-18)
(0.159202 -0.160661 1.24168e-18)
(0.0472617 -0.188292 2.25353e-18)
(-0.174131 -0.114596 -5.54419e-18)
(-0.356233 0.010839 -6.09186e-18)
(-0.432083 0.0521174 -4.84576e-18)
(-0.347059 -0.0169622 4.75477e-19)
(0.136276 -0.0341328 2.55409e-18)
(0.706366 -0.0285431 -4.70729e-18)
(1.08927 -0.0320075 -2.7604e-18)
(1.32681 -0.0401604 1.67297e-18)
(1.45281 -0.0609181 -4.36252e-18)
(1.50213 -0.0835232 3.9572e-19)
(1.50677 -0.123482 2.50175e-18)
(1.4827 -0.141517 -2.63546e-18)
(1.44874 -0.183171 2.09317e-18)
(0.120269 -0.140255 -2.73694e-18)
(-0.010542 -0.175343 6.31915e-18)
(-0.238012 -0.123502 4.27314e-18)
(-0.424641 -0.0396524 2.79684e-18)
(-0.486716 -0.0330778 4.19438e-18)
(-0.259517 -0.111832 -4.40672e-19)
(0.431451 -0.0545415 -2.65355e-18)
(0.886305 -0.0574249 4.26373e-19)
(1.1976 -0.0510066 3.5617e-18)
(1.37898 -0.0512336 -6.63434e-18)
(1.46834 -0.06333 -3.2869e-18)
(1.4987 -0.0784584 9.24943e-20)
(1.49496 -0.114186 -7.80295e-19)
(1.47383 -0.117807 3.52529e-18)
(1.43767 -0.165183 -2.44132e-18)
(0.0758377 -0.112002 2.84874e-18)
(-0.0654228 -0.149656 1.79855e-18)
(-0.288502 -0.107454 -3.13957e-19)
(-0.462103 -0.0434225 -1.82293e-18)
(-0.479857 -0.0553779 3.17342e-19)
(0.033315 -0.062323 -5.03566e-18)
(0.638056 -0.0702596 9.9892e-19)
(1.03664 -0.0678417 -2.08254e-18)
(1.2844 -0.0589134 -2.41877e-18)
(1.41867 -0.055319 4.69819e-18)
(1.47894 -0.0613118 6.88181e-18)
(1.49398 -0.0738431 3.03587e-18)
(1.48647 -0.0979229 2.47264e-18)
(1.46157 -0.108237 -2.8977e-18)
(1.43167 -0.146207 -2.43477e-18)
(0.0303493 -0.0785143 2.28561e-18)
(-0.113754 -0.113226 -4.60567e-18)
(-0.32031 -0.0811631 -2.25746e-18)
(-0.46223 -0.0336115 -5.13531e-18)
(-0.391567 -0.0769745 2.43181e-18)
(0.339655 -0.0252682 5.21311e-18)
(0.835392 -0.0659337 -5.81625e-18)
(1.16512 -0.0663507 1.91334e-18)
(1.35488 -0.0579402 3.65628e-18)
(1.44887 -0.0532182 1.15647e-18)
(1.48541 -0.056758 -4.65469e-18)
(1.4898 -0.0647789 -1.68951e-18)
(1.47664 -0.0884991 1.73355e-20)
(1.45484 -0.0906562 1.4373e-18)
(1.4245 -0.125114 4.74947e-18)
(-0.00949269 -0.0412238 -3.75238e-18)
(-0.146654 -0.062764 -3.78947e-18)
(-0.316616 -0.0343082 2.14689e-18)
(-0.415182 0.00624253 9.18447e-18)
(-0.193288 -0.0401837 -6.15042e-18)
(0.551574 -0.0175086 1.55203e-18)
(0.993209 -0.0513518 2.22486e-18)
(1.26523 -0.0549721 -2.08581e-19)
(1.40732 -0.0502301 4.5911e-19)
(1.46965 -0.0471087 2.33686e-18)
(1.48889 -0.0486892 -2.09637e-18)
(1.48437 -0.0575821 -3.82286e-18)
(1.47012 -0.0729191 -2.79555e-18)
(1.44571 -0.0791865 2.21856e-18)
(1.4175 -0.112889 5.07524e-19)
(-0.0383769 -0.00795777 -9.25253e-19)
(-0.16242 -0.00942213 7.45604e-18)
(-0.282856 0.0321389 1.57754e-18)
(-0.357375 0.0647618 2.49876e-18)
(0.0468571 0.0489042 2.30628e-18)
(0.728143 0.0130309 2.16705e-18)
(1.12999 -0.02638 -7.2158e-19)
(1.34773 -0.0385952 1.33424e-18)
(1.44787 -0.0386918 6.65674e-19)
(1.48453 -0.0374347 2.93406e-18)
(1.48987 -0.03991 2.023e-19)
(1.48011 -0.0461339 2.68739e-18)
(1.46207 -0.0622032 -1.65799e-18)
(1.4396 -0.0658905 -1.3242e-18)
(1.4125 -0.0918613 7.47485e-19)
(-0.0541984 0.0164832 3.33167e-18)
(-0.164924 0.0327976 -3.06094e-18)
(-0.235698 0.0933161 2.85985e-19)
(-0.281429 0.0983117 -5.02332e-18)
(0.273831 0.0911607 -4.25531e-18)
(0.883532 0.034185 7.33461e-18)
(1.23465 -0.00384672 2.0018e-18)
(1.40648 -0.0197295 -2.8324e-18)
(1.47473 -0.0240476 7.26665e-19)
(1.49269 -0.0261363 -7.86593e-18)
(1.48904 -0.0285041 2.61529e-18)
(1.4744 -0.0368632 -2.71963e-18)
(1.45642 -0.0478169 2.73343e-18)
(1.43269 -0.0527331 -4.23332e-19)
(1.40544 -0.0810162 -1.1663e-18)
(-0.0601805 0.0312655 -5.22003e-18)
(-0.15558 0.0598239 -5.34054e-18)
(-0.196023 0.13527 -5.5212e-18)
(-0.192592 0.106405 -4.3622e-18)
(0.454456 0.104341 3.07727e-18)
(1.00983 0.0554514 -1.23607e-17)
(1.31689 0.0195175 1.13813e-18)
(1.45162 -9.55622e-05 9.46459e-19)
(1.49436 -0.00873673 5.0804e-19)
(1.49794 -0.0131728 3.66094e-18)
(1.48678 -0.0175949 -2.72184e-18)
(1.47 -0.0244467 5.862e-18)
(1.44966 -0.0357665 -1.0914e-18)
(1.42673 -0.0416429 -1.7643e-18)
(1.40135 -0.0621339 9.20964e-19)
(-0.0594981 0.0358329 9.23692e-19)
(-0.137017 0.0764932 4.32829e-18)
(-0.173313 0.152374 6.15918e-18)
(-0.0935194 0.100862 1.25129e-18)
(0.617026 0.112645 5.30613e-18)
(1.12077 0.0707457 2.99062e-18)
(1.37854 0.0385402 8.71963e-19)
(1.48024 0.0185677 -4.31561e-18)
(1.50462 0.00745402 -2.36838e-19)
(1.49871 6.00347e-05 1.806e-18)
(1.48357 -0.00478845 6.60093e-18)
(1.46427 -0.0137077 -8.39845e-19)
(1.44424 -0.0225004 1.80035e-18)
(1.4212 -0.0279425 1.52788e-18)
(1.39492 -0.0505286 2.09738e-18)
(-0.0546917 0.0317534 1.69769e-18)
(-0.115404 0.084963 -5.66027e-18)
(-0.166261 0.136262 -1.24735e-18)
(0.0292929 0.0912862 2.60648e-19)
(0.763745 0.115071 -9.59518e-18)
(1.21063 0.0839911 2.47423e-18)
(1.42429 0.0566628 -1.19941e-18)
(1.5004 0.0363219 1.38375e-18)
(1.51119 0.0228001 4.48868e-18)
(1.49854 0.0138983 -1.61064e-18)
(1.47962 0.00702456 -4.84574e-18)
(1.45962 -0.00116942 -5.92743e-19)
(1.4383 -0.00968543 -6.01702e-19)
(1.41539 -0.0176426 -1.27125e-18)
(1.39097 -0.034185 -2.30337e-18)
(-0.0483702 0.0224095 3.54195e-19)
(-0.0998867 0.0846685 1.52994e-18)
(-0.167477 0.0962307 -3.91932e-18)
(0.195024 0.0901772 1.69609e-18)
(0.894168 0.114915 3.94149e-18)
(1.28397 0.0940767 -1.69142e-18)
(1.45706 0.0715928 -3.23056e-19)
(1.51084 0.0523607 -3.55899e-18)
(1.51195 0.0381547 6.24583e-19)
(1.49533 0.0274177 -2.51172e-18)
(1.47519 0.0201155 2.24309e-18)
(1.45398 0.010468 -1.68073e-18)
(1.43288 0.00271725 2.66078e-18)
(1.41059 -0.00428651 -8.65911e-19)
(1.38538 -0.0215735 -1.57732e-18)
(-0.0439293 0.0134794 1.81991e-18)
(-0.1037 0.0711547 1.129e-18)
(-0.158752 0.0385068 1.0346e-18)
(0.400887 0.0934134 2.3881e-19)
(1.01095 0.11279 1.63216e-18)
(1.34047 0.102703 -4.03068e-18)
(1.47946 0.0854548 2.24227e-18)
(1.51704 0.0673293 4.97335e-18)
(1.51143 0.0522995 -5.55104e-19)
(1.49225 0.0410142 3.53653e-18)
(1.47041 0.0322076 1.96006e-18)
(1.44909 0.0227876 3.67224e-19)
(1.42744 0.0156665 4.91153e-19)
(1.405 0.00595311 8.85307e-19)
(1.38128 -0.00728271 1.86365e-18)
(-0.0441332 0.011548 2.71509e-18)
(-0.125603 0.0448107 3.82976e-18)
(-0.107797 -0.0195468 -3.35736e-18)
(0.597063 0.0956732 2.991e-18)
(1.11282 0.112558 -7.09043e-18)
(1.38536 0.110048 1.79587e-18)
(1.49422 0.0971157 -6.02611e-19)
(1.51793 0.0808502 -3.06637e-18)
(1.50758 0.0663052 -5.2712e-18)
(1.4871 0.0541537 -1.95537e-18)
(1.46532 0.0450441 -4.6344e-18)
(1.44357 0.034838 2.67745e-18)
(1.42199 0.0274514 -3.22713e-18)
(1.4005 0.0185752 1.91889e-18)
(1.37644 0.00582834 1.13615e-18)
(-0.0485714 0.0192829 -6.4141e-18)
(-0.152018 0.0150347 2.38204e-19)
(0.00549346 -0.0281178 4.85009e-19)
(0.754722 0.100701 8.48588e-19)
(1.19952 0.117463 4.94698e-19)
(1.42045 0.118357 3.31861e-18)
(1.5031 0.108404 1.75281e-18)
(1.51694 0.0936885 -4.60129e-19)
(1.50364 0.0792509 2.32742e-18)
(1.48254 0.067151 1.4279e-18)
(1.46011 0.0571119 6.16725e-19)
(1.43846 0.0468562 -1.47059e-18)
(1.4168 0.0401029 4.43072e-18)
(1.39518 0.0289756 6.8169e-19)
(1.37218 0.0187368 -1.29942e-18)
(-0.0555339 0.0336452 5.87019e-18)
(-0.169266 -0.0138323 -4.20363e-18)
(0.167584 0.012101 1.30458e-18)
(0.882858 0.108036 -1.37014e-19)
(1.27161 0.125297 6.66744e-18)
(1.44857 0.127235 -5.37839e-19)
(1.50826 0.118764 -2.12083e-18)
(1.51324 0.105561 4.9822e-18)
(1.4978 0.0920847 4.50696e-19)
(1.47653 0.0797477 1.80687e-18)
(1.45463 0.0695121 -3.55519e-18)
(1.43296 0.0589671 1.01669e-19)
(1.41134 0.0514373 -1.32761e-18)
(1.39072 0.0408367 -2.09947e-19)
(1.36781 0.0317732 -7.07287e-19)
(-0.0649081 0.0452142 -1.57793e-18)
(-0.158191 -0.0356849 4.46338e-18)
(0.3587 0.0503215 2.52165e-18)
(0.993798 0.11482 2.04772e-18)
(1.32866 0.134514 -1.08521e-18)
(1.46925 0.137086 -4.10286e-19)
(1.51047 0.129408 2.69133e-18)
(1.50915 0.117197 -2.12818e-18)
(1.4924 0.10412 6.18842e-19)
(1.47122 0.0921071 -3.10198e-18)
(1.44915 0.081404 2.12048e-19)
(1.42762 0.0706791 4.05291e-19)
(1.40622 0.0635713 -5.44086e-19)
(1.38562 0.0513687 -3.0158e-18)
(1.36341 0.0437759 1.1433e-18)
(-0.0766629 0.0470112 -2.7553e-18)
(-0.122747 -0.0393245 -3.51854e-18)
(0.535654 0.0752872 1.85651e-18)
(1.08954 0.123332 -2.31357e-19)
(1.3739 0.144346 -2.73511e-18)
(1.48446 0.147177 -8.68442e-20)
(1.51082 0.13987 -1.90999e-18)
(1.50387 0.128481 -3.63663e-18)
(1.48594 0.116223 -1.40427e-18)
(1.46485 0.104237 1.28283e-18)
(1.44336 0.0933809 1.0949e-18)
(1.42203 0.0826321 -1.04356e-19)
(1.40072 0.0745554 -1.50531e-18)
(1.38106 0.0626059 2.52683e-18)
(1.35923 0.0563266 6.99071e-19)
(-0.0908375 0.0337393 2.7229e-18)
(-0.0656454 -0.0335837 4.20888e-22)
(0.682077 0.0959691 -4.45531e-18)
(1.17425 0.135901 -8.39221e-20)
(1.4102 0.15516 6.5732e-19)
(1.49439 0.157576 1.14963e-18)
(1.50931 0.150595 -1.99393e-18)
(1.49874 0.139775 9.94564e-19)
(1.48009 0.127796 -4.70615e-20)
(1.45915 0.116094 1.01962e-18)
(1.43764 0.105036 -8.63441e-19)
(1.41642 0.0940404 -2.26766e-18)
(1.39551 0.086111 -1.01443e-19)
(1.37602 0.0731509 -1.21256e-18)
(1.35467 0.067655 -9.41082e-19)
(-0.107627 0.00573287 1.1277e-18)
(0.0204944 -0.0212343 -2.26752e-18)
(0.803771 0.113844 2.29783e-18)
(1.24506 0.150384 -7.19832e-19)
(1.43938 0.167052 -3.78473e-19)
(1.50114 0.168295 -1.01013e-18)
(1.50676 0.161381 1.5982e-18)
(1.49294 0.151066 9.79851e-19)
(1.47356 0.139614 -5.65098e-19)
(1.45267 0.127936 -1.52276e-18)
(1.4316 0.116687 -5.23e-19)
(1.41066 0.105726 2.32373e-18)
(1.3899 0.0967974 1.33465e-18)
(1.3712 0.0839209 1.21842e-18)
(1.35042 0.0794991 -3.36726e-19)
(-0.124974 -0.0260202 -6.96597e-19)
(0.137117 -0.0016125 2.48523e-19)
(0.908951 0.128503 -9.52095e-19)
(1.30484 0.166477 -1.27868e-20)
(1.46264 0.180143 -6.88226e-19)
(1.50509 0.179681 -9.87431e-19)
(1.50319 0.172513 3.39858e-19)
(1.48729 0.162441 -1.9336e-18)
(1.46751 0.151082 1.63309e-18)
(1.44668 0.139507 1.98327e-18)
(1.4256 0.128131 2.22903e-19)
(1.40473 0.116848 -2.00132e-18)
(1.38445 0.107817 -1.81047e-18)
(1.36604 0.0943687 -1.26841e-18)
(1.34566 0.0902208 4.58008e-19)
(-0.13768 -0.0529025 -2.34553e-18)
(0.274124 0.0207882 6.10247e-19)
(0.999887 0.141908 -4.48338e-19)
(1.35282 0.182434 -1.1457e-20)
(1.48029 0.193931 -1.90041e-19)
(1.50725 0.191692 -3.7263e-19)
(1.49923 0.184004 6.87965e-19)
(1.48123 0.174009 -3.6798e-19)
(1.46093 0.162859 -4.64243e-19)
(1.44006 0.151207 -8.70021e-19)
(1.41927 0.139551 -7.46421e-19)
(1.39869 0.128223 -3.25179e-19)
(1.37861 0.118237 1.12601e-18)
(1.36085 0.104784 -3.89126e-20)
(1.34117 0.101276 7.5037e-19)
(-0.141537 -0.0679553 9.66072e-19)
(0.413413 0.0469622 1.57995e-18)
(1.08032 0.155701 2.69701e-19)
(1.39155 0.198374 9.84556e-19)
(1.4931 0.208326 2.00928e-18)
(1.50752 0.204441 7.04971e-19)
(1.49468 0.196013 2.522e-18)
(1.47528 0.185771 1.2769e-18)
(1.45461 0.174436 7.71214e-19)
(1.43372 0.162665 1.69721e-18)
(1.41292 0.150832 5.03563e-19)
(1.3924 0.139093 8.70299e-19)
(1.37278 0.128824 4.13809e-19)
(1.35535 0.115058 1.74946e-19)
(1.33615 0.11139 5.18323e-19)
(-0.132246 -0.0679172 1.40529e-18)
(0.545188 0.0766179 -2.26234e-18)
(1.15279 0.173048 -4.50636e-19)
(1.42223 0.214603 9.93133e-19)
(1.50149 0.222969 -2.03017e-18)
(1.50627 0.21767 -7.87683e-19)
(1.48982 0.208451 -1.54081e-18)
(1.469 0.197826 -4.03865e-20)
(1.44785 0.186322 -3.81829e-19)
(1.42687 0.174298 -1.41976e-18)
(1.40624 0.162075 1.03412e-18)
(1.38598 0.150164 7.40611e-20)
(1.36656 0.13902 -4.15925e-20)
(1.34967 0.125158 3.00248e-19)
(1.3313 0.121632 -6.38709e-19)
(-0.112635 -0.0581582 -8.89637e-20)
(0.659485 0.107619 1.02762e-18)
(1.21724 0.193973 2.78308e-19)
(1.44673 0.231565 -1.39279e-18)
(1.50623 0.237827 8.89134e-19)
(1.50339 0.231331 2.67095e-19)
(1.48433 0.221322 -6.88963e-19)
(1.46265 0.210115 -3.14865e-19)
(1.44117 0.198134 -9.14092e-19)
(1.42009 0.18575 1.51874e-19)
(1.39944 0.173237 -9.95155e-19)
(1.37923 0.160826 -6.64145e-19)
(1.36022 0.149273 1.64469e-19)
(1.34373 0.135165 1.5674e-19)
(1.32598 0.131103 -2.65034e-19)
(-0.0786418 -0.042367 -5.36124e-19)
(0.755924 0.138765 -3.24725e-19)
(1.2715 0.217781 6.98519e-19)
(1.46569 0.249762 1.19087e-18)
(1.50807 0.253034 2.19521e-19)
(1.49929 0.245224 -5.84488e-19)
(1.47838 0.234447 7.07886e-19)
(1.4559 0.22264 5.94961e-19)
(1.43405 0.2102 2.98338e-19)
(1.41286 0.197372 5.30122e-20)
(1.3923 0.184346 3.16265e-19)
(1.37232 0.171616 1.33294e-19)
(1.35352 0.159254 -8.3575e-20)
(1.33749 0.144931 -1.03127e-19)
(1.32071 0.140548 8.29083e-20)
(-0.0263606 -0.0217015 -2.4906e-19)
(0.840962 0.16962 -2.79839e-19)
(1.31729 0.242874 2.16977e-19)
(1.47988 0.268563 -2.8421e-19)
(1.50758 0.26851 -5.773e-19)
(1.494 0.259348 4.45068e-20)
(1.47179 0.247812 3.28903e-19)
(1.44891 0.235329 -2.84983e-19)
(1.42683 0.222254 1.8231e-19)
(1.40554 0.208873 3.51655e-19)
(1.38497 0.195413 5.47724e-20)
(1.36504 0.182093 1.25261e-19)
(1.34656 0.169232 -1.42321e-19)
(1.33094 0.154601 8.99154e-20)
(1.31501 0.14936 -6.20606e-20)
(0.0369303 -0.000826798 -7.89807e-20)
(0.914782 0.198265 -3.20475e-20)
(1.35401 0.267739 -3.81618e-19)