/*--------------------------------*- C++ -*----------------------------------*\
  =========                 |
  \\      /  F ield         | OpenFOAM: The Open Source CFD Toolbox
   \\    /   O peration     | Website:  https://openfoam.org
    \\  /    A nd           | Version:  7
     \\/     M anipulation  |
\*---------------------------------------------------------------------------*/
FoamFile
{
    version     2.0;
    format      ascii;
    class       volScalarField;
    location    "3.9996";
    object      p;
}
// * * * * * * * * * * * * * * * * * * * * * * * * * * * * * * * * * * * * * //

dimensions      [0 2 -2 0 0 0 0];

internalField   nonuniform List<scalar> 
18750
(
-0.131264
-0.151064
-0.187632
-0.241614
-0.311116
-0.394968
-0.490995
-0.596835
-0.709602
-0.825555
-0.938549
-1.03864
-1.11322
-1.15215
-1.15042
-0.139265
-0.158547
-0.194649
-0.248253
-0.317501
-0.401245
-0.497321
-0.603332
-0.716343
-0.832658
-0.946405
-1.04803
-1.12472
-1.16524
-1.16386
-0.15486
-0.173147
-0.208346
-0.261225
-0.329984
-0.413525
-0.509702
-0.616052
-0.729538
-0.84653
-0.961633
-1.06604
-1.14678
-1.1906
-1.19022
-0.177252
-0.194136
-0.228048
-0.279899
-0.34797
-0.431219
-0.527525
-0.634335
-0.748471
-0.866345
-0.983133
-1.09105
-1.17734
-1.22632
-1.22809
-0.20532
-0.220459
-0.252767
-0.303361
-0.370581
-0.453447
-0.549863
-0.657181
-0.772043
-0.890861
-1.00937
-1.12098
-1.21376
-1.26991
-1.27553
-0.23771
-0.250768
-0.281278
-0.330484
-0.396746
-0.479143
-0.575605
-0.683381
-0.798921
-0.91861
-1.03868
-1.15383
-1.25363
-1.31918
-1.33102
-0.272884
-0.283528
-0.312218
-0.360019
-0.425269
-0.507109
-0.60348
-0.711524
-0.827533
-0.947899
-1.06937
-1.18791
-1.29504
-1.37212
-1.39304
-0.309128
-0.317165
-0.344193
-0.390664
-0.454874
-0.536039
-0.632085
-0.740055
-0.856173
-0.976994
-1.09987
-1.22196
-1.3366
-1.42623
-1.45925
-0.344671
-0.350121
-0.375854
-0.421118
-0.484264
-0.564601
-0.660018
-0.7675
-0.883363
-1.00454
-1.12908
-1.25501
-1.37683
-1.47812
-1.52461
-0.377817
-0.380971
-0.405955
-0.45014
-0.512198
-0.591547
-0.686025
-0.792635
-0.907929
-1.02939
-1.15569
-1.28529
-1.41294
-1.52305
-1.58174
-0.407034
-0.408567
-0.43339
-0.476599
-0.537572
-0.615779
-0.709029
-0.814411
-0.928783
-1.05021
-1.17792
-1.31039
-1.44187
-1.55752
-1.62572
-0.431085
-0.432178
-0.45719
-0.499537
-0.559472
-0.636386
-0.72812
-0.831924
-0.944948
-1.06577
-1.19403
-1.32801
-1.46075
-1.57922
-1.65445
-0.449259
-0.451322
-0.476534
-0.518238
-0.577213
-0.652648
-0.742562
-0.844418
-0.955587
-1.07494
-1.20243
-1.3362
-1.46752
-1.58724
-1.66741
-0.461668
-0.465477
-0.490879
-0.532317
-0.590329
-0.664055
-0.751812
-0.851292
-0.960042
-1.07694
-1.20213
-1.33396
-1.4615
-1.58046
-1.66195
-0.468691
-0.474349
-0.500373
-0.541746
-0.598541
-0.670306
-0.755532
-0.852129
-0.957869
-1.07138
-1.19282
-1.32093
-1.44194
-1.55572
-1.63089
-0.471106
-0.478486
-0.505315
-0.54648
-0.601858
-0.671335
-0.753597
-0.846737
-0.948856
-1.05816
-1.17415
-1.29747
-1.40934
-1.51479
-1.57751
-0.470261
-0.479031
-0.506229
-0.546741
-0.600382
-0.667198
-0.746053
-0.835142
-0.93296
-1.03768
-1.14639
-1.26409
-1.36663
-1.46415
-1.51916
-0.467982
-0.47737
-0.503806
-0.542953
-0.594414
-0.658128
-0.733112
-0.817567
-0.910235
-1.01039
-1.1106
-1.2214
-1.31527
-1.40351
-1.45311
-0.46621
-0.474755
-0.498758
-0.535676
-0.584443
-0.64453
-0.715129
-0.794501
-0.880926
-0.976464
-1.06838
-1.17111
-1.25743
-1.33339
-1.37988
-0.466202
-0.471841
-0.491686
-0.525562
-0.571096
-0.626958
-0.692536
-0.766642
-0.845643
-0.935829
-1.02053
-1.11444
-1.1957
-1.2624
-1.30483
-0.467645
-0.468234
-0.483129
-0.513354
-0.555045
-0.606112
-0.665845
-0.734585
-0.805468
-0.888813
-0.967278
-1.05144
-1.12893
-1.18988
-1.2275
-0.468618
-0.462912
-0.473776
-0.499871
-0.536965
-0.582823
-0.635731
-0.698654
-0.761517
-0.836701
-0.90928
-0.983825
-1.0564
-1.11343
-1.14763
-0.467298
-0.456299
-0.464712
-0.485956
-0.517539
-0.55802
-0.603187
-0.65924
-0.714174
-0.781167
-0.84718
-0.914953
-0.980734
-1.03566
-1.0672
-0.463394
-0.451132
-0.456906
-0.472546
-0.497661
-0.532538
-0.569349
-0.617633
-0.663512
-0.723549
-0.781394
-0.845785
-0.90413
-0.9579
-0.987672
-0.458199
-0.448933
-0.450403
-0.460664
-0.478624
-0.507416
-0.534993
-0.575282
-0.611329
-0.664298
-0.714324
-0.776045
-0.828176
-0.882507
-0.912443
-0.45363
-0.448368
-0.445302
-0.451464
-0.461889
-0.483984
-0.501535
-0.532215
-0.560408
-0.602909
-0.648712
-0.705491
-0.756569
-0.813293
-0.845351
-0.450971
-0.447742
-0.442748
-0.44563
-0.449155
-0.463167
-0.471377
-0.488667
-0.51137
-0.540964
-0.585026
-0.634899
-0.690216
-0.750863
-0.787914
-0.450135
-0.447343
-0.443104
-0.442715
-0.441866
-0.446182
-0.445868
-0.448261
-0.464021
-0.483248
-0.523826
-0.568335
-0.628309
-0.691366
-0.73935
-0.45054
-0.44781
-0.444959
-0.442334
-0.440137
-0.434604
-0.425552
-0.415037
-0.419447
-0.433264
-0.466766
-0.511485
-0.573618
-0.634211
-0.695294
-0.451451
-0.449203
-0.447602
-0.444342
-0.442699
-0.428384
-0.411252
-0.389991
-0.382733
-0.391583
-0.419184
-0.466042
-0.52881
-0.585546
-0.648773
-0.452578
-0.451124
-0.451055
-0.448157
-0.447167
-0.426158
-0.403431
-0.372962
-0.356332
-0.360047
-0.384254
-0.430974
-0.492676
-0.546895
-0.597706
-0.45361
-0.453228
-0.454848
-0.452717
-0.451748
-0.42728
-0.401103
-0.364069
-0.340007
-0.340081
-0.362294
-0.405367
-0.463374
-0.514509
-0.551797
-0.454282
-0.455089
-0.458318
-0.457141
-0.456127
-0.431231
-0.403242
-0.362685
-0.333204
-0.329828
-0.351257
-0.389386
-0.440905
-0.485473
-0.515498
-0.454395
-0.456347
-0.460825
-0.461479
-0.459584
-0.4383
-0.409154
-0.368953
-0.336581
-0.328745
-0.348134
-0.381794
-0.424276
-0.461775
-0.487534
-0.453881
-0.456841
-0.462175
-0.464857
-0.463836
-0.447867
-0.421214
-0.38169
-0.348444
-0.336359
-0.35132
-0.379039
-0.413031
-0.442727
-0.464239
-0.452883
-0.456571
-0.46247
-0.467329
-0.46945
-0.461428
-0.440457
-0.399482
-0.36665
-0.350453
-0.358802
-0.379677
-0.405162
-0.427394
-0.445229
-0.4518
-0.455898
-0.462186
-0.469444
-0.476837
-0.479627
-0.464107
-0.424142
-0.387186
-0.367129
-0.368602
-0.381767
-0.399504
-0.415414
-0.428731
-0.451172
-0.455389
-0.46213
-0.471958
-0.485706
-0.501057
-0.485367
-0.449198
-0.407869
-0.383427
-0.378297
-0.384357
-0.395277
-0.405163
-0.41462
-0.451392
-0.455625
-0.462747
-0.474957
-0.495194
-0.518393
-0.50655
-0.46769
-0.425365
-0.397425
-0.386783
-0.386655
-0.391536
-0.396563
-0.402134
-0.452535
-0.456692
-0.464079
-0.477901
-0.505302
-0.526052
-0.521866
-0.480945
-0.438316
-0.408192
-0.393221
-0.388069
-0.388139
-0.388694
-0.390845
-0.454276
-0.45826
-0.465734
-0.47951
-0.512922
-0.528075
-0.526065
-0.487766
-0.446346
-0.415348
-0.397413
-0.388504
-0.384506
-0.381528
-0.380593
-0.456102
-0.459694
-0.466721
-0.479495
-0.512695
-0.526778
-0.522405
-0.488722
-0.449962
-0.419256
-0.399472
-0.387731
-0.380712
-0.37477
-0.371099
-0.457558
-0.460501
-0.466168
-0.478764
-0.503581
-0.521783
-0.514813
-0.485059
-0.449794
-0.420283
-0.399572
-0.385959
-0.376505
-0.368273
-0.362504
-0.458393
-0.4604
-0.463907
-0.476139
-0.487402
-0.510759
-0.504312
-0.478315
-0.446793
-0.419043
-0.398118
-0.383179
-0.37197
-0.362004
-0.354479
-0.458574
-0.459444
-0.460291
-0.470823
-0.473926
-0.495777
-0.492011
-0.469886
-0.441897
-0.416072
-0.395332
-0.379632
-0.36707
-0.355762
-0.34696
-0.458292
-0.457816
-0.456704
-0.461709
-0.467053
-0.481778
-0.479114
-0.460551
-0.435787
-0.411854
-0.391591
-0.375388
-0.361845
-0.349606
-0.339699
-0.457902
-0.455922
-0.454944
-0.447878
-0.462683
-0.470895
-0.467105
-0.45107
-0.429034
-0.406814
-0.38708
-0.370633
-0.356361
-0.343374
-0.332626
-0.457706
-0.454086
-0.455556
-0.43582
-0.456368
-0.461977
-0.45666
-0.441947
-0.421966
-0.401189
-0.382037
-0.36544
-0.35062
-0.337138
-0.325652
-0.457752
-0.453367
-0.455344
-0.434788
-0.449817
-0.453908
-0.447594
-0.433482
-0.414901
-0.39526
-0.376594
-0.359933
-0.344715
-0.33081
-0.318715
-0.458067
-0.455399
-0.452466
-0.444768
-0.447164
-0.447028
-0.439573
-0.425674
-0.407969
-0.389124
-0.370871
-0.354163
-0.338626
-0.324434
-0.311802
-0.459007
-0.460515
-0.447307
-0.452908
-0.447794
-0.441954
-0.432519
-0.418455
-0.401251
-0.382945
-0.364961
-0.348204
-0.332433
-0.317974
-0.304851
-0.460503
-0.467576
-0.443135
-0.454486
-0.448115
-0.438361
-0.426551
-0.411831
-0.394764
-0.376731
-0.358911
-0.342084
-0.326103
-0.311441
-0.297879
-0.462818
-0.472943
-0.446865
-0.452981
-0.447022
-0.435319
-0.421467
-0.405773
-0.388516
-0.370556
-0.352774
-0.335842
-0.319686
-0.304823
-0.290838
-0.466373
-0.475239
-0.458476
-0.453641
-0.445216
-0.432242
-0.416908
-0.400194
-0.382501
-0.364401
-0.346551
-0.329484
-0.31315
-0.298109
-0.283756
-0.47142
-0.473891
-0.470794
-0.457569
-0.444161
-0.429186
-0.412574
-0.394909
-0.376657
-0.358283
-0.340268
-0.323022
-0.306522
-0.291296
-0.276602
-0.478576
-0.470228
-0.479319
-0.462608
-0.444328
-0.42651
-0.408391
-0.389778
-0.370909
-0.352156
-0.333902
-0.316453
-0.299777
-0.284378
-0.269407
-0.488656
-0.46885
-0.483441
-0.466956
-0.445215
-0.424356
-0.404389
-0.384697
-0.365159
-0.345983
-0.327446
-0.30977
-0.292928
-0.277366
-0.262168
-0.501152
-0.474602
-0.485263
-0.469798
-0.446016
-0.42251
-0.400554
-0.379633
-0.359355
-0.33971
-0.320865
-0.302959
-0.285955
-0.270257
-0.254919
-0.514652
-0.488673
-0.487748
-0.471101
-0.446069
-0.420556
-0.396749
-0.374529
-0.353439
-0.333298
-0.314132
-0.295996
-0.278853
-0.263061
-0.247663
-0.527672
-0.507254
-0.492441
-0.471446
-0.445065
-0.418102
-0.392772
-0.369314
-0.347383
-0.326713
-0.307214
-0.28886
-0.271598
-0.255759
-0.240392
-0.537782
-0.52402
-0.498531
-0.471464
-0.443061
-0.414928
-0.388418
-0.363878
-0.341131
-0.319922
-0.300086
-0.281519
-0.264169
-0.248332
-0.233047
-0.543205
-0.535322
-0.503537
-0.471198
-0.440319
-0.411015
-0.383564
-0.358127
-0.334637
-0.312899
-0.292722
-0.273952
-0.256531
-0.240732
-0.225557
-0.543655
-0.540577
-0.506203
-0.470285
-0.437037
-0.406471
-0.37817
-0.35198
-0.327836
-0.305604
-0.285097
-0.266131
-0.248656
-0.23292
-0.21787
-0.541446
-0.541125
-0.506414
-0.468438
-0.433257
-0.401401
-0.372255
-0.345396
-0.320685
-0.298007
-0.277187
-0.258035
-0.24051
-0.224844
-0.209935
-0.538599
-0.538963
-0.50459
-0.465551
-0.428926
-0.39585
-0.365846
-0.338355
-0.313138
-0.290066
-0.268963
-0.24964
-0.232075
-0.216479
-0.201674
-0.536578
-0.535755
-0.501335
-0.461678
-0.423977
-0.389809
-0.358955
-0.330849
-0.305173
-0.281752
-0.260401
-0.240932
-0.223341
-0.207807
-0.192977
-0.535975
-0.532404
-0.49715
-0.456928
-0.418366
-0.383238
-0.35157
-0.322866
-0.296762
-0.273032
-0.25147
-0.231893
-0.214316
-0.198853
-0.183719
-0.536758
-0.529287
-0.492383
-0.451419
-0.412071
-0.376088
-0.343658
-0.314384
-0.287881
-0.263882
-0.242149
-0.222514
-0.205011
-0.189661
-0.173868
-0.538537
-0.526478
-0.487218
-0.445226
-0.405073
-0.368303
-0.335174
-0.305367
-0.278503
-0.254278
-0.232421
-0.212783
-0.195441
-0.180264
-0.163602
-0.540712
-0.523906
-0.481716
-0.438379
-0.397343
-0.359826
-0.326063
-0.295778
-0.268605
-0.244214
-0.222283
-0.202695
-0.185624
-0.170556
-0.153192
-0.542625
-0.521331
-0.475811
-0.430846
-0.388834
-0.350599
-0.316274
-0.285585
-0.258173
-0.233682
-0.211743
-0.192265
-0.175556
-0.160301
-0.142923
-0.543735
-0.518245
-0.469324
-0.422554
-0.379491
-0.340569
-0.305762
-0.274764
-0.247205
-0.222691
-0.200821
-0.181581
-0.165101
-0.149573
-0.132673
-0.543598
-0.514079
-0.461997
-0.413388
-0.369258
-0.329696
-0.294504
-0.263306
-0.235711
-0.211239
-0.189509
-0.170555
-0.154227
-0.138518
-0.122303
-0.541827
-0.508441
-0.453573
-0.403223
-0.358077
-0.317959
-0.2825
-0.251222
-0.22369
-0.1993
-0.177784
-0.159137
-0.142929
-0.127219
-0.111727
-0.538118
-0.501068
-0.443826
-0.391938
-0.345899
-0.305355
-0.269773
-0.238537
-0.211069
-0.186853
-0.165628
-0.147306
-0.131236
-0.11569
-0.10091
-0.532245
-0.49179
-0.432587
-0.379427
-0.332696
-0.291907
-0.256324
-0.225162
-0.197848
-0.173897
-0.153031
-0.135065
-0.119194
-0.103908
-0.0898424
-0.524057
-0.480518
-0.419726
-0.365619
-0.318476
-0.277614
-0.242069
-0.211081
-0.184028
-0.160433
-0.139991
-0.122427
-0.106826
-0.0918588
-0.0785359
-0.513475
-0.467244
-0.405151
-0.350495
-0.30325
-0.262371
-0.226991
-0.196293
-0.169614
-0.146465
-0.126517
-0.109408
-0.0941462
-0.0795486
-0.0670178
-0.500474
-0.452035
-0.388809
-0.334071
-0.286894
-0.246167
-0.211092
-0.180808
-0.154612
-0.132004
-0.112622
-0.0960261
-0.0811678
-0.0669989
-0.0553101
-0.485067
-0.434975
-0.370734
-0.316263
-0.26937
-0.229007
-0.194386
-0.16464
-0.139039
-0.117066
-0.0983218
-0.0822957
-0.0679039
-0.0542383
-0.0434175
-0.467303
-0.416051
-0.351081
-0.29699
-0.250681
-0.210904
-0.176894
-0.147811
-0.122915
-0.101672
-0.0836386
-0.0682321
-0.0543633
-0.041283
-0.0313556
-0.447276
-0.395048
-0.329999
-0.276364
-0.230859
-0.19188
-0.158641
-0.130347
-0.106267
-0.085849
-0.0685979
-0.0538556
-0.0405559
-0.0281376
-0.0192155
-0.425133
-0.371644
-0.307675
-0.254545
-0.209972
-0.171967
-0.139657
-0.112278
-0.0891225
-0.0696234
-0.0532243
-0.0391925
-0.0265114
-0.0148326
-0.00713519
-0.401033
-0.345969
-0.283996
-0.231661
-0.188105
-0.151214
-0.119976
-0.0936365
-0.0715113
-0.0530178
-0.0375355
-0.0242716
-0.0122942
-0.00147231
0.00487342
-0.374994
-0.318504
-0.258857
-0.207761
-0.165344
-0.129681
-0.099642
-0.0744602
-0.053463
-0.0360481
-0.0215348
-0.00910873
0.00201804
0.0117837
0.0169568
-0.347215
-0.289582
-0.232306
-0.182854
-0.141758
-0.107433
-0.078708
-0.0547914
-0.0350085
-0.0187267
-0.00521479
0.00630328
0.0163873
0.0248007
0.0289811
-0.317439
-0.259811
-0.204558
-0.156972
-0.117406
-0.0845416
-0.0572332
-0.0346776
-0.0161814
-0.00106845
0.0114281
0.0219803
0.0308312
0.037491
0.0400171
-0.285917
-0.229175
-0.175807
-0.130201
-0.0923511
-0.0610742
-0.0352811
-0.0141698
0.00298206
0.0169018
0.0283699
0.0378959
0.0453453
0.0497487
0.049023
-0.252916
-0.197633
-0.146204
-0.102659
-0.0666692
-0.037102
-0.0129171
0.00667868
0.0224414
0.0351449
0.0455428
0.0539319
0.0597936
0.0616017
0.0568906
-0.218678
-0.16522
-0.11587
-0.0744701
-0.0404504
-0.0127003
0.00979229
0.027813
0.0421508
0.053604
0.0628407
0.0699063
0.0739567
0.0734793
0.067617
-0.183414
-0.13203
-0.084914
-0.0457516
-0.0137928
0.0120508
0.0327786
0.0491752
0.062055
0.0722061
0.080154
0.0856919
0.0878195
0.0858253
0.084546
-0.147319
-0.0981952
-0.0534528
-0.0166177
0.0132028
0.0370673
0.0559711
0.0707027
0.0820878
0.090867
0.0974
0.101305
0.10173
0.0990965
0.101126
-0.11058
-0.0638641
-0.0216084
0.012819
0.0404351
0.0622627
0.0792958
0.0923269
0.102175
0.109506
0.114538
0.116843
0.115922
0.113255
0.116616
-0.0733742
-0.0291904
0.0104912
0.0424454
0.0678026
0.0875485
0.102675
0.113975
0.122242
0.128062
0.131558
0.13236
0.130337
0.127667
0.131043
-0.0358785
0.0056734
0.0427151
0.0721474
0.095204
0.112836
0.12603
0.13557
0.142219
0.146486
0.14846
0.147882
0.144939
0.142083
0.144645
0.0017346
0.040576
0.0749318
0.10181
0.122538
0.138034
0.149278
0.157038
0.16204
0.164741
0.165223
0.163338
0.159497
0.156194
0.157744
0.0392965
0.0753696
0.107011
0.131318
0.149703
0.163052
0.172336
0.178304
0.181646
0.182786
0.181821
0.178698
0.17396
0.169983
0.170422
0.0766413
0.109909
0.138823
0.160559
0.176598
0.187801
0.195125
0.199297
0.20098
0.200572
0.198186
0.193841
0.188166
0.18343
0.182777
0.113608
0.144053
0.170243
0.18942
0.203124
0.212192
0.217563
0.219948
0.219985
0.218056
0.214289
0.208748
0.202102
0.196514
0.194778
0.150038
0.177662
0.201147
0.217791
0.229183
0.236135
0.239574
0.24019
0.238599
0.235169
0.230039
0.223313
0.2157
0.209269
0.206442
0.185779
0.210604
0.231415
0.245565
0.254679
0.259547
0.261081
0.259955
0.256767
0.251873
0.245413
0.237519
0.228924
0.221616
0.217721
0.220685
0.242749
0.260933
0.272638
0.279518
0.282343
0.28201
0.279177
0.274424
0.268093
0.260332
0.251301
0.241759
0.233584
0.228603
0.254612
0.273972
0.289587
0.298909
0.303611
0.304443
0.302291
0.297795
0.29152
0.283794
0.274766
0.264621
0.254137
0.245095
0.239053
0.287424
0.304153
0.31727
0.324282
0.326869
0.325769
0.321851
0.315742
0.307989
0.298909
0.288658
0.277448
0.26606
0.256153
0.249046
0.31899
0.333176
0.34388
0.348664
0.349212
0.346247
0.340626
0.332962
0.323785
0.3134
0.301969
0.289727
0.277462
0.266709
0.258556
0.349187
0.360933
0.369317
0.371966
0.370558
0.365805
0.35855
0.349393
0.338849
0.327215
0.314662
0.301444
0.288332
0.27674
0.267558
0.377898
0.387321
0.39349
0.394105
0.390833
0.384376
0.375565
0.364986
0.353138
0.340312
0.326688
0.312541
0.298627
0.286222
0.276033
0.40501
0.412242
0.416311
0.415002
0.409965
0.401896
0.391611
0.379684
0.366603
0.352654
0.338024
0.323002
0.308319
0.295121
0.283959
0.430421
0.435604
0.437697
0.434583
0.427889
0.418305
0.406635
0.393442
0.379201
0.364194
0.348623
0.332787
0.317381
0.303421
0.291319
0.454035
0.457324
0.457573
0.452779
0.444542
0.433547
0.420587
0.406215
0.390894
0.374905
0.35846
0.341868
0.325784
0.311096
0.298099
0.475761
0.477324
0.47587
0.469529
0.459868
0.447571
0.43342
0.417958
0.401641
0.384748
0.367503
0.350218
0.333504
0.318128
0.304285
0.495518
0.495534
0.492525
0.484774
0.473814
0.460329
0.445093
0.428638
0.411411
0.393695
0.375724
0.357811
0.340518
0.324498
0.309865
0.51323
0.511895
0.507483
0.498462
0.486333
0.47178
0.455566
0.438217
0.420173
0.401719
0.383098
0.364623
0.346805
0.330192
0.31483
0.528836
0.526352
0.520693
0.510546
0.497382
0.481884
0.464807
0.446667
0.427899
0.408794
0.389603
0.370634
0.352347
0.335195
0.319174
0.542293
0.538848
0.532107
0.520983
0.506924
0.490607
0.472783
0.453958
0.434566
0.414899
0.395217
0.375824
0.357127
0.339496
0.322891
0.553578
0.549324
0.541682
0.529737
0.514925
0.497922
0.479469
0.46007
0.440153
0.420015
0.399924
0.380175
0.361131
0.343087
0.325981
0.562657
0.557742
0.549381
0.536775
0.521359
0.503802
0.484844
0.464982
0.444643
0.424126
0.403708
0.383675
0.364347
0.34596
0.328445
0.569497
0.564077
0.555177
0.542075
0.526203
0.50823
0.48889
0.46868
0.448022
0.427221
0.406557
0.386309
0.366766
0.348115
0.330287
0.574072
0.56831
0.559052
0.545618
0.529441
0.511189
0.491595
0.471151
0.450281
0.429289
0.408462
0.388071
0.368381
0.34955
0.331512
0.576364
0.57043
0.560992
0.547393
0.531063
0.512672
0.49295
0.472389
0.451412
0.430325
0.409416
0.388953
0.36919
0.350267
0.332123
0.576364
0.57043
0.560992
0.547393
0.531063
0.512672
0.49295
0.472389
0.451412
0.430325
0.409416
0.388953
0.36919
0.350267
0.332123
0.574072
0.56831
0.559052
0.545618
0.529441
0.511189
0.491595
0.471151
0.450281
0.429289
0.408462
0.388071
0.368381
0.34955
0.331512
0.569497
0.564077
0.555177
0.542075
0.526203
0.50823
0.48889
0.46868
0.448022
0.427221
0.406557
0.386309
0.366766
0.348115
0.330287
0.562657
0.557742
0.549381
0.536775
0.521359
0.503802
0.484844
0.464982
0.444643
0.424126
0.403708
0.383675
0.364347
0.34596
0.328445
0.553578
0.549323
0.541682
0.529737
0.514925
0.497922
0.479469
0.46007
0.440153
0.420015
0.399924
0.380175
0.361131
0.343087
0.325981
0.542293
0.538848
0.532107
0.520983
0.506924
0.490607
0.472783
0.453958
0.434566
0.414898
0.395217
0.375823
0.357127
0.339496
0.322891
0.528836
0.526352
0.520693
0.510546
0.497382
0.481884
0.464807
0.446666
0.427899
0.408794
0.389603
0.370634
0.352347
0.335195
0.319173
0.51323
0.511895
0.507483
0.498462
0.486333
0.47178
0.455566
0.438217
0.420173
0.401719
0.383098
0.364623
0.346805
0.330192
0.31483
0.495518
0.495534
0.492525
0.484773
0.473813
0.460329
0.445093
0.428638
0.411411
0.393695
0.375724
0.357811
0.340518
0.324498
0.309865
0.475761
0.477324
0.47587
0.469529
0.459868
0.447571
0.43342
0.417958
0.40164
0.384748
0.367503
0.350218
0.333504
0.318128
0.304285
0.454034
0.457324
0.457573
0.452779
0.444542
0.433547
0.420587
0.406215
0.390894
0.374905
0.35846
0.341868
0.325784
0.311096
0.298099
0.430421
0.435604
0.437697
0.434583
0.427889
0.418305
0.406635
0.393442
0.379201
0.364194
0.348623
0.332787
0.317381
0.303421
0.291319
0.40501
0.412241
0.41631
0.415001
0.409965
0.401896
0.39161
0.379684
0.366603
0.352654
0.338024
0.323002
0.308319
0.295121
0.283959
0.377897
0.387321
0.39349
0.394105
0.390833
0.384376
0.375565
0.364986
0.353138
0.340312
0.326688
0.312541
0.298627
0.286221
0.276033
0.349187
0.360933
0.369317
0.371966
0.370558
0.365805
0.35855
0.349393
0.338849
0.327215
0.314662
0.301444
0.288332
0.27674
0.267558
0.31899
0.333176
0.34388
0.348663
0.349212
0.346247
0.340626
0.332962
0.323785
0.3134
0.301969
0.289727
0.277461
0.266709
0.258556
0.287423
0.304152
0.31727
0.324282
0.326869
0.325769
0.321851
0.315742
0.307988
0.298909
0.288658
0.277448
0.26606
0.256153
0.249045
0.254611
0.273972
0.289587
0.298909
0.30361
0.304443
0.30229
0.297795
0.29152
0.283794
0.274765
0.26462
0.254136
0.245095
0.239053
0.220684
0.242749
0.260933
0.272638
0.279518
0.282343
0.28201
0.279177
0.274424
0.268093
0.260332
0.251301
0.241758
0.233584
0.228603
0.185779
0.210604
0.231415
0.245565
0.254679
0.259547
0.261081
0.259955
0.256767
0.251873
0.245413
0.237519
0.228924
0.221616
0.217721
0.150037
0.177662
0.201146
0.217791
0.229183
0.236135
0.239574
0.240189
0.238598
0.235169
0.230039
0.223313
0.2157
0.209269
0.206442
0.113607
0.144052
0.170242
0.18942
0.203124
0.212191
0.217563
0.219948
0.219985
0.218055
0.214288
0.208748
0.202102
0.196514
0.194778
0.0766409
0.109909
0.138823
0.160559
0.176598
0.187801
0.195124
0.199297
0.20098
0.200572
0.198186
0.193841
0.188165
0.18343
0.182777
0.0392961
0.0753693
0.10701
0.131318
0.149703
0.163052
0.172336
0.178303
0.181646
0.182786
0.18182
0.178698
0.17396
0.169982
0.170421
0.00173421
0.0405757
0.0749314
0.10181
0.122538
0.138033
0.149277
0.157037
0.162039
0.164741
0.165223
0.163337
0.159497
0.156194
0.157744
-0.0358789
0.00567302
0.0427148
0.072147
0.0952037
0.112835
0.12603
0.13557
0.142218
0.146486
0.14846
0.147882
0.144939
0.142083
0.144645
-0.0733746
-0.0291908
0.0104909
0.0424451
0.0678023
0.0875482
0.102675
0.113974
0.122242
0.128062
0.131558
0.13236
0.130337
0.127666
0.131043
-0.11058
-0.0638645
-0.0216088
0.0128186
0.0404348
0.0622623
0.0792956
0.0923267
0.102175
0.109506
0.114537
0.116843
0.115922
0.113255
0.116616
-0.14732
-0.0981956
-0.0534532
-0.0166181
0.0132025
0.037067
0.0559708
0.0707024
0.0820876
0.0908668
0.0973998
0.101305
0.10173
0.0990963
0.101126
-0.183414
-0.13203
-0.0849144
-0.045752
-0.0137932
0.0120505
0.0327783
0.0491749
0.0620547
0.0722059
0.0801538
0.0856917
0.0878193
0.0858251
0.0845458
-0.218678
-0.165221
-0.11587
-0.0744705
-0.0404508
-0.0127007
0.00979197
0.0278127
0.0421505
0.0536038
0.0628404
0.0699061
0.0739565
0.0734791
0.0676168
-0.252917
-0.197634
-0.146205
-0.10266
-0.0666695
-0.0371024
-0.0129174
0.00667837
0.0224411
0.0351446
0.0455425
0.0539316
0.0597933
0.0616014
0.0568904
-0.285918
-0.229175
-0.175807
-0.130202
-0.0923515
-0.0610746
-0.0352814
-0.0141701
0.00298175
0.0169015
0.0283697
0.0378956
0.045345
0.0497484
0.0490227
-0.317439
-0.259812
-0.204558
-0.156973
-0.117407
-0.084542
-0.0572335
-0.0346779
-0.0161817
-0.00106874
0.0114278
0.0219801
0.0308309
0.0374907
0.0400168
-0.347215
-0.289582
-0.232307
-0.182854
-0.141758
-0.107434
-0.0787083
-0.0547917
-0.0350088
-0.018727
-0.00521508
0.00630301
0.0163871
0.0248005
0.0289808
-0.374994
-0.318504
-0.258857
-0.207761
-0.165344
-0.129681
-0.0996424
-0.0744605
-0.0534633
-0.0360484
-0.0215351
-0.00910901
0.00201778
0.0117834
0.0169565
-0.401033
-0.345969
-0.283997
-0.231661
-0.188105
-0.151215
-0.119976
-0.0936369
-0.0715116
-0.0530181
-0.0375358
-0.0242719
-0.0122945
-0.00147257
0.00487316
-0.425134
-0.371645
-0.307675
-0.254546
-0.209972
-0.171968
-0.139657
-0.112278
-0.0891229
-0.0696238
-0.0532246
-0.0391928
-0.0265117
-0.0148329
-0.00713545
-0.447276
-0.395048
-0.33
-0.276364
-0.23086
-0.19188
-0.158642
-0.130348
-0.106267
-0.0858493
-0.0685982
-0.0538559
-0.0405562
-0.0281379
-0.0192158
-0.467303
-0.416051
-0.351082
-0.29699
-0.250681
-0.210904
-0.176895
-0.147811
-0.122916
-0.101672
-0.083639
-0.0682324
-0.0543636
-0.0412833
-0.0313559
-0.485067
-0.434975
-0.370734
-0.316263
-0.269371
-0.229007
-0.194386
-0.16464
-0.139039
-0.117066
-0.0983221
-0.082296
-0.0679042
-0.0542385
-0.0434178
-0.500474
-0.452035
-0.38881
-0.334071
-0.286894
-0.246167
-0.211092
-0.180808
-0.154612
-0.132005
-0.112622
-0.0960264
-0.0811681
-0.0669992
-0.0553103
-0.513476
-0.467244
-0.405152
-0.350496
-0.30325
-0.262371
-0.226991
-0.196293
-0.169614
-0.146466
-0.126518
-0.109409
-0.0941465
-0.0795489
-0.0670181
-0.524058
-0.480518
-0.419726
-0.365619
-0.318476
-0.277615
-0.24207
-0.211081
-0.184029
-0.160433
-0.139991
-0.122427
-0.106826
-0.0918591
-0.0785362
-0.532245
-0.491791
-0.432587
-0.379427
-0.332696
-0.291908
-0.256325
-0.225163
-0.197849
-0.173897
-0.153031
-0.135066
-0.119194
-0.103908
-0.0898427
-0.538119
-0.501069
-0.443827
-0.391938
-0.345899
-0.305356
-0.269773
-0.238538
-0.21107
-0.186853
-0.165629
-0.147307
-0.131237
-0.115691
-0.10091
-0.541827
-0.508441
-0.453574
-0.403224
-0.358078
-0.317959
-0.282501
-0.251223
-0.223691
-0.1993
-0.177785
-0.159137
-0.142929
-0.12722
-0.111727
-0.543598
-0.51408
-0.461998
-0.413389
-0.369258
-0.329697
-0.294504
-0.263307
-0.235712
-0.21124
-0.189509
-0.170555
-0.154228
-0.138519
-0.122303
-0.543736
-0.518246
-0.469324
-0.422555
-0.379491
-0.34057
-0.305763
-0.274764
-0.247206
-0.222692
-0.200821
-0.181581
-0.165101
-0.149574
-0.132673
-0.542626
-0.521331
-0.475812
-0.430847
-0.388834
-0.3506
-0.316274
-0.285585
-0.258173
-0.233683
-0.211744
-0.192266
-0.175557
-0.160302
-0.142923
-0.540713
-0.523906
-0.481716
-0.438379
-0.397343
-0.359827
-0.326064
-0.295779
-0.268605
-0.244214
-0.222284
-0.202695
-0.185625
-0.170556
-0.153192
-0.538538
-0.526479
-0.487219
-0.445227
-0.405074
-0.368304
-0.335174
-0.305368
-0.278503
-0.254279
-0.232421
-0.212784
-0.195442
-0.180264
-0.163602
-0.536759
-0.529287
-0.492384
-0.45142
-0.412072
-0.376089
-0.343659
-0.314384
-0.287882
-0.263882
-0.242149
-0.222515
-0.205011
-0.189662
-0.173869
-0.535975
-0.532405
-0.497151
-0.456929
-0.418367
-0.383239
-0.35157
-0.322867
-0.296762
-0.273032
-0.25147
-0.231894
-0.214317
-0.198853
-0.183719
-0.536578
-0.535756
-0.501336
-0.461679
-0.423978
-0.389809
-0.358955
-0.33085
-0.305174
-0.281753
-0.260401
-0.240932
-0.223342
-0.207807
-0.192977
-0.5386
-0.538963
-0.50459
-0.465552
-0.428926
-0.395851
-0.365847
-0.338355
-0.313139
-0.290066
-0.268963
-0.24964
-0.232075
-0.216479
-0.201675
-0.541447
-0.541125
-0.506414
-0.468438
-0.433258
-0.401402
-0.372255
-0.345396
-0.320685
-0.298007
-0.277187
-0.258035
-0.24051
-0.224844
-0.209935
-0.543656
-0.540578
-0.506203
-0.470286
-0.437038
-0.406472
-0.37817
-0.351981
-0.327837
-0.305605
-0.285097
-0.266131
-0.248657
-0.23292
-0.217871
-0.543206
-0.535322
-0.503537
-0.471199
-0.44032
-0.411016
-0.383564
-0.358128
-0.334638
-0.3129
-0.292723
-0.273953
-0.256532
-0.240733
-0.225558
-0.537782
-0.524021
-0.498532
-0.471465
-0.443061
-0.414928
-0.388419
-0.363879
-0.341132
-0.319923
-0.300086
-0.281519
-0.264169
-0.248333
-0.233048
-0.527672
-0.507255
-0.492442
-0.471446
-0.445066
-0.418103
-0.392772
-0.369314
-0.347384
-0.326713
-0.307215
-0.28886
-0.271599
-0.255759
-0.240393
-0.514653
-0.488674
-0.487749
-0.471101
-0.44607
-0.420557
-0.39675
-0.37453
-0.353439
-0.333298
-0.314132
-0.295996
-0.278854
-0.263062
-0.247663
-0.501153
-0.474603
-0.485264
-0.469798
-0.446017
-0.422511
-0.400554
-0.379634
-0.359355
-0.339711
-0.320866
-0.302959
-0.285955
-0.270258
-0.254919
-0.488657
-0.46885
-0.483441
-0.466957
-0.445216
-0.424357
-0.404389
-0.384698
-0.36516
-0.345983
-0.327447
-0.30977
-0.292928
-0.277366
-0.262168
-0.478576
-0.470228
-0.47932
-0.462609
-0.444329
-0.42651
-0.408392
-0.389778
-0.37091
-0.352156
-0.333902
-0.316453
-0.299778
-0.284378
-0.269408
-0.471421
-0.473892
-0.470794
-0.45757
-0.444161
-0.429187
-0.412574
-0.39491
-0.376657
-0.358283
-0.340268
-0.323022
-0.306523
-0.291297
-0.276602
-0.466374
-0.475239
-0.458477
-0.453642
-0.445216
-0.432242
-0.416909
-0.400194
-0.382502
-0.364402
-0.346552
-0.329484
-0.31315
-0.298109
-0.283756
-0.462818
-0.472943
-0.446866
-0.452981
-0.447022
-0.43532
-0.421467
-0.405774
-0.388516
-0.370557
-0.352774
-0.335843
-0.319687
-0.304823
-0.290839
-0.460503
-0.467577
-0.443135
-0.454486
-0.448116
-0.438361
-0.426552
-0.411831
-0.394764
-0.376731
-0.358911
-0.342085
-0.326103
-0.311441
-0.29788
-0.459007
-0.460516
-0.447308
-0.452909
-0.447794
-0.441955
-0.43252
-0.418455
-0.401252
-0.382945
-0.364962
-0.348205
-0.332433
-0.317974
-0.304851
-0.458068
-0.455399
-0.452467
-0.444769
-0.447165
-0.447029
-0.439574
-0.425675
-0.407969
-0.389124
-0.370871
-0.354163
-0.338626
-0.324434
-0.311803
-0.457752
-0.453368
-0.455345
-0.434789
-0.449818
-0.453909
-0.447595
-0.433483
-0.414901
-0.39526
-0.376594
-0.359933
-0.344715
-0.33081
-0.318715
-0.457707
-0.454087
-0.455556
-0.43582
-0.456369
-0.461978
-0.456661
-0.441948
-0.421966
-0.401189
-0.382037
-0.365441
-0.35062
-0.337138
-0.325653
-0.457903
-0.455922
-0.454944
-0.447879
-0.462684
-0.470895
-0.467106
-0.45107
-0.429034
-0.406815
-0.38708
-0.370633
-0.356361
-0.343375
-0.332627
-0.458293
-0.457817
-0.456705
-0.46171
-0.467054
-0.481779
-0.479114
-0.460551
-0.435788
-0.411854
-0.391591
-0.375389
-0.361846
-0.349606
-0.339699
-0.458574
-0.459444
-0.460292
-0.470823
-0.473927
-0.495777
-0.492012
-0.469887
-0.441897
-0.416073
-0.395332
-0.379633
-0.367071
-0.355762
-0.346961
-0.458394
-0.460401
-0.463908
-0.47614
-0.487403
-0.510759
-0.504312
-0.478315
-0.446793
-0.419044
-0.398118
-0.383179
-0.371971
-0.362004
-0.354479
-0.457559
-0.460501
-0.466169
-0.478765
-0.503582
-0.521784
-0.514814
-0.48506
-0.449795
-0.420284
-0.399572
-0.38596
-0.376506
-0.368273
-0.362504
-0.456102
-0.459695
-0.466721
-0.479496
-0.512696
-0.526778
-0.522406
-0.488723
-0.449962
-0.419257
-0.399472
-0.387732
-0.380712
-0.37477
-0.3711
-0.454277
-0.458261
-0.465735
-0.47951
-0.512922
-0.528075
-0.526066
-0.487767
-0.446347
-0.415349
-0.397414
-0.388504
-0.384506
-0.381529
-0.380594
-0.452536
-0.456693
-0.46408
-0.477902
-0.505303
-0.526053
-0.521866
-0.480945
-0.438317
-0.408193
-0.393222
-0.38807
-0.38814
-0.388694
-0.390846
-0.451392
-0.455625
-0.462748
-0.474958
-0.495194
-0.518394
-0.506551
-0.467691
-0.425366
-0.397426
-0.386784
-0.386655
-0.391537
-0.396563
-0.402134
-0.451173
-0.455389
-0.462131
-0.471959