/*--------------------------------*- C++ -*----------------------------------*\
  =========                 |
  \\      /  F ield         | OpenFOAM: The Open Source CFD Toolbox
   \\    /   O peration     | Website:  https://openfoam.org
    \\  /    A nd           | Version:  7
     \\/     M anipulation  |
\*---------------------------------------------------------------------------*/
FoamFile
{
    version     2.0;
    format      ascii;
    class       surfaceScalarField;
    location    "4.9995";
    object      phi;
}
// * * * * * * * * * * * * * * * * * * * * * * * * * * * * * * * * * * * * * //

dimensions      [0 3 -1 0 0 0 0];

internalField   nonuniform List<scalar> 
37105
(
-1.72853e-05
1.72851e-05
2.28117e-10
-3.88749e-05
2.15893e-05
2.81387e-10
-6.09818e-05
2.21066e-05
2.86859e-10
-8.40244e-05
2.30423e-05
3.06098e-10
-0.000108015
2.39905e-05
3.31304e-10
-0.000133009
2.49934e-05
3.60913e-10
-0.000158998
2.5989e-05
3.91827e-10
-0.000185967
2.69681e-05
4.21409e-10
-0.000213887
2.79201e-05
4.46916e-10
-0.000242706
2.88185e-05
4.6564e-10
-0.000272254
2.95471e-05
4.74045e-10
-0.000302051
2.97962e-05
4.66188e-10
-0.000331205
2.91538e-05
4.33632e-10
-0.00035862
2.74142e-05
3.70208e-10
2.46835e-05
2.7587e-10
-0.000383303
-1.6995e-05
3.42801e-05
-3.83085e-05
4.29028e-05
-6.01334e-05
4.39315e-05
-8.28562e-05
4.57651e-05
-0.000106473
4.76076e-05
-0.000131017
4.95368e-05
-0.000156462
5.14344e-05
-0.000182779
5.32849e-05
-0.000209923
5.50642e-05
-0.000237818
5.67135e-05
-0.000266286
5.80149e-05
-0.000294895
5.8405e-05
-0.00032282
5.70788e-05
-0.000348928
5.3523e-05
4.79197e-05
-0.000372165
-1.64188e-05
5.06989e-05
-3.71859e-05
6.36699e-05
-5.84549e-05
6.52006e-05
-8.05542e-05
6.78644e-05
-0.000103453
7.05062e-05
-0.000127142
7.32263e-05
-0.000151569
7.58614e-05
-0.00017668
7.83957e-05
-0.000202405
8.07887e-05
-0.000228631
8.29401e-05
-0.000255165
8.45487e-05
-0.000281641
8.48811e-05
-0.000307365
8.28032e-05
-0.000331162
7.73192e-05
6.85632e-05
-0.000351805
-1.55644e-05
6.62633e-05
-3.55168e-05
8.36222e-05
-5.59563e-05
8.56401e-05
-7.71369e-05
8.9045e-05
-9.89906e-05
9.23599e-05
-0.000121454
9.56898e-05
-0.000144436
9.88429e-05
-0.000167857
0.000101817
-0.000191633
0.000104564
-0.000215631
0.000106939
-0.000239657
0.000108575
-0.000263417
0.00010864
-0.000286396
0.000105783
-0.00030747
9.83931e-05
8.6209e-05
-0.000325116
-1.44626e-05
8.07259e-05
-3.33258e-05
0.000102485
-5.26771e-05
0.000104991
-7.26702e-05
0.000109038
-9.31822e-05
0.000112872
-0.000114079
0.000116586
-0.000135225
0.000119989
-0.000156535
0.000123127
-0.000177946
0.000125975
-0.000199366
0.000128358
-0.00022065
0.000129859
-0.000241592
0.000129582
-0.000261865
0.000126056
-0.0002805
0.000117027
0.000101358
-0.000295648
-1.31574e-05
9.38833e-05
-3.06374e-05
0.000119965
-4.86635e-05
0.000123017
-6.72246e-05
0.000127599
-8.61239e-05
0.000131771
-0.000105156
0.000135618
-0.000124166
0.000138999
-0.000143105
0.000142067
-0.000162009
0.000144878
-0.000180905
0.000147255
-0.000199772
0.000148726
-0.000218512
0.000148322
-0.000236912
0.000144457
-0.000254167
0.000134282
0.000115322
-0.000268132
-1.15594e-05
0.000105443
-2.7458e-05
0.000135864
-4.39771e-05
0.000139537
-6.09086e-05
0.000144531
-7.79953e-05
0.000148858
-9.49908e-05
0.000152614
-0.000111768
0.000155776
-0.000128381
0.00015868
-0.00014503
0.000161527
-0.000161933
0.000164158
-0.000179225
0.000166018
-0.000196862
0.000165959
-0.000214546
0.000162141
-0.000231491
0.000151228
0.000129169
-0.000245338
-9.70728e-06
0.00011515
-2.38213e-05
0.000149978
-3.87033e-05
0.000154419
-5.38784e-05
0.000159706
-6.90584e-05
0.000164038
-8.40046e-05
0.00016756
-9.86679e-05
0.00017044
-0.000113242
0.000173254
-0.000128116
0.000176401
-0.000143685
0.000179727
-0.000160151
0.000182484
-0.00017732
0.000183128
-0.000194531
0.000179352
-0.000210748
0.000167446
0.000142343
-0.000223923
-7.63339e-06
0.000122783
-1.97875e-05
0.000162132
-3.2949e-05
0.00016758
-4.62995e-05
0.000173056
-5.95633e-05
0.000177302
-7.25446e-05
0.000180541
-8.52882e-05
0.000183183
-9.81209e-05
0.000186087
-0.000111563
0.000189843
-0.000126073
0.000194237
-0.000141752
0.000198162
-0.000158081
0.000199457
-0.000173934
0.000195205
-0.000187925
0.000181436
0.000152776
-0.000198357
-5.34407e-06
0.000128128
-1.54188e-05
0.000172207
-2.68142e-05
0.000178976
-3.83189e-05
0.000184561
-4.97134e-05
0.000188696
-6.08575e-05
0.000191685
-7.18822e-05
0.000194208
-8.31967e-05
0.000197402
-9.53451e-05
0.000201991
-0.000108698
0.00020759
-0.000123137
0.000212601
-0.000137808
0.000214128
-0.000151205
0.000208603
-0.000161615
0.000191846
0.000158981
-0.00016782
-2.8305e-06
0.000130958
-1.08089e-05
0.000180185
-2.03915e-05
0.000188558
-3.00506e-05
0.00019422
-3.9647e-05
0.000198293
-4.90723e-05
0.000201111
-5.84956e-05
0.000203631
-6.83237e-05
0.00020723
-7.90038e-05
0.000212671
-9.07146e-05
0.000219301
-0.000103128
0.000225015
-0.000115188
0.000226188
-0.000125228
0.000218643
-0.000131296
0.000197914
0.000160202
-0.000132517
1.00965e-07
0.000130857
-6.04294e-06
0.000186329
-1.37223e-05
0.000196237
-2.15762e-05
0.000202074
-2.94489e-05
0.000206165
-3.72323e-05
0.000208894
-4.5085e-05
0.000211484
-5.33415e-05
0.000215486
-6.22889e-05
0.000221619
-7.19088e-05
0.000228921
-8.17129e-05
0.000234819
-9.04872e-05
0.000234962
-9.63827e-05
0.000224538
-9.75213e-05
0.000199053
0.000155991
-9.33104e-05
2.43598e-06
0.000128421
-1.26172e-06
0.000190027
-6.84e-06
0.000201816
-1.29654e-05
0.000208199
-1.91659e-05
0.000212366
-2.53476e-05
0.000215076
-3.15926e-05
0.000217729
-3.81165e-05
0.00022201
-4.50131e-05
0.000228515
-5.20405e-05
0.000235948
-5.85612e-05
0.00024134
-6.32505e-05
0.000239651
-6.4357e-05
0.000225645
-6.13663e-05
0.000196062
0.000147431
-5.28058e-05
5.13223e-06
0.000123289
4.05022e-06
0.000191109
9.61346e-08
0.00020577
-4.28691e-06
0.000212583
-8.84165e-06
0.000216921
-1.34154e-05
0.00021965
-1.79772e-05
0.000222291
-2.25893e-05
0.000226622
-2.71447e-05
0.000233071
-3.12052e-05
0.000240008
-3.40607e-05
0.000244195
-3.46205e-05
0.000240211
-3.133e-05
0.000222354
-2.52374e-05
0.000189969
0.000136416
-1.42226e-05
7.98251e-06
0.000115306
9.48089e-06
0.000189611
7.5023e-06
0.000207748
4.58101e-06
0.000215504
1.4703e-06
0.000220031
-1.46003e-06
0.00022258
-4.25573e-06
0.000225086
-6.80209e-06
0.000229169
-8.83497e-06
0.000235104
-9.7961e-06
0.000240969
-9.05473e-06
0.000243454
-5.5795e-06
0.000236736
1.11012e-06
0.000215664
1.03621e-05
0.000180717
0.000124797
2.19808e-05
1.08696e-05
0.000104437
1.49486e-05
0.000185532
1.48278e-05
0.000207869
1.35542e-05
0.000216777
1.20344e-05
0.000221551
1.05815e-05
0.000224033
9.51675e-06
0.000226151
9.11383e-06
0.000229571
9.72885e-06
0.000234489
1.21049e-05
0.000238593
1.68725e-05
0.000238686
2.43536e-05
0.000229255
3.77925e-05
0.000202225
5.27012e-05
0.000165809
0.000110993
6.65052e-05
1.36862e-05
9.07505e-05
2.03787e-05
0.000178839
2.21355e-05
0.000206112
2.24466e-05
0.000216466
2.24371e-05
0.000221561
2.25376e-05
0.000223932
2.32177e-05
0.000225471
2.49951e-05
0.000227794
2.82683e-05
0.000231215
3.39309e-05
0.000232931
4.26661e-05
0.000229951
5.28146e-05
0.000219106
6.97846e-05
0.000185255
9.25322e-05
0.000143061
8.93698e-05
0.000114156
1.62749e-05
7.44755e-05
2.55912e-05
0.000169523
2.9332e-05
0.000202372
3.12379e-05
0.00021456
3.27121e-05
0.000220087
3.43399e-05
0.000222305
3.67025e-05
0.000223108
4.05968e-05
0.0002239
4.64323e-05
0.00022538
5.46565e-05
0.000224707
6.77798e-05
0.000216828
8.12238e-05
0.000205662
9.75404e-05
0.000168939
0.000121798
0.000118804
5.82107e-05
0.000152957
1.83504e-05
5.61252e-05
3.03091e-05
0.000157564
3.62683e-05
0.000196412
3.98518e-05
0.000210977
4.2789e-05
0.000217149
4.58929e-05
0.000219201
4.98246e-05
0.000219177
5.56174e-05
0.000218107
6.40497e-05
0.000216948
7.42042e-05
0.000214552
9.07376e-05
0.000200294
0.000109917
0.000186483
0.000129179
0.000149676
0.000150984
9.69985e-05
2.36176e-05
0.000185577
1.9276e-05
3.68491e-05
3.41521e-05
0.000142688
4.2746e-05
0.000187818
4.8144e-05
0.000205579
5.25423e-05
0.000212751
5.71116e-05
0.000214631
6.25255e-05
0.000213763
6.97414e-05
0.000210891
8.07289e-05
0.00020596
9.2844e-05
0.000202437
0.000110193
0.000182945
0.000133338
0.000163338
0.000159617
0.000123397
0.000182475
7.41404e-05
-7.99609e-06
0.000214089
1.80609e-05
1.87883e-05
3.66681e-05
0.000124081
4.84401e-05
0.000176046
5.58805e-05
0.000198139
6.18007e-05
0.000206831
6.7794e-05
0.000208638
7.47548e-05
0.000206802
8.30002e-05
0.000202646
9.60324e-05
0.000192928
0.000110898
0.000187571
0.000128514
0.000165329
0.000151011
0.000140842
0.000180978
9.34302e-05
0.000207066
4.80521e-05
-3.72847e-05
0.000236355
1.45833e-05
4.20496e-06
3.76351e-05
0.000101029
5.28778e-05
0.000160804
6.27247e-05
0.000188292
7.03995e-05
0.000199156
7.77695e-05
0.000201268
8.62948e-05
0.000198277
9.53592e-05
0.000193581
0.000109212
0.000179075
0.00012705
0.000169734
0.000147406
0.000144973
0.000168995
0.000119253
0.000197551
6.48743e-05
0.000225993
1.96102e-05
-6.56393e-05
0.000254347
1.02629e-05
-6.0579e-06
3.68137e-05
7.44781e-05
5.54928e-05
0.000142125
6.82802e-05
0.000175504
7.8065e-05
0.000189371
8.67121e-05
0.000192621
9.69452e-05
0.000188044
0.000107285
0.000183242
0.000120717
0.000165643
0.000139077
0.000151374
0.0001629
0.00012115
0.000186096
9.6057e-05
0.000212725
3.82447e-05
0.000241721
-9.38498e-06
-9.31621e-05
0.000269243
6.1281e-06
-1.2186e-05
3.32091e-05
4.73971e-05
5.57705e-05
0.000119563
7.20934e-05
0.000159181
8.4543e-05
0.000176922
9.44614e-05
0.000182703
0.000105924
0.000176581
0.000118238
0.000170928
0.000132765
0.000151116
0.000148961
0.000135178
0.000173622
9.6489e-05
0.000198421
7.12581e-05
0.000224653
1.20126e-05
0.000253673
-3.84047e-05
-0.000119956
0.000280467
2.22895e-06
-1.44149e-05
2.62078e-05
2.34182e-05
5.331e-05
9.24611e-05
7.34636e-05
0.000139028
8.90949e-05
0.00016129
0.000100938
0.000170859
0.000113326
0.000164193
0.000126156
0.000158098
0.00014424
0.000133033
0.000159022
0.000120395
0.000183471
7.204e-05
0.000207464
4.72652e-05
0.000234612
-1.51355e-05
0.000263485
-6.72778e-05
-0.000145647
0.000289176
-8.21536e-07
-1.35934e-05
1.74952e-05
5.10148e-06
4.79238e-05
6.20325e-05
7.15616e-05
0.00011539
9.09351e-05
0.000141917
0.00010498
0.000156814
0.000119641
0.000149532
0.000131465
0.000146274
0.00015188
0.000112617
0.000167362
0.000104914
0.000192901
4.65013e-05
0.000214566
2.55999e-05
0.000243611
-4.41811e-05
0.000270001
-9.36678e-05
-0.000167906
0.00029226
-1.94493e-06
-1.16485e-05
9.85112e-06
-6.69457e-06
3.88391e-05
3.30445e-05
6.55579e-05
8.86712e-05
8.93034e-05
0.000118171
0.000105619
0.000140498
0.000122925
0.000132227
0.000135718
0.00013348
0.00015549
9.28458e-05
0.000172882
8.75215e-05
0.000198189
2.11943e-05
0.000218068
5.7216e-06
0.000248137
-7.42501e-05
0.000268209
-0.000113741
-0.000186381
0.000286684
-1.53584e-06
-1.01126e-05
4.63512e-06
-1.28655e-05
2.71404e-05
1.05392e-05
5.54224e-05
6.03891e-05
8.27295e-05
9.08641e-05
0.000102237
0.00012099
0.000121177
0.000113286
0.000137091
0.000117566
0.000154534
7.54029e-05
0.000175037
6.70184e-05
0.000195041
1.19068e-06
0.000217675
-1.69121e-05
0.00024396
-0.000100536
0.000257705
-0.000127485
-0.000204079
0.000275404
-7.57407e-07
-9.35523e-06
2.3455e-06
-1.59684e-05
1.63614e-05
-3.47666e-06
4.22249e-05
3.45256e-05
7.04907e-05
6.25983e-05
9.27782e-05
9.87029e-05
0.00011342
9.26446e-05
0.000131957
9.90294e-05
0.000148513
5.88468e-05
0.000171446
4.40848e-05
0.000185744
-1.31064e-05
0.000213701
-4.48695e-05
0.000227782
-0.000114617
0.000242127
-0.00014183
-0.000224956
0.000263004
9.55017e-08
-9.45073e-06
2.15611e-06
-1.8029e-05
9.34038e-06
-1.06609e-05
2.89774e-05
1.48885e-05
5.39671e-05
3.76086e-05
7.66021e-05
7.60679e-05
9.88424e-05
7.04043e-05
0.000118436
7.94356e-05
0.000136072
4.12111e-05
0.000158069
2.20874e-05
0.000173105
-2.81419e-05
0.0001986
-7.03648e-05
0.000200967
-0.000116984
0.000225848
-0.000166711
-0.000247697
0.000248589
7.14568e-07
-1.01653e-05
2.44299e-06
-1.97575e-05
6.26847e-06
-1.44864e-05
1.83011e-05
2.85588e-06
3.60512e-05
1.98586e-05
5.68884e-05
5.52307e-05
7.67446e-05
5.0548e-05
9.69221e-05
5.92582e-05
0.000114799
2.33346e-05
0.0001334
3.48566e-06
0.000152271
-4.70125e-05
0.000164949
-8.30425e-05
0.000178759
-0.000130794
0.000216282
-0.000204234
-0.00029677
0.000265354
1.01882e-06
-1.11841e-05
2.30979e-06
-2.10484e-05
4.50202e-06
-1.66786e-05
1.04062e-05
-3.04834e-06
2.04613e-05
9.80352e-06
3.654e-05
3.9152e-05
5.06525e-05
3.64355e-05
6.90776e-05
4.08331e-05
8.43691e-05
8.04313e-06
0.000102267
-1.44117e-05
0.000118137
-6.28833e-05
0.000135944
-0.000100849
0.000176567
-0.000171417
0.000237447
-0.000265114
-0.000358266
0.000298943
8.25588e-07
-1.20097e-05
1.12103e-06
-2.13439e-05
1.72284e-06
-1.72805e-05
3.08414e-06
-4.40963e-06
7.01561e-06
5.87205e-06
1.61113e-05
3.00563e-05
2.42028e-05
2.8344e-05
3.72423e-05
2.77936e-05
5.08417e-05
-5.55624e-06
6.85857e-05
-3.21558e-05
9.27967e-05
-8.70942e-05
0.000138246
-0.000146298
0.000203772
-0.000236944
0.000261101
-0.000322443
-0.000386944
0.000289779
9.58229e-08
-1.21055e-05
-1.14412e-06
-2.01039e-05
-2.84132e-06
-1.55833e-05
-4.75438e-06
-2.49656e-06
-6.42175e-06
7.53941e-06
-4.53421e-06
2.81688e-05
-1.33594e-06
2.51458e-05
6.63929e-06
1.98183e-05
2.11681e-05
-2.00851e-05
5.30184e-05
-6.40061e-05
0.000104564
-0.00013864
0.000170838
-0.000212571
0.000227382
-0.000293488
0.000259595
-0.000354656
-0.000413135
0.000285787
-1.11907e-06
-1.09865e-05
-4.17914e-06
-1.70439e-05
-8.63488e-06
-1.11275e-05
-1.35404e-05
2.40897e-06
-2.04739e-05
1.44729e-05
-2.44632e-05
3.21581e-05
-2.64891e-05
2.71716e-05
-1.44581e-05
7.78733e-06
1.67085e-05
-5.12516e-05
7.3684e-05
-0.000120982
0.000138038
-0.000202995
0.000193442
-0.000267976
0.000230253
-0.000330298
0.000258266
-0.000382669
-0.0004328
0.00027793
-2.51971e-06
-8.46675e-06
-7.62775e-06
-1.19358e-05
-1.45811e-05
-4.17418e-06
-2.26075e-05
1.04353e-05
-3.32554e-05
2.51208e-05
-4.08302e-05
3.9733e-05
-3.92563e-05
2.55977e-05
-9.17257e-06
-2.22964e-05
4.42209e-05
-0.000104645
0.000107047
-0.000183808
0.000158432
-0.000254379
0.00019879
-0.000308334
0.000230064
-0.000361572
0.000251476
-0.000404081
-0.000447088
0.000265763
-3.83819e-06
-4.62856e-06
-1.07053e-05
-5.06875e-06
-1.95336e-05
4.6542e-06
-2.96509e-05
2.05526e-05
-4.10041e-05
3.64739e-05
-4.63958e-05
4.51247e-05
-3.12111e-05
1.0413e-05
1.78595e-05
-7.1367e-05
7.56671e-05
-0.000162453
0.000126899
-0.00023504
0.000167433
-0.000294913
0.000201598
-0.000342499
0.000226153
-0.000386126
0.000244131
-0.000422059
-0.000462524
0.000259568
-4.71552e-06
8.69517e-08
-1.25943e-05
2.81004e-06
-2.20447e-05
1.41046e-05
-3.20856e-05
3.05935e-05
-4.04997e-05
4.4888e-05
-3.86711e-05
4.3296e-05
-6.1123e-06
-2.21458e-05
4.76324e-05
-0.000125112
9.63654e-05
-0.000211186
0.000139277
-0.000277951
0.000174095
-0.000329731
0.00020087
-0.000369274
0.000221121
-0.000406378
0.000236872
-0.00043781
-0.000472798
0.000247146
-4.90735e-06
4.99431e-06
-1.2765e-05
1.06676e-05
-2.14112e-05
2.27509e-05
-2.92131e-05
3.83954e-05
-3.2632e-05
4.83069e-05
-2.03231e-05
3.09872e-05
2.18031e-05
-6.4272e-05
7.02199e-05
-0.000173528
0.00011302
-0.000253986
0.000149194
-0.000314125
0.000176735
-0.000357272
0.000198447
-0.000390986
0.000214864
-0.000422796
0.000227362
-0.000450308
-0.000485108
0.000239673
-4.41445e-06
9.40876e-06
-1.13156e-05
1.75688e-05
-1.80623e-05
2.94976e-05
-2.23931e-05
4.27261e-05
-2.17873e-05
4.77012e-05
2.32701e-06
6.87284e-06
4.7488e-05
-0.000109433
8.89135e-05
-0.000214954
0.000125757
-0.000290829
0.000154709
-0.000343077
0.000176942
-0.000379506
0.000194333
-0.000408377
0.00020796
-0.000436423
0.000220337
-0.000462685
-0.000494322
0.00022955
-3.40785e-06
1.28166e-05
-8.73026e-06
2.28912e-05
-1.30771e-05
3.38444e-05
-1.35687e-05
4.32178e-05
-8.41755e-06
4.255e-05
2.29733e-05
-2.45181e-05
6.6952e-05
-0.000153412
0.000104494
-0.000252496
0.000134545
-0.00032088
0.000157785
-0.000366317
0.000175374
-0.000397095
0.000189732
-0.000422735
0.000201537
-0.000448228
0.000211257
-0.000472404
-0.000503732
0.000220667
-2.12982e-06
1.49464e-05
-5.58256e-06
2.6344e-05
-7.27541e-06
3.55373e-05
-5.12456e-06
4.10669e-05
6.9672e-06
3.04582e-05
4.48562e-05
-6.2407e-05
8.32323e-05
-0.000191788
0.000115674
-0.000284938
0.000140307
-0.000345512
0.000158523
-0.000384533
0.000172603
-0.000411176
0.000184373
-0.000434505
0.000194108
-0.000457963
0.000203904
-0.000482201
-0.000512153
0.000212325
-8.26061e-07
1.57725e-05
-2.45181e-06
2.79697e-05
-1.5771e-06
3.46625e-05
1.23705e-06
3.82528e-05
2.01182e-05
1.15771e-05
6.18536e-05
-0.000104142
9.66672e-05
-0.000226601
0.000123768
-0.000312039
0.000143284
-0.000365028
0.000157539
-0.000398788
0.000168744
-0.000422381
0.000178608
-0.000444368
0.000187565
-0.000466919
0.000195737
-0.000490373
-0.000519411
0.000202996
3.09336e-07
1.54631e-05
4.63684e-07
2.78154e-05
3.14761e-06
3.19786e-05
8.0666e-06
3.33338e-05
3.31292e-05
-1.34855e-05
7.44113e-05
-0.000145425
0.000106249
-0.000258439
0.000128523
-0.000334313
0.000143951
-0.000380456
0.000155134
-0.000409971
0.00016435
-0.000431597
0.000172805
-0.000452823
0.000180279
-0.000474393
0.000188042
-0.000498136
-0.000526563
0.000195193
1.15546e-06
1.43077e-05
2.65749e-06
2.63133e-05
6.45833e-06
2.81778e-05
1.37443e-05
2.60478e-05
4.68089e-05
-4.65501e-05
8.4987e-05
-0.000183603
0.000112967
-0.000286419
0.000131044
-0.00035239
0.000142992
-0.000392403
0.000151807
-0.000418787
0.00015938
-0.000439171
0.000166552
-0.000459995
0.000173559
-0.000481401
0.000180455
-0.000505032
-0.000532186
0.000186078
1.54774e-06
1.27599e-05
3.95546e-06
2.39056e-05
7.19886e-06
2.49344e-05
1.90698e-05
1.41769e-05
5.88882e-05
-8.63685e-05
9.29516e-05
-0.000217666
0.000116441
-0.000309909
0.000131032
-0.000366981
0.000140499
-0.00040187
0.000147609
-0.000425897
0.000154073
-0.000445635
0.000160481
-0.000466403
0.000166517
-0.000487436
0.000172734
-0.000511249
-0.000537931
0.000178479
1.49645e-06
1.12635e-05
4.18154e-06
2.12205e-05
6.07519e-06
2.30407e-05
2.50645e-05
-4.81244e-06
6.79429e-05
-0.000129247
9.85997e-05
-0.000248323
0.000118007
-0.000329316
0.000129672
-0.000378646
0.000137157
-0.000409355
0.000142995
-0.000431735
0.000148544
-0.000451184
0.000154058
-0.000471916
0.000159669
-0.000493048
0.000165426
-0.000517005
-0.000542666
0.000170161
1.22384e-06
1.00397e-05
3.67415e-06
1.87702e-05
5.48197e-06
2.12329e-05
3.3457e-05
-3.27875e-05
7.41485e-05
-0.000169938
0.000101671
-0.000275845
0.000117594
-0.000345239
0.000126818
-0.00038787
0.000132898
-0.000415435
0.000137855
-0.000436693
0.000142747
-0.000456076
0.00014778
-0.00047695
0.000152755
-0.000498023
0.000157826
-0.000522076
-0.000547493
0.000162653
8.26547e-07
9.21311e-06
1.85876e-06
1.7738e-05
7.91668e-06
1.5175e-05
4.3776e-05
-6.86468e-05
7.90205e-05
-0.000205183
0.000102533
-0.000299358
0.000115826
-0.000358531
0.000123316
-0.000395361
0.000128306
-0.000420424
0.000132567
-0.000440954
0.000136907
-0.000460416
0.000141295
-0.000481337
0.000145842
-0.00050257
0.000150582
-0.000526816
-0.000551635
0.000154725
2.12124e-07
9.00099e-06
-7.21793e-07
1.86719e-05
1.1747e-05
2.70622e-06
5.29485e-05
-0.000109848
8.27247e-05
-0.000234959
0.000101961
-0.000318594
0.00011285
-0.000369421
0.000118969
-0.000401479
0.000123199
-0.000424655
0.000126966
-0.000444721
0.000130854
-0.000464303
0.000134873
-0.000485357
0.000138969
-0.000506666
0.00014309
-0.000530937
-0.000555567
0.000147022
-5.24898e-07
9.52589e-06
-2.18616e-06
2.03332e-05
1.72588e-05
-1.67388e-05
5.83158e-05
-0.000150905
8.48459e-05
-0.000261489
0.000100423
-0.000334171
0.000109209
-0.000378206
0.000114326
-0.000406596
0.000117993
-0.000428322
0.000121342
-0.00044807
0.000124836
-0.000467797
0.000128361
-0.000488882
0.000132035
-0.000510339
0.000135825
-0.000534727
-0.000558987
0.000139244
-8.37096e-07
1.0363e-05
-7.6097e-07
2.02571e-05
2.58101e-05
-4.33098e-05
6.11547e-05
-0.00018625
8.49887e-05
-0.000285323
9.80724e-05
-0.000347255
0.000105088
-0.000385222
0.000109296
-0.000410805
0.000112508
-0.000431534
0.000115529
-0.000451091
0.000118659
-0.000470927
0.000121858
-0.00049208
0.00012516
-0.000513642
0.000128401
-0.000537968
-0.000562067
0.000131481
-1.06094e-06
1.14239e-05
2.7732e-06
1.64229e-05
3.46481e-05
-7.51847e-05
6.38691e-05
-0.000215471
8.37539e-05
-0.000305208
9.47977e-05
-0.000358298
0.000100612
-0.000391037
0.000104188
-0.00041438
0.000107031
-0.000434377
0.000109742
-0.000453802
0.000112545
-0.000473729
0.000115334
-0.00049487
0.000118225
-0.000516533
0.000121115
-0.000540857
-0.000564746
0.000123794
-1.17788e-06
1.26018e-05
6.6031e-06
8.64196e-06
4.12401e-05
-0.000109822
6.57803e-05
-0.000240011
8.18597e-05
-0.000321287
9.09518e-05
-0.00036739
9.58493e-05
-0.000395934
9.89199e-05
-0.000417451
0.000101433
-0.000436891
0.000103857
-0.000456225
0.000106326
-0.000476199
0.000108796
-0.00049734
0.000111335
-0.000519072
0.000113748
-0.00054327
-0.000567048
0.00011605
-1.12398e-06
1.37258e-05
1.06745e-05
-3.1565e-06
4.48071e-05
-0.000143954
6.6727e-05
-0.000261931
7.956e-05
-0.00033412
8.67976e-05
-0.000374628
9.08989e-05
-0.000400036
9.36163e-05
-0.000420168
9.5869e-05
-0.000439143
9.8015e-05
-0.000458371
0.000100176
-0.000478359
0.000102279
-0.000499444
0.000104419
-0.000521211
0.000106465
-0.000545316
-0.000568997
0.000108414
-1.26068e-06
1.49865e-05
1.5779e-05
-2.01961e-05
4.5934e-05
-0.000174109
6.61205e-05
-0.000282118
7.68688e-05
-0.000344869
8.25528e-05
-0.000380312
8.59083e-05
-0.000403391
8.82679e-05
-0.000422528
9.0259e-05
-0.000441135
9.21332e-05
-0.000460246
9.39719e-05
-0.000480198
9.5752e-05
-0.000501224
9.75407e-05
-0.000523
9.91576e-05
-0.000546933
-0.000570569
0.000100729
-1.40546e-06
1.63919e-05
2.0572e-05
-4.21736e-05
4.69505e-05
-0.000200488
6.43725e-05
-0.00029954
7.3594e-05
-0.00035409
7.82031e-05
-0.000384921
8.09245e-05
-0.000406113
8.29484e-05
-0.000424551
8.46878e-05
-0.000442874
8.62935e-05
-0.000461851
8.78312e-05
-0.000481736
8.92665e-05
-0.00050266
9.06718e-05
-0.000524405
9.19241e-05
-0.000548186
-0.000571791
9.31461e-05
-6.1588e-07
1.70078e-05
2.46181e-05
-6.74076e-05
4.74275e-05
-0.000223297
6.21367e-05
-0.000314249
6.98943e-05
-0.000361848
7.37468e-05
-0.000388773
7.59937e-05
-0.00040836
7.76788e-05
-0.000426237
7.91353e-05
-0.00044433
8.04571e-05
-0.000463173
8.16764e-05
-0.000482955
8.27849e-05
-0.000503768
8.38399e-05
-0.00052546
8.47043e-05
-0.00054905
-0.000572641
8.55545e-05
6.08441e-07
1.63994e-05
2.76088e-05
-9.4408e-05
4.73811e-05
-0.000243069
5.95858e-05
-0.000326454
6.59627e-05
-0.000368225
6.91901e-05
-0.000392001
7.10742e-05
-0.000410244
7.24621e-05
-0.000427625
7.36355e-05
-0.000445504
7.4667e-05
-0.000464205
7.55791e-05
-0.000483867
7.6351e-05
-0.00050454
7.70381e-05
-0.000526147
7.75496e-05
-0.000549562
-0.000573151
7.8059e-05
2.22312e-06
1.41762e-05
2.94489e-05
-0.000121634
4.69606e-05
-0.000260581
5.69121e-05
-0.000336405
6.19957e-05
-0.000373308
6.46226e-05
-0.000394628
6.61889e-05
-0.00041181
6.73021e-05
-0.000428738
6.81868e-05
-0.000446388
6.89136e-05
-0.000464931
6.94993e-05
-0.000484453
6.99389e-05
-0.00050498
7.02742e-05
-0.000526483
7.04215e-05
-0.000549709
-0.000573337
7.0608e-05
4.53291e-06
9.64333e-06
3.01554e-05
-0.000147256
4.61223e-05
-0.000276548
5.4152e-05
-0.000344435
5.80533e-05
-0.00037721
6.00901e-05
-0.000396665
6.13318e-05
-0.000413052
6.21776e-05
-0.000429584
6.27823e-05
-0.000446993
6.32084e-05
-0.000465358
6.3477e-05
-0.000484721
6.35783e-05
-0.000505081
6.35539e-05
-0.000526458
6.33573e-05
-0.000549512
-0.000573204
6.32242e-05
7.38274e-06
2.26059e-06
2.9968e-05
-0.000169841
4.45882e-05
-0.000291168
5.12936e-05
-0.00035114
5.41801e-05
-0.000380096
5.56439e-05
-0.000398128
5.65441e-05
-0.000413952
5.71137e-05
-0.000430153
5.74361e-05
-0.000447316
5.75556e-05
-0.000465477
5.74938e-05
-0.00048466
5.72579e-05
-0.000504845
5.68802e-05
-0.000526081
5.63168e-05
-0.000548949
-0.000572663
5.57764e-05
1.03467e-05
-8.08613e-06
3.01389e-05
-0.000189634
4.26211e-05
-0.00030365
4.82036e-05
-0.000356723
5.03306e-05
-0.000382223
5.12825e-05
-0.00039908
5.18234e-05
-0.000414493
5.20985e-05
-0.000430428
5.21336e-05
-0.000447351
5.19516e-05
-0.000465295
5.15697e-05
-0.000484278
5.09924e-05
-0.000504268
5.02567e-05
-0.000525345
4.93306e-05
-0.000548023
-0.000571684
4.83517e-05
1.26498e-05
-2.07359e-05
3.00453e-05
-0.000207029
4.04318e-05
-0.000314037
4.48966e-05
-0.000361188
4.6445e-05
-0.000383771
4.69889e-05
-0.000399624
4.71906e-05
-0.000414694
4.71626e-05
-0.0004304
4.69032e-05
-0.000447091
4.64124e-05
-0.000464804
4.56996e-05
-0.000483565
4.47797e-05
-0.000503348
4.3683e-05
-0.000524248
4.23788e-05
-0.000546719
-0.000570274
4.09678e-05
1.41369e-05
-3.48728e-05
2.94849e-05
-0.000222377
3.80386e-05
-0.000322591
4.14715e-05
-0.00036462
4.25314e-05
-0.000384831
4.27428e-05
-0.000399835
4.26292e-05
-0.000414581
4.2292e-05
-0.000430063
4.17287e-05
-0.000446528
4.09304e-05
-0.000464006
3.98961e-05
-0.000482531
3.86282e-05
-0.00050208
3.71615e-05
-0.000522782
3.54901e-05
-0.000545047
-0.000568431
3.36472e-05
1.4784e-05
-4.96568e-05
2.84919e-05
-0.000236085
3.54937e-05
-0.000329593
3.80167e-05
-0.000367143
3.86333e-05
-0.000385448
3.85471e-05
-0.000399749
3.81448e-05
-0.000414179
3.75076e-05
-0.000429426
3.66392e-05
-0.00044566
3.55263e-05
-0.000462893
3.41622e-05
-0.000481167
3.25509e-05
-0.000500469
3.07084e-05
-0.000520939
2.86369e-05
-0.000542976
-0.00056618
2.63866e-05
1.47866e-05
-6.44434e-05
2.71041e-05
-0.000248402
3.28186e-05
-0.000335307
3.45728e-05
-0.000368898
3.47807e-05
-0.000385656
3.44103e-05
-0.000399379
3.37276e-05
-0.000413496
3.27927e-05
-0.000428491
3.16156e-05
-0.000444482
3.01891e-05
-0.000461466
2.85044e-05
-0.000479482
2.65547e-05
-0.000498519
2.43434e-05
-0.000518728
2.18444e-05
-0.000540477
-0.000563527
1.91908e-05
1.43836e-05
-7.8827e-05
2.54323e-05
-0.000259451
3.00613e-05
-0.000339936
3.11656e-05
-0.000370002
3.09966e-05
-0.000385487
3.03447e-05
-0.000398727
2.93883e-05
-0.00041254
2.8164e-05
-0.000427267
2.66825e-05
-0.000443001
2.4938e-05
-0.000459722
2.29243e-05
-0.000477468
2.06461e-05
-0.000496241
1.8094e-05
-0.000516176
1.51335e-05
-0.000537516
-0.000560432
1.20383e-05
1.37189e-05
-9.25458e-05
2.35573e-05
-0.00026929
2.72523e-05
-0.000343631
2.78076e-05
-0.000370557
2.72944e-05
-0.000384974
2.63613e-05
-0.000397794
2.51263e-05
-0.000411305
2.36102e-05
-0.00042575
2.18227e-05
-0.000441213
1.97622e-05
-0.000457661
1.74239e-05
-0.00047513
1.48112e-05
-0.000493628
1.1938e-05
-0.000513302
8.60582e-06
-0.000534184
-0.000556715
4.88935e-06
1.2885e-05
-0.000105431
2.15611e-05
-0.000277966
2.44364e-05
-0.000346506
2.45174e-05
-0.000370638
2.36839e-05
-0.00038414
2.24677e-05
-0.000396578
2.09522e-05
-0.000409789
1.91464e-05
-0.000423945
1.70566e-05
-0.000439124
1.46782e-05
-0.000455283
1.20091e-05
-0.000472461
9.05696e-06
-0.000490676
5.83037e-06
-0.000510076
2.37287e-06
-0.000530727
-0.00055222
-2.12229e-06
1.19254e-05
-0.000117356
1.94956e-05
-0.000285536
2.16481e-05
-0.000348659
2.131e-05
-0.0003703
2.01726e-05
-0.000383003
1.86704e-05
-0.000395076
1.68667e-05
-0.000407985
1.4765e-05
-0.000421843
1.23688e-05
-0.000436728
9.67582e-06
-0.00045259
6.68202e-06
-0.000469467
3.3738e-06
-0.000487368
-3.35935e-07
-0.000506366
-4.00548e-06
-0.000527057
-0.000547648
-8.57705e-06
1.07879e-05
-0.000128144
1.74128e-05
-0.000292161
1.89251e-05
-0.000350171
1.82021e-05
-0.000369577
1.6764e-05
-0.000381564
1.49713e-05
-0.000393283
1.28759e-05
-0.00040589
1.04761e-05
-0.000419443
7.7716e-06
-0.000434023
4.76391e-06
-0.000449582
1.43526e-06
-0.000466138
-2.18849e-06
-0.000483744
-5.98991e-06
-0.000502565
-1.03795e-05
-0.000522667
-0.000542982
-1.50461e-05
9.74072e-06
-0.000137885
1.53658e-05
-0.000297786
1.62817e-05
-0.000351087
1.51982e-05
-0.000368494
1.34594e-05
-0.000379826
1.13726e-05
-0.000391196
8.97791e-06
-0.000403495
6.27018e-06
-0.000416735
3.2457e-06
-0.000430999
-9.5247e-08
-0.000446241
-3.68423e-06
-0.000462549
-7.57015e-06
-0.000479858
-1.17265e-05
-0.000498408
-1.65261e-05
-0.000517868
-0.000538048
-2.14598e-05
8.75862e-06
-0.000146644
1.3392e-05
-0.000302419
1.37287e-05
-0.000351424
1.22907e-05
-0.000367056
1.02555e-05
-0.00037779
7.8717e-06
-0.000388812
5.1704e-06
-0.000400794
2.14075e-06
-0.000413706
-1.17888e-06
-0.000427679
-4.76677e-06
-0.000442653
-8.68912e-06
-0.000458627
-1.28851e-05
-0.000475662
-1.74261e-05
-0.000493867
-2.25258e-05
-0.000512768
-0.000532798
-2.77763e-05
7.80711e-06
-0.000154451
1.15022e-05
-0.000306114
1.12767e-05
-0.000351199
9.48564e-06
-0.000365265
7.1525e-06
-0.000375457
4.46359e-06
-0.000386123
1.43327e-06
-0.000397764
-1.86679e-06
-0.000410406
-5.45471e-06
-0.000424091
-9.37477e-06
-0.000438733
-1.36014e-05
-0.0004544
-1.81294e-05
-0.000471134
-2.30592e-05
-0.000488937
-2.84033e-05
-0.000507424
-0.000527214
-3.39866e-05
6.88996e-06
-0.000161341
9.70301e-06
-0.000308927
8.92735e-06
-0.000350423
6.78654e-06
-0.000363124
4.14523e-06
-0.000372816
1.12299e-06
-0.000383101
-2.15786e-06
-0.000394483
-5.74073e-06
-0.000406823
-9.65141e-06
-0.00042018
-1.3883e-05
-0.000434502
-1.84199e-05
-0.000449864
-2.32828e-05
-0.000466271
-2.85643e-05
-0.000483656
-3.41762e-05
-0.000501812
-0.000521305
-4.00851e-05
6.0107e-06
-0.000167351
7.9945e-06
-0.000310911
6.68892e-06
-0.000349117
4.19526e-06
-0.00036063
1.21491e-06
-0.000369836
-2.0583e-06
-0.000379828
-5.63342e-06
-0.000390908
-9.53526e-06
-0.000402921
-1.3758e-05
-0.000415958
-1.8296e-05
-0.000429964
-2.31455e-05
-0.000445014
-2.83369e-05
-0.00046108
-3.3923e-05
-0.00047807
-3.98414e-05
-0.000495894
-0.000515057
-4.60901e-05
5.17492e-06
-0.000172526
6.37534e-06
-0.000312111
4.56461e-06
-0.000347307
1.70022e-06
-0.000357766
-1.56582e-06
-0.00036657
-5.12746e-06
-0.000376266
-9.02223e-06
-0.000387013
-1.32358e-05
-0.000398707
-1.77664e-05
-0.000411427
-2.26113e-05
-0.000425119
-2.77726e-05
-0.000439853
-3.32813e-05
-0.000455571
-3.91742e-05
-0.000472177
-4.54139e-05
-0.000489654
-0.000508485
-5.19853e-05
4.38632e-06
-0.000176913
4.84321e-06
-0.000312568
2.55162e-06
-0.000345015
-6.90751e-07
-0.000354524
-4.21996e-06
-0.00036304
-8.10839e-06
-0.000372378
-1.23179e-05
-0.000382803
-1.68427e-05
-0.000394183
-2.16808e-05
-0.000406589
-2.68313e-05
-0.000419968
-3.23009e-05
-0.000434383
-3.81184e-05