/*--------------------------------*- C++ -*----------------------------------*\
  =========                 |
  \\      /  F ield         | OpenFOAM: The Open Source CFD Toolbox
   \\    /   O peration     | Website:  https://openfoam.org
    \\  /    A nd           | Version:  7
     \\/     M anipulation  |
\*---------------------------------------------------------------------------*/
FoamFile
{
    version     2.0;
    format      ascii;
    class       surfaceScalarField;
    location    "3.9996";
    object      phi;
}
// * * * * * * * * * * * * * * * * * * * * * * * * * * * * * * * * * * * * * //

dimensions      [0 3 -1 0 0 0 0];

internalField   nonuniform List<scalar> 
37105
(
-1.71179e-05
1.71177e-05
2.13312e-10
-3.86861e-05
2.1568e-05
2.62632e-10
-6.10996e-05
2.24132e-05
2.66162e-10
-8.48572e-05
2.37574e-05
2.71387e-10
-0.000110046
2.51885e-05
2.71912e-10
-0.000136721
2.66748e-05
2.67123e-10
-0.000164806
2.80842e-05
2.55782e-10
-0.000194108
2.93025e-05
2.36937e-10
-0.000224332
3.02236e-05
2.09596e-10
-0.000255093
3.07605e-05
1.733e-10
-0.000285866
3.07734e-05
1.27522e-10
-0.000315705
2.98383e-05
7.09346e-11
-0.00034287
2.71655e-05
8.47874e-13
-0.000365102
2.22319e-05
-7.7077e-11
1.55192e-05
-1.58083e-10
-0.000380621
-1.68133e-05
3.39309e-05
-3.80941e-05
4.28488e-05
-6.0227e-05
4.45462e-05
-8.36914e-05
4.72218e-05
-0.000108575
5.00717e-05
-0.000134926
5.30264e-05
-0.000162666
5.5824e-05
-0.000191595
5.82319e-05
-0.000221397
6.00254e-05
-0.000251648
6.1011e-05
-0.000281781
6.09069e-05
-0.000310883
5.89401e-05
-0.000337364
5.3646e-05
-0.000358968
4.38361e-05
3.02897e-05
-0.000373738
-1.62054e-05
5.01363e-05
-3.6907e-05
6.35503e-05
-5.84641e-05
6.61033e-05
-8.13178e-05
7.00755e-05
-0.000105556
7.431e-05
-0.000131215
7.86851e-05
-0.0001582
8.28091e-05
-0.000186289
8.63214e-05
-0.000215126
8.88617e-05
-0.000244222
9.01074e-05
-0.000272956
8.96412e-05
-0.000300479
8.64624e-05
-0.00032548
7.86476e-05
-0.000345823
6.41787e-05
4.36474e-05
-0.000359181
-1.53076e-05
6.54439e-05
-3.51445e-05
8.33872e-05
-5.58364e-05
8.67952e-05
-7.7771e-05
9.201e-05
-0.000101029
9.75682e-05
-0.000125615
0.000103271
-0.000151402
0.000108595
-0.000178125
0.000113044
-0.000205375
0.000116112
-0.000232606
0.000117338
-0.000259162
0.000116197
-0.000284289
0.00011159
-0.000307034
0.000101392
-0.000325507
8.26524e-05
5.49864e-05
-0.000336846
-1.41656e-05
7.96095e-05
-3.2846e-05
0.000102068
-5.24078e-05
0.000106357
-7.31557e-05
0.000112758
-9.51507e-05
0.000119563
-0.000118351
0.000126472
-0.000142579
0.000132823
-0.000167512
0.000137977
-0.000192691
0.000141292
-0.000217557
0.000142204
-0.00024152
0.00014016
-0.000264021
0.00013409
-0.000284489
0.000121861
-0.000301457
9.96196e-05
6.48557e-05
-0.000311326
-1.27866e-05
9.23961e-05
-3.00435e-05
0.000119325
-4.82516e-05
0.000124565
-6.75898e-05
0.000132096
-8.80827e-05
0.000140056
-0.000109623
0.000148012
-0.000131956
0.000155156
-0.000154689
0.00016071
-0.000177358
0.000163961
-0.000199516
0.000164362
-0.000220841
0.000161485
-0.000241098
0.000154347
-0.000259983
0.000140747
-0.00027642
0.000116056
7.46e-05
-0.000286164
-1.1122e-05
0.000103518
-2.67519e-05
0.000134954
-4.34284e-05
0.000141242
-6.11595e-05
0.000149827
-7.9918e-05
0.000158814
-9.95154e-05
0.00016761
-0.000119616
0.000175257
-0.000139792
0.000180886
-0.000159679
0.000183847
-0.000179118
0.000183801
-0.000198193
0.000180561
-0.000216967
0.000173121
-0.000234978
0.000158757
-0.000250685
0.000131763
8.44266e-05
-0.000260511
-9.20655e-06
0.000112725
-2.29994e-05
0.000148747
-3.79945e-05
0.000156237
-5.39416e-05
0.000165774
-7.07518e-05
0.000175625
-8.81666e-05
0.000185025
-0.000105805
0.000192895
-0.000123276
0.000198358
-0.000140419
0.000200991
-0.000157431
0.000200812
-0.000174714
0.000197844
-0.000192289
0.000190695
-0.000209026
0.000175494
-0.000222585
0.000145322
9.20877e-05
-0.000230246
-7.05915e-06
0.000119784
-1.88263e-05
0.000160514
-3.20185e-05
0.000169429
-4.60289e-05
0.000179785
-6.07206e-05
0.000190316
-7.57975e-05
0.000200101
-9.08756e-05
0.000207973
-0.000105653
0.000213135
-0.000120167
0.000215504
-0.00013484
0.000215485
-0.00015008
0.000213085
-0.000165455
0.00020607
-0.000179044
0.000189083
-0.00018804
0.000154318
9.50176e-05
-0.00019097
-4.6814e-06
0.000124465
-1.429e-05
0.000170123
-2.55812e-05
0.00018072
-3.75298e-05
0.000191733
-4.99883e-05
0.000202775
-6.26443e-05
0.000212757
-7.51334e-05
0.000220462
-8.72352e-05
0.000225237
-9.90805e-05
0.00022735
-0.000111108
0.000227512
-0.000123491
0.000225469
-0.000135238
0.000217817
-0.000144058
0.000197902
-0.000147618
0.000157878
9.2939e-05
-0.000145539
-2.04609e-06
0.000126511
-9.47966e-06
0.000177557
-1.87688e-05
0.000190009
-2.85589e-05
0.000201524
-3.87245e-05
0.00021294
-4.89305e-05
0.000222963
-5.8833e-05
0.000230365
-6.82665e-05
0.00023467
-7.73414e-05
0.000236425
-8.63181e-05
0.000236489
-9.50434e-05
0.000234194
-0.000102172
0.000224945
-0.000105658
0.000201388
-0.000104842
0.000157062
8.77167e-05
-9.96193e-05
7.44799e-07
0.000125766
-4.50349e-06
0.000182805
-1.1651e-05
0.000197157
-1.92339e-05
0.000209106
-2.71038e-05
0.00022081
-3.48653e-05
0.000230725
-4.22006e-05
0.0002377
-4.89534e-05
0.000241423
-5.51025e-05
0.000242574
-6.05523e-05
0.000241938
-6.49048e-05
0.000238547
-6.70108e-05
0.000227051
-6.53621e-05
0.00019974
-6.20179e-05
0.000153717
8.09936e-05
-5.52948e-05
3.28621e-06
0.00012248
5.19976e-07
0.000185571
-4.2891e-06
0.000201966
-9.69283e-06
0.00021451
-1.52963e-05
0.000226414
-2.06449e-05
0.000236074
-2.54471e-05
0.000242502
-2.94961e-05
0.000245472
-3.26244e-05
0.000245702
-3.43963e-05
0.00024371
-3.42479e-05
0.000238398
-3.18479e-05
0.000224651
-2.57513e-05
0.000193643
-1.95996e-05
0.000147566
7.29881e-05
-1.15942e-05
6.06459e-06
0.000116416
6.13176e-06
0.000185504
3.2795e-06
0.000204818
-1.80548e-07
0.00021797
-3.49825e-06
0.000229731
-6.48101e-06
0.000239056
-8.81238e-06
0.000244834
-1.01816e-05
0.000246841
-1.02947e-05
0.000245815
-8.45755e-06
0.000241873
-4.18479e-06
0.000234125
3.48025e-06
0.000216986
1.58954e-05
0.000181228
3.01334e-05
0.000133328
6.39123e-05
3.92092e-05
8.91673e-06
0.000107499
1.16395e-05
0.000182781
1.09497e-05
0.000205508
9.64886e-06
0.000219271
8.41107e-06
0.000230969
7.64305e-06
0.000239824
7.66397e-06
0.000244813
8.86701e-06
0.000245638
1.16426e-05
0.00024304
1.69074e-05
0.000236608
2.57149e-05
0.000225318
3.69328e-05
0.000205768
5.50734e-05
0.000163087
7.92834e-05
0.000109118
4.59249e-05
9.72708e-05
1.17078e-05
9.57911e-05
1.70944e-05
0.000177395
1.85227e-05
0.00020408
1.91918e-05
0.000218602
2.00721e-05
0.000230089
2.15038e-05
0.000238393
2.37967e-05
0.00024252
2.74365e-05
0.000241999
3.2856e-05
0.00023762
4.08352e-05
0.000228629
5.3773e-05
0.00021238
6.81176e-05
0.000191424
8.56886e-05
0.000145516
0.000111575
8.32315e-05
1.65361e-05
0.000140964
1.42891e-05
8.15019e-05
2.23426e-05
0.000169341
2.58863e-05
0.000200536
2.84625e-05
0.000216026
3.13091e-05
0.000227242
3.47968e-05
0.000234905
3.92066e-05
0.00023811
4.51333e-05
0.000236072
5.31563e-05
0.000229597
6.30967e-05
0.000218689
7.92717e-05
0.000196205
9.83372e-05
0.000172358
0.000116758
0.000127095
0.000138798
6.1192e-05
-1.67852e-05
0.000172119
1.64364e-05
6.50655e-05
2.71426e-05
0.000158635
3.28985e-05
0.00019478
3.73406e-05
0.000211584
4.20142e-05
0.000222569
4.74286e-05
0.000229491
5.37831e-05
0.000231756
6.16573e-05
0.000228198
7.21772e-05
0.000219077
8.38043e-05
0.000207062
0.000100753
0.000179257
0.000123713
0.000149398
0.000148611
0.000102198
0.000169592
4.02106e-05
-4.61227e-05
0.00019893
1.77523e-05
4.73132e-05
3.11746e-05
0.000145213
3.93732e-05
0.000186581
4.56872e-05
0.00020527
5.20313e-05
0.000216225
5.9216e-05
0.000222306
6.74515e-05
0.00022352
7.6815e-05
0.000218834
8.97178e-05
0.000206175
0.000103557
0.000193222
0.000119834
0.00016298
0.000141792
0.00012744
0.000170337
7.36531e-05
0.000193904
1.66438e-05
-7.21031e-05
0.000219884
1.754e-05
2.97733e-05
3.40637e-05
0.000128689
4.50412e-05
0.000175604
5.32893e-05
0.000197022
6.12279e-05
0.000208286
6.99857e-05
0.000213548
8.00219e-05
0.000213484
9.05644e-05
0.000208292
0.000105117
0.000191622
0.000122275
0.000176064
0.000140208
0.000145047
0.000159781
0.000107867
0.000186157
4.72779e-05
0.000211971
-9.17013e-06
-9.74279e-05
0.000237295
1.52974e-05
1.44759e-05
3.54776e-05
0.000108509
4.95387e-05
0.000161543
5.98873e-05
0.000186673
6.9415e-05
0.000198758
7.95135e-05
0.00020345
9.14005e-05
0.000201597
0.000103266
0.000196426
0.000117788
0.0001771
0.000136773
0.000157078
0.000159036
0.000122784
0.000179889
8.7014e-05
0.000203004
2.41621e-05
0.000229689
-3.58551e-05
-0.000121863
0.000254124
1.167e-05
2.8059e-06
3.52333e-05
8.49454e-05
5.23762e-05
0.0001444
6.51397e-05
0.000173909
7.64894e-05
0.000187409
8.75537e-05
0.000192385
0.000100905
0.000188246
0.000114902
0.000182428
0.000130155
0.000161848
0.000147132
0.000140101
0.000171703
9.82135e-05
0.000194889
6.38279e-05
0.000217871
1.17982e-06
0.00024451
-6.24933e-05
-0.000144763
0.00026741
7.78427e-06
-4.97838e-06
3.27992e-05
5.99305e-05
5.31416e-05
0.000124058
6.86536e-05
0.000158397
8.21361e-05
0.000173926
9.43344e-05
0.000180187
0.000108372
0.000174209
0.000123329
0.000167471
0.000142429
0.000142748
0.000156982
0.000125548
0.000181806
7.33895e-05
0.000203746
4.18878e-05
0.0002293
-2.43749e-05
0.000255123
-8.83154e-05
-0.000165729
0.000276088
4.03073e-06
-9.0091e-06
2.74796e-05
3.64816e-05
5.14277e-05
0.000100109
7.00239e-05
0.000139801
8.58503e-05
0.0001581
9.92499e-05
0.000166787
0.000114702
0.000158757
0.000128379
0.000153794
0.000150783
0.000120344
0.00016564
0.000110691
0.00019194
4.70892e-05
0.000210233
2.35949e-05
0.000239584
-5.37261e-05
0.000261042
-0.000109773
-0.000183071
0.000278384
7.9623e-07
-9.80533e-06
1.99655e-05
1.73123e-05
4.70433e-05
7.30317e-05
6.8554e-05
0.000118291
8.72834e-05
0.00013937
0.000101668
0.000152403
0.000118806
0.000141618
0.000132291
0.000140309
0.000154444
9.81916e-05
0.000171099
9.40347e-05
0.000198403
1.97851e-05
0.000213823
8.17552e-06
0.000246356
-8.62592e-05
0.000258182
-0.000121599
-0.000197466
0.000272577
-1.28906e-06
-8.51627e-06
1.22652e-05
3.75806e-06
3.96365e-05
4.56604e-05
6.36927e-05
9.42343e-05
8.54608e-05
0.000117602
0.000101738
0.000136125
0.000119391
0.000123966
0.000134421
0.000125279
0.000153795
7.8817e-05
0.000173277
7.45533e-05
0.000195674
-2.61217e-06
0.000213038
-9.1885e-06
0.000243857
-0.000117078
0.000245272
-0.000123013
-0.000215909
0.000263715
-1.6818e-06
-6.83447e-06
6.502e-06
-4.42575e-06
2.94224e-05
2.274e-05
5.53237e-05
6.83329e-05
7.93601e-05
9.3566e-05
9.80125e-05
0.000117473
0.000116283
0.000105695
0.000132943
0.000108619
0.000149057
6.27036e-05
0.000171073
5.25368e-05
0.000185294
-1.68332e-05
0.000210269
-3.41634e-05
0.000229321
-0.00013613
0.000228513
-0.000122205
-0.000246158
0.000258761
-1.10869e-06
-5.72578e-06
3.50061e-06
-9.03505e-06
1.93126e-05
6.92802e-06
4.38276e-05
4.38179e-05
6.88296e-05
6.8564e-05
8.86174e-05
9.76849e-05
0.000108423
8.58892e-05
0.000125806
9.12368e-05
0.000141619
4.68904e-05
0.000162909
3.1247e-05
0.000175443
-2.93674e-05
0.000202633
-6.13537e-05
0.000202956
-0.000136453
0.000217915
-0.000137164
-0.000290847
0.000262604
1.3716e-08
-5.73949e-06
3.20066e-06
-1.2222e-05
1.25045e-05
-2.37584e-06
3.17899e-05
2.45326e-05
5.4322e-05
4.60319e-05
7.42118e-05
7.77952e-05
9.39219e-05
6.61791e-05
0.000112225
7.29336e-05
0.000128464
3.06515e-05
0.000146265
1.34464e-05
0.000162638
-4.57409e-05
0.000178746
-7.74612e-05
0.00017632
-0.000134027
0.000223667
-0.000184511
-0.000341674
0.000274494
1.08582e-06
-6.82532e-06
4.22238e-06
-1.53586e-05
9.65136e-06
-7.80482e-06
2.20338e-05
1.21501e-05
3.84942e-05
2.95715e-05
5.70522e-05
5.92372e-05
7.33346e-05
4.98966e-05
9.18083e-05
5.446e-05
0.000106039
1.64208e-05
0.000122983
-3.49771e-06
0.000136917
-5.96753e-05
0.000145106
-8.56495e-05
0.000171929
-0.000160851
0.000240549
-0.000253131
-0.000386633
0.000285509
1.916e-06
-8.74131e-06
4.90959e-06
-1.83521e-05
8.45343e-06
-1.13487e-05
1.50543e-05
5.54926e-06
2.45635e-05
2.00623e-05
3.87757e-05
4.5025e-05
5.03849e-05
3.82874e-05
6.56234e-05
3.92215e-05
7.79689e-05
4.07522e-06
9.33273e-05
-1.88561e-05
0.000103178
-6.9526e-05
0.000134369
-0.00011684
0.000195578
-0.00022206
0.000257885
-0.000315438
-0.00041409
0.000285342
2.16915e-06
-1.09105e-05
4.39557e-06
-2.05786e-05
6.28014e-06
-1.32332e-05
8.79473e-06
3.03467e-06
1.23325e-05
1.65246e-05
2.06167e-05
3.67408e-05
2.6908e-05
3.1996e-05
3.73829e-05
2.87466e-05
4.79055e-05
-6.44737e-06
6.26414e-05
-3.35919e-05
9.44115e-05
-0.000101296
0.000158695
-0.000181124
0.000220201
-0.000283565
0.000267098
-0.000362335
-0.000433846
0.000286854
1.69932e-06
-1.26098e-05
2.39888e-06
-2.12781e-05
2.22216e-06
-1.30565e-05
1.20024e-06
4.05658e-06
7.46703e-07
1.69781e-05
2.38295e-06
3.51045e-05
3.99942e-06
3.03796e-05
9.59259e-06
2.31534e-05
2.10898e-05
-1.79446e-05
5.83185e-05
-7.08207e-05
0.000121479
-0.000164456
0.000187241
-0.000246886
0.000233648
-0.000329972
0.000263224
-0.000391911
-0.000445424
0.000274802
5.59077e-07
-1.31689e-05
-8.32047e-07
-1.9887e-05
-3.42677e-06
-1.04618e-05
-7.04384e-06
7.67365e-06
-1.23841e-05
2.23183e-05
-1.56278e-05
3.83483e-05
-1.85547e-05
3.33065e-05
-1.00484e-05
1.46471e-05
2.27814e-05
-5.07743e-05
8.7372e-05
-0.000135411
0.000150881
-0.000227965
0.000201184
-0.000297189
0.00023433
-0.000363119
0.000255204
-0.000412784
-0.00046322
0.000273
-1.02383e-06
-1.2145e-05
-4.54494e-06
-1.63659e-05
-9.73362e-06
-5.27311e-06
-1.61353e-05
1.40754e-05
-2.50711e-05
3.12541e-05
-3.22962e-05
4.55734e-05
-3.30985e-05
3.41088e-05
-4.23006e-06
-1.42214e-05
5.37048e-05
-0.000108709
0.000117744
-0.000199451
0.000166554
-0.000276775
0.000204516
-0.000335151
0.000231386
-0.000389989
0.000250751
-0.00043215
-0.00047458
0.000262111
-2.73856e-06
-9.40647e-06
-8.38579e-06
-1.07187e-05
-1.58296e-05
2.17068e-06
-2.45489e-05
2.27947e-05
-3.51895e-05
4.18947e-05
-4.15769e-05
5.19607e-05
-2.91096e-05
2.16415e-05
2.25553e-05
-6.58863e-05
8.39971e-05
-0.000170151
0.00013496
-0.000250414
0.000174275
-0.00031609
0.000205414
-0.00036629
0.000227484
-0.000412059
0.00024132
-0.000445986
-0.000486416
0.000253156
-4.21698e-06
-5.18949e-06
-1.15444e-05
-3.39125e-06
-2.02967e-05
1.0923e-05
-2.98071e-05
3.23051e-05
-3.86815e-05
5.07691e-05
-3.89587e-05
5.22379e-05
-5.23094e-06
-1.20862e-05
5.32736e-05
-0.000124391
0.000103264
-0.000220141
0.000146275
-0.000293424
0.000179288
-0.000349103
0.000203849
-0.000390851
0.000220623
-0.000428834
0.00023426
-0.000459623
-0.000496603
0.000244448
-5.10304e-06
-8.64537e-08
-1.32067e-05
4.71243e-06
-2.20255e-05
1.97418e-05
-3.01586e-05
4.04382e-05
-3.42416e-05
5.48521e-05
-2.30109e-05
4.10072e-05
2.26547e-05
-5.77519e-05
7.55053e-05
-0.000177241
0.000119373
-0.00026401
0.000154691
-0.000328742
0.00018068
-0.000375092
0.000200059
-0.00041023
0.000214742
-0.000443518
0.000225634
-0.000470515
-0.000504805
0.000233836
-5.21138e-06
5.12492e-06
-1.3088e-05
1.2589e-05
-2.06756e-05
2.73294e-05
-2.58278e-05
4.55903e-05
-2.57236e-05
5.47479e-05
4.23798e-07
1.48599e-05
5.01406e-05
-0.000107469
9.33215e-05
-0.000220422
0.000130722
-0.00030141
0.000159069
-0.000357089
0.000179911
-0.000395934
0.000195963
-0.000426282
0.000207445
-0.000455
0.000217429
-0.000480499
-0.000513694
0.000226318
-4.58684e-06
9.71177e-06
-1.13389e-05
1.93411e-05
-1.68355e-05
3.2826e-05
-1.80006e-05
4.67554e-05
-1.2868e-05
4.96154e-05
2.13787e-05
-1.93868e-05
6.94813e-05
-0.000155571
0.000108551
-0.000259492
0.000138827
-0.000331686
0.000161407
-0.000379669
0.000177899
-0.000412426
0.000190535
-0.000438918
0.000200783
-0.000465248
0.000209746
-0.000489462
-0.000520164
0.000216217
-3.41272e-06
1.31245e-05
-8.39591e-06
2.43243e-05
-1.12215e-05
3.56516e-05
-9.19474e-06
4.47286e-05
3.87478e-06
3.65458e-05
4.50608e-05
-6.05728e-05
8.5648e-05
-0.000196159
0.000119104
-0.000292948
0.000143747
-0.000356329
0.000161392
-0.000397314
0.000174381
-0.000425416
0.000185172
-0.000449708
0.000193704
-0.000473781
0.000201447
-0.000497205
-0.000527428
0.000208711
-1.98314e-06
1.51076e-05
-5.00577e-06
2.7347e-05
-5.09675e-06
3.57426e-05
-2.09381e-06
4.17257e-05
1.8268e-05
1.6184e-05
6.29741e-05
-0.000105279
9.90521e-05
-0.000232237
0.00012681
-0.000320706
0.000146267
-0.000375785
0.000159964
-0.000411011
0.000170442
-0.000435893
0.000179159
-0.000458426
0.000186768
-0.000481389
0.000194266
-0.000504703
-0.000533014
0.000199852
-5.61944e-07
1.56696e-05
-1.54306e-06
2.83281e-05
7.06283e-07
3.34933e-05
5.61433e-06
3.68176e-05
3.23747e-05
-1.05764e-05
7.56751e-05
-0.000148579
0.000108517
-0.000265078
0.000131107
-0.000343297
0.000146403
-0.000391081
0.000157163
-0.000421771
0.000165567
-0.000444297
0.000173211
-0.00046607
0.000179943
-0.000488121
0.000186307
-0.000511067
-0.000538949
0.000192243
6.01119e-07
1.50685e-05
1.48634e-06
2.74429e-05
5.00492e-06
2.99747e-05
1.25172e-05
2.93053e-05
4.71343e-05
-4.51934e-05
8.64484e-05
-0.000187893
0.000115111
-0.000293741
0.000133413
-0.000361599
0.000145213
-0.000402881
0.000153569
-0.000430128
0.000160593
-0.000451321
0.000167006
-0.000472483
0.000172951
-0.000494065
0.000179228
-0.000517344
-0.000544096
0.000184375
1.30069e-06
1.37678e-05
3.39038e-06
2.53532e-05
6.55842e-06
2.68066e-05
1.86039e-05
1.72598e-05
5.98061e-05
-8.63956e-05
9.4503e-05
-0.00022259
0.000118422
-0.00031766
0.000133097
-0.000376273
0.000142372
-0.000412156
0.000149151
-0.000436908
0.000155021
-0.00045719
0.000160755
-0.000478218
0.000166245
-0.000499555
0.00017162
-0.000522719
-0.000549015
0.000176539
1.46669e-06
1.23011e-05
4.05158e-06
2.27683e-05
5.80548e-06
2.50527e-05
2.48317e-05
-1.7664e-06
6.90432e-05
-0.000130607
0.000100243
-0.00025379
0.000119891
-0.000337308
0.000131604
-0.000387986
0.000138939
-0.00041949
0.000144406
-0.000442375
0.000149503
-0.000462287
0.000154481
-0.000483196
0.00015929
-0.000504364
0.000164489
-0.000527917
-0.000553556
0.00016903
1.28447e-06
1.10166e-05
3.78881e-06
2.02639e-05
5.1346e-06
2.3707e-05
3.34041e-05
-3.00359e-05
7.52325e-05
-0.000172436
0.000103316
-0.000281874
0.000119402
-0.000353394
0.00012858
-0.000397164
0.000134449
-0.00042536
0.000139126
-0.000447052
0.000143572
-0.000466733
0.000148059
-0.000487684
0.000152584
-0.000508889
0.000157104
-0.000532437
-0.000557599
0.000161147
9.32961e-07
1.00836e-05
2.02107e-06
1.91758e-05
7.5398e-06
1.81882e-05
4.4011e-05
-6.65071e-05
8.01399e-05
-0.000208564
0.000104153
-0.000305887
0.000117575
-0.000366816
0.00012501
-0.000404599
0.000129839
-0.000430188
0.000133795
-0.000451008
0.000137757
-0.000470696
0.000141741
-0.000491668
0.000145689
-0.000512836
0.000149909
-0.000536657
-0.00056144
0.00015375
2.88248e-07
9.7954e-06
-7.83828e-07
2.02479e-05
1.13286e-05
6.07582e-06
5.35886e-05
-0.000108767
8.39429e-05
-0.000238919
0.000103541
-0.000325485
0.000114536
-0.000377811
0.000120571
-0.000410634
0.00012459
-0.000434207
0.000128103
-0.000454521
0.000131644
-0.000474237
0.000135229
-0.000495252
0.000138935
-0.000516542
0.000142653
-0.000540375
-0.000564734
0.000145947
-5.27539e-07
1.03229e-05
-2.47452e-06
2.21949e-05
1.66299e-05
-1.30285e-05
5.91502e-05
-0.000151288
8.62041e-05
-0.000265973
0.000102006
-0.000341288
0.000110849
-0.000386654
0.000115886
-0.00041567
0.000119396
-0.000437717
0.00012249
-0.000457615
0.000125669
-0.000477416
0.000128874
-0.000498458
0.000132094
-0.000519762
0.000135436
-0.000543716
-0.000567859
0.00013856
-8.64449e-07
1.11874e-05
-1.51529e-06
2.28457e-05
2.53317e-05
-3.98755e-05
6.1924e-05
-0.00018788
8.64088e-05
-0.000290457
9.96836e-05
-0.000354562
0.000106701
-0.000393672
0.000110806
-0.000419775
0.000113824
-0.000440735
0.000116621
-0.000460412
0.000119476
-0.000480271
0.000122329
-0.000501311
0.000125303
-0.000522735
0.000128245
-0.000546659
-0.000570478
0.000130864
-1.08351e-06
1.22709e-05
2.24431e-06
1.95179e-05
3.45683e-05
-7.21996e-05
6.47168e-05
-0.000218028
8.51742e-05
-0.000310915
9.64141e-05
-0.000365802
0.000102211
-0.000399469
0.000105678
-0.000423241
0.000108374
-0.000443431
0.000110875
-0.000462913
0.000113421
-0.000482817
0.000115954
-0.000503845
0.000118504
-0.000525285
0.000121041
-0.000549196
-0.000572895
0.000123458
-1.20303e-06
1.34739e-05
6.13014e-06
1.21847e-05
4.15975e-05
-0.000107667
6.67373e-05
-0.000243168
8.32807e-05
-0.000327458
9.25501e-05
-0.000375072
9.74299e-05
-0.000404349
0.000100388
-0.000426199
0.00010273
-0.000445773
0.000104961
-0.000465145
0.000107213
-0.000485069
0.000109416
-0.000506047
0.000111695
-0.000527564
0.000113887
-0.000551388
-0.000574864
0.000115856
-1.14087e-06
1.46148e-05
1.02433e-05
8.00565e-07
4.54727e-05
-0.000142896
6.78602e-05
-0.000265556
8.09974e-05
-0.000340595
8.83726e-05
-0.000382447
9.24596e-05
-0.000408436
9.50775e-05
-0.000428817
9.72003e-05
-0.000447896
9.91774e-05
-0.000467122
0.000101136
-0.000487028
0.000103039
-0.00050795
0.00010493
-0.000529455
0.000106718
-0.000553176
-0.000576589
0.000108442
-1.29327e-06
1.59081e-05
1.53623e-05
-1.5855e-05
4.664e-05
-0.000174174
6.73809e-05
-0.000286297
7.83512e-05
-0.000351566
8.41152e-05
-0.000388211
8.74476e-05
-0.000411768
8.97177e-05
-0.000431087
9.1571e-05
-0.000449749
9.3291e-05
-0.000468842
9.49623e-05
-0.000488699
9.65426e-05
-0.000509531
9.81389e-05
-0.000531051
9.95986e-05
-0.000554636
-0.000577916
0.000100926
-1.63947e-06
1.75475e-05
2.03617e-05
-3.78562e-05
4.76907e-05
-0.000201503
6.56828e-05
-0.000304289
7.5115e-05
-0.000360998
7.9763e-05
-0.000392859
8.2451e-05
-0.000414456
8.43973e-05
-0.000433033
8.6038e-05
-0.00045139
8.75175e-05
-0.000470322
8.89055e-05
-0.000490087
9.01917e-05
-0.000510817
9.14197e-05
-0.000532279
9.2485e-05
-0.000555701
-0.000578966
9.3535e-05
-1.05908e-06
1.86066e-05
2.46223e-05
-6.35376e-05
4.82444e-05
-0.000225125
6.34628e-05
-0.000319507
7.1427e-05
-0.000368962
7.53083e-05
-0.00039674
7.75135e-05
-0.000416661
7.91275e-05
-0.000434647
8.04842e-05
-0.000452747
8.1694e-05
-0.000471531
8.27937e-05
-0.000491187
8.37626e-05
-0.000511786
8.46851e-05
-0.000533201
8.54373e-05
-0.000556453
-0.000579642
8.61128e-05
2.70542e-07
1.83361e-05
2.78309e-05
-9.10979e-05
4.82557e-05
-0.00024555
6.09137e-05
-0.000332165
6.74837e-05
-0.000375532
7.07442e-05
-0.000400001
7.25929e-05
-0.00041851
7.39202e-05
-0.000435974
7.50256e-05
-0.000453852
7.59731e-05
-0.000472479
7.67855e-05
-0.000491999
7.74594e-05
-0.00051246
7.80295e-05
-0.000533772
7.84103e-05
-0.000556834
-0.000580017
7.87849e-05
1.76342e-06
1.65727e-05
2.9876e-05
-0.000119211
4.79039e-05
-0.000263578
5.8241e-05
-0.000342502
6.35019e-05
-0.000380793
6.61671e-05
-0.000402666
6.77071e-05
-0.00042005
6.87709e-05
-0.000437038
6.959e-05
-0.000454671
7.02458e-05
-0.000473135
7.07587e-05
-0.000492512
7.11145e-05
-0.000512815
7.13735e-05
-0.000534031
7.14513e-05
-0.000556912
-0.000580048
7.14827e-05
4.04736e-06
1.25253e-05
3.07374e-05
-0.000145901
4.7166e-05
-0.000280006
5.54916e-05
-0.000350828
5.9543e-05
-0.000384844
6.16206e-05
-0.000404744
6.28497e-05
-0.000421279
6.36615e-05
-0.00043785
6.42288e-05
-0.000455238
6.46096e-05
-0.000473516
6.48254e-05
-0.000492728
6.48779e-05
-0.000512868
6.47919e-05
-0.000533945
6.45178e-05
-0.000556638
-0.000579818
6.42874e-05
6.91906e-06
5.60623e-06
3.05186e-05
-0.0001695
4.5721e-05
-0.000295209
5.2668e-05
-0.000357775
5.56651e-05
-0.000387841
5.71648e-05
-0.000406243
5.80625e-05
-0.000422177
5.86126e-05
-0.0004384
5.89039e-05
-0.00045553
5.89915e-05
-0.000473603
5.89012e-05
-0.000492638
5.86321e-05
-0.000512599
5.82296e-05
-0.000533542
5.76533e-05
-0.000556062
-0.000579269
5.71043e-05
1.00966e-05
-4.49032e-06
3.07344e-05
-0.000190138
4.37904e-05
-0.000308265
4.96146e-05
-0.000363599
5.18192e-05
-0.000390046
5.27966e-05
-0.000407221
5.33425e-05
-0.000422723
5.36129e-05
-0.000438671
5.36429e-05
-0.00045556
5.3453e-05
-0.000473413
5.30618e-05
-0.000492246
5.24818e-05
-0.000512019
5.1738e-05
-0.000532798
5.08081e-05
-0.000555132
-0.00057834
4.98794e-05
1.26328e-05
-1.71232e-05
3.07467e-05
-0.000208252
4.16341e-05
-0.000319152
4.63235e-05
-0.000368288
4.7939e-05
-0.000391662
4.85016e-05
-0.000407783
4.87131e-05
-0.000422934
4.86928e-05
-0.00043865
4.84363e-05
-0.000455303
4.79515e-05
-0.000472928
4.72526e-05
-0.000491548
4.63485e-05
-0.000511115
4.52806e-05
-0.00053173
4.40249e-05
-0.000553876
-0.00057699
4.26751e-05
1.43415e-05
-3.14646e-05
3.02836e-05
-0.000224194
3.92612e-05
-0.00032813
4.28943e-05
-0.000371921
4.40189e-05
-0.000392786
4.42516e-05
-0.000408016
4.41549e-05
-0.000422837
4.38373e-05
-0.000438333
4.32992e-05
-0.000454765
4.25283e-05
-0.000472158
4.15254e-05
-0.000490545
4.03027e-05
-0.000509892
3.88858e-05
-0.000530313
3.72703e-05
-0.000552261
-0.000575249
3.55289e-05
1.51527e-05
-4.66173e-05
2.93774e-05
-0.000238419
3.67331e-05
-0.000335486
3.94259e-05
-0.000374614
4.01078e-05
-0.000393468
4.00508e-05
-0.000407959
3.96746e-05
-0.000422461
3.90686e-05
-0.000437727
3.82332e-05
-0.00045393
3.71607e-05
-0.000471085
3.5849e-05
-0.000489233
3.43002e-05
-0.000508343
3.25423e-05
-0.000528555
3.05808e-05
-0.000550299
-0.000573106
2.84383e-05
1.52437e-05
-6.1861e-05
2.80428e-05
-0.000251218
3.40613e-05
-0.000341504
3.59622e-05
-0.000376515
3.62357e-05
-0.000393741
3.59043e-05
-0.000407628
3.52588e-05
-0.000421816
3.43668e-05
-0.000436835
3.32419e-05
-0.000452805
3.18747e-05
-0.000469718
3.02567e-05
-0.000487615
2.83903e-05
-0.000506477
2.62802e-05
-0.000526445
2.39216e-05
-0.000547941
-0.000570601
2.14167e-05
1.48863e-05
-7.67473e-05
2.64015e-05
-0.000262733
3.13005e-05
-0.000346403
3.25328e-05
-0.000377747
3.24301e-05
-0.000393639
3.18271e-05
-0.000407025
3.09199e-05
-0.000420909
2.97505e-05
-0.000435665
2.83292e-05
-0.000451383
2.66576e-05
-0.000468046
2.47306e-05
-0.000485688
2.25466e-05
-0.000504293
2.01113e-05
-0.00052401
1.73352e-05
-0.000545164
-0.000567716
1.44499e-05
1.42425e-05
-9.09898e-05
2.45329e-05
-0.000273023
2.84754e-05
-0.000350346
2.91482e-05
-0.00037842
2.87034e-05
-0.000393194
2.78289e-05
-0.00040615
2.66548e-05
-0.000419735
2.5205e-05
-0.000434215
2.3494e-05
-0.000449672
2.15238e-05
-0.000466076
1.92879e-05
-0.000483452
1.67907e-05
-0.000501796
1.40408e-05
-0.00052126
1.08586e-05
-0.000541982
-0.000564376
7.51867e-06
1.34169e-05
-0.000104407
2.25302e-05
-0.000282137
2.56361e-05
-0.000353452
2.58282e-05
-0.000378612
2.50673e-05
-0.000392433
2.39192e-05
-0.000405002
2.24761e-05
-0.000418292
2.07482e-05
-0.000432487
1.87427e-05
-0.000447667
1.64666e-05
-0.0004638
1.39187e-05
-0.000480904
1.11065e-05
-0.000498984
8.03068e-06
-0.000518184
4.62375e-06
-0.000538575
-0.000560106
3.54304e-07
1.24634e-05
-0.00011687
2.04467e-05
-0.00029012
2.28146e-05
-0.00035582
2.25864e-05
-0.000378384
2.15283e-05
-0.000391375
2.01038e-05
-0.000403578
1.83825e-05
-0.00041657
1.63695e-05
-0.000430475
1.40738e-05
-0.000445371
1.14926e-05
-0.000461219
8.62696e-06
-0.000478038
5.50358e-06
-0.00049586
2.00461e-06
-0.000514685
-1.42595e-06
-0.000535145
-0.000555634
-5.89843e-06
1.13397e-05
-0.00012821
1.83374e-05
-0.000297118
2.00531e-05
-0.000357535
1.94413e-05
-0.000377772
1.80915e-05
-0.000390025
1.63857e-05
-0.000401872
1.43823e-05
-0.000414567
1.20821e-05
-0.000428174
9.49088e-06
-0.00044278
6.59784e-06
-0.000458326
3.41057e-06
-0.000474851
-1.15815e-07
-0.000492334
-3.73533e-06
-0.000511066
-7.81826e-06
-0.000531062
-0.000551198
-1.22544e-05
1.0228e-05
-0.000138438
1.62517e-05
-0.000303141
1.73697e-05
-0.000358653
1.64017e-05
-0.000376804
1.47582e-05
-0.000388382
1.27664e-05
-0.00039988
1.04723e-05
-0.000412273
7.87577e-06
-0.000425578
4.98309e-06
-0.000439887
1.77508e-06
-0.000455118
-1.69703e-06
-0.000471379
-5.4081e-06
-0.000488623
-9.3808e-06
-0.000507093
-1.39314e-05
-0.000526511
-0.000546547
-1.85822e-05
9.21912e-06
-0.000147657
1.42357e-05
-0.000308158
1.4776e-05
-0.000359194
1.34591e-05
-0.000375487
1.15255e-05
-0.000386448
9.24441e-06
-0.000397599
6.65359e-06
-0.000409682
3.75469e-06
-0.000422679
5.20533e-07
-0.000436653
-2.92511e-06
-0.000451672
-6.6809e-06
-0.000467623
-1.06944e-05
-0.000484609
-1.50231e-05
-0.000502764
-1.98867e-05
-0.000521648
-0.000541582
-2.48518e-05
8.24764e-06
-0.000155904
1.23045e-05
-0.000312215
1.22823e-05
-0.000359171
1.06174e-05
-0.000373822
8.39324e-06
-0.000384224
5.81662e-06
-0.000395022
2.91339e-06
-0.000406779
-3.16226e-07
-0.000419449
-3.74737e-06
-0.000433222
-7.52259e-06
-0.000447897
-1.15813e-05
-0.000463565
-1.59151e-05
-0.000480275
-2.06163e-05
-0.000498063
-2.57336e-05
-0.00051653
-0.000536289
-3.10267e-05
7.31016e-06
-0.000163215
1.04653e-05
-0.00031537
9.89166e-06
-0.000358598
7.88164e-06
-0.000371812
5.3586e-06
-0.000381701
2.46831e-06
-0.000392132
-7.40741e-07
-0.00040357
-4.17542e-06
-0.000416015
-7.94818e-06
-0.000429449
-1.20296e-05
-0.000443815
-1.63955e-05
-0.000459199
-2.1062e-05
-0.000475609
-2.61223e-05
-0.000493003
-3.1489e-05
-0.000511164
-0.000530671
-3.71073e-05
6.41086e-06
-0.000169626
8.71892e-06
-0.000317678
7.60919e-06
-0.000357488
5.25477e-06
-0.000369458
2.4127e-06
-0.000378859
-7.90023e-07
-0.000388929
-4.22021e-06
-0.000400139
-7.98362e-06
-0.000412251
-1.20638e-05
-0.000425369
-1.64474e-05
-0.000439432
-2.11238e-05
-0.000454522
-2.61164e-05
-0.000470616
-3.14831e-05
-0.000487636
-3.71517e-05
-0.000505495
-0.000524731
-4.30914e-05
5.55445e-06
-0.00017518
7.06418e-06
-0.000319188
5.43934e-06
-0.000355863
2.73066e-06
-0.000366749
-4.56734e-07
-0.000375671
-3.86906e-06
-0.000385517
-7.62799e-06
-0.00039638
-1.17025e-05
-0.000408177
-1.60878e-05
-0.000420984
-2.07744e-05
-0.000434745
-2.57614e-05
-0.000449535
-3.10746e-05
-0.000465303
-3.67442e-05
-0.000481967
-4.27251e-05
-0.000499514
-0.000518455
-4.90015e-05
4.74508e-06
-0.000179925
5.49789e-06
-0.00031994
3.38649e-06
-0.000353752
2.62109e-07
-0.000363625
-3.11873e-06
-0.000372291
-6.87431e-06
-0.000381761
-1.09474e-05
-0.000392307
-1.53311e-05
-0.000403793
-2.00204e-05
-0.000416294
-2.50114e-05
-0.000429754
-3.03065e-05
-0.00044424
-3.59304e-05
-0.000459679
-4.19098e-05
-0.000475987
-4.82155e-05
-0.000493208
-0.000511852
-5.48185e-05
3.98489e-06
-0.00018391
4.01859e-06
-0.000319974
1.43292e-06
-0.000351166
-1.97423e-06
-0.000360218
-5.71853e-06
-0.000368546
-9.79042e-06
-0.000377689
-1.41749e-05
-0.000387923
-1.88663e-05
-0.000399102
-2.38606e-05
-0.0004113
-2.91558e-05
-0.000424459
-3.47571e-05
-0.000438639
-4.0689e-05