/*--------------------------------*- C++ -*----------------------------------*\
  =========                 |
  \\      /  F ield         | OpenFOAM: The Open Source CFD Toolbox
   \\    /   O peration     | Website:  https://openfoam.org
    \\  /    A nd           | Version:  7
     \\/     M anipulation  |
\*---------------------------------------------------------------------------*/
FoamFile
{
    version     2.0;
    format      ascii;
    class       volVectorField;
    location    "3.9996";
    object      U;
}
// * * * * * * * * * * * * * * * * * * * * * * * * * * * * * * * * * * * * * //

dimensions      [0 1 -1 0 0 0 0];

internalField   nonuniform List<vector> 
18750
(
(-0.0599609 0.0363005 -4.59826e-20)
(-0.201377 0.0418098 1.36762e-20)
(-0.347131 0.0394031 1.15156e-19)
(-0.479525 0.0380585 2.33647e-20)
(-0.612673 0.0367148 -4.87152e-20)
(-0.739129 0.0354054 -1.13893e-19)
(-0.862964 0.0338636 1.12212e-19)
(-0.979941 0.0320072 7.26219e-20)
(-1.09205 0.0297122 -5.38369e-20)
(-1.19578 0.0269599 -1.43367e-19)
(-1.29024 0.0236189 5.3734e-19)
(-1.36855 0.0193393 -4.30714e-19)
(-1.42547 0.0135119 2.48314e-19)
(-1.45509 0.00599636 -4.47748e-19)
(-1.45695 -0.00234262 1.06172e-19)
(-0.062095 0.108244 2.95292e-20)
(-0.202549 0.124888 3.12429e-20)
(-0.346417 0.117773 7.43753e-21)
(-0.477129 0.113797 1.43626e-19)
(-0.608664 0.109822 2.80775e-19)
(-0.733605 0.105939 3.59354e-19)
(-0.855936 0.10135 -2.95942e-19)
(-0.971346 0.095798 4.73151e-19)
(-1.08167 0.0889029 4.37576e-19)
(-1.18337 0.0806022 -1.35843e-19)
(-1.27567 0.0705149 -5.68246e-19)
(-1.35193 0.0576601 3.38234e-20)
(-1.40674 0.0402967 1.28619e-19)
(-1.4334 0.0178781 3.0014e-19)
(-1.4311 -0.00718105 -4.15584e-19)
(-0.0662476 0.178222 7.32885e-20)
(-0.204775 0.206337 8.47636e-20)
(-0.344834 0.194841 -2.66299e-19)
(-0.472064 0.188438 7.91175e-21)
(-0.600204 0.182035 -5.28882e-19)
(-0.721897 0.175738 1.62949e-19)
(-0.840943 0.168232 -4.47521e-19)
(-0.952842 0.159082 -5.38708e-20)
(-1.05912 0.14764 -3.35192e-19)
(-1.15617 0.133768 9.9439e-19)
(-1.2435 0.116869 1.29682e-18)
(-1.31507 0.095533 1.11787e-18)
(-1.36535 0.0671425 6.39078e-19)
(-1.38639 0.0304154 4.09459e-19)
(-1.37665 -0.0113389 -6.7166e-19)
(-0.0722118 0.244959 -3.10621e-19)
(-0.207914 0.285063 3.41929e-19)
(-0.342337 0.269709 -2.38299e-19)
(-0.464346 0.261197 -4.64736e-19)
(-0.587365 0.252685 7.6208e-19)
(-0.704059 0.244237 -6.91579e-19)
(-0.817904 0.234058 9.9079e-19)
(-0.924102 0.221514 -8.27156e-19)
(-1.02376 0.205658 5.77819e-19)
(-1.11319 0.186262 -1.40189e-18)
(-1.1924 0.162617 -1.98547e-18)
(-1.25633 0.133176 1.19638e-19)
(-1.29983 0.0948026 -3.56534e-19)
(-1.31342 0.0450829 -7.54807e-19)
(-1.29401 -0.013008 2.5365e-18)
(-0.0797334 0.307286 -2.02044e-19)
(-0.211832 0.359994 4.45049e-19)
(-0.338972 0.341499 1.14577e-19)
(-0.454234 0.33129 3.8052e-19)
(-0.570679 0.321013 -4.6143e-19)
(-0.680919 0.310616 1.94448e-19)
(-0.787986 0.297838 2.33594e-18)
(-0.886713 0.281859 3.56109e-19)
(-0.977695 0.261505 6.37392e-19)
(-1.05726 0.236549 -2.22645e-19)
(-1.1262 0.206312 1.85567e-19)
(-1.18111 0.169337 -5.24764e-20)
(-1.21814 0.122211 -2.08648e-18)
(-1.22637 0.0609901 -1.14592e-18)
(-1.19939 -0.0133806 -3.00016e-18)
(-0.0885251 0.36414 4.65475e-19)
(-0.216345 0.430089 1.00649e-19)
(-0.334744 0.409455 -2.07342e-19)
(-0.441992 0.398073 -1.44994e-19)
(-0.550687 0.386456 1.41693e-19)
(-0.653232 0.374382 -2.01729e-18)
(-0.752063 0.359189 -2.59029e-19)
(-0.841563 0.339938 1.27336e-19)
(-0.921887 0.315348 -9.33485e-19)
(-0.989768 0.285314 -1.29349e-18)
(-1.04745 0.249323 9.31193e-19)
(-1.09402 0.206064 -9.0499e-19)
(-1.12762 0.151711 2.72874e-18)
(-1.13586 0.0803661 -2.09589e-18)
(-1.10592 -0.0103848 4.26691e-18)
(-0.0982145 0.414454 -3.78461e-19)
(-0.221157 0.494463 -6.67368e-19)
(-0.329516 0.472968 2.50388e-19)
(-0.427704 0.461025 1.84404e-18)
(-0.527572 0.44854 1.82255e-18)
(-0.621137 0.435081 -6.2021e-19)
(-0.710134 0.417642 3.15405e-19)
(-0.788622 0.395259 2.0547e-19)
(-0.856789 0.366789 2.02743e-18)
(-0.912518 0.332549 2.79429e-18)
(-0.960144 0.292303 -1.35335e-18)
(-1.00116 0.244512 -2.6068e-18)
(-1.035 0.184227 -4.79747e-18)
(-1.04663 0.103638 7.09199e-19)
(-1.01362 -0.00247496 -5.35606e-18)
(-0.108305 0.457109 -2.98949e-19)
(-0.225857 0.552317 -3.61236e-19)
(-0.323064 0.531577 -2.64716e-18)
(-0.411335 0.51969 9.0122e-19)
(-0.501399 0.506799 -1.10865e-18)
(-0.584792 0.492246 7.39359e-19)
(-0.662659 0.472768 7.73629e-19)
(-0.729133 0.447565 -3.41632e-18)
(-0.785057 0.415941 -2.28234e-18)
(-0.829988 0.378761 -3.86922e-18)
(-0.870072 0.335793 -6.46601e-19)
(-0.907729 0.284546 2.78356e-18)
(-0.941093 0.218509 1.08119e-17)
(-0.951432 0.128819 -1.67563e-18)
(-0.908438 0.00972747 2.8504e-18)
(-0.118205 0.491161 1.62878e-18)
(-0.229978 0.603107 6.59662e-19)
(-0.315143 0.584917 2.87265e-18)
(-0.392861 0.573652 -2.09705e-18)
(-0.472318 0.560794 9.67971e-19)
(-0.544657 0.545422 -1.62214e-18)
(-0.610664 0.524121 -3.73869e-18)
(-0.664919 0.496413 3.34942e-18)
(-0.709244 0.462268 4.02884e-19)
(-0.744659 0.423229 5.78082e-18)
(-0.777894 0.378965 -1.89377e-18)
(-0.809926 0.325768 -8.58563e-18)
(-0.835475 0.255244 -5.22306e-18)
(-0.83338 0.158039 4.95651e-19)
(-0.772804 0.0291299 -2.36642e-18)
(-0.127155 0.515622 -1.30864e-18)
(-0.232895 0.64621 -7.58742e-19)
(-0.305515 0.63271 9.19704e-19)
(-0.372312 0.622562 1.3953e-19)
(-0.440599 0.610157 -3.78521e-19)
(-0.501356 0.594319 -4.26646e-19)
(-0.555223 0.571571 1.70692e-18)
(-0.597413 0.541986 -2.02994e-18)
(-0.630606 0.506478 2.01589e-18)
(-0.656661 0.467343 2.53947e-18)
(-0.681498 0.423822 -4.54309e-18)
(-0.703096 0.37012 8.63615e-18)
(-0.712325 0.295545 9.75966e-19)
(-0.689865 0.190405 1.29835e-18)
(-0.612676 0.0524837 3.04895e-18)
(-0.13434 0.529843 2.35149e-18)
(-0.234071 0.68152 -7.73003e-19)
(-0.294007 0.674712 -3.50522e-18)
(-0.349779 0.66613 1.37099e-18)
(-0.406566 0.654682 -8.01141e-19)
(-0.455534 0.638804 9.48021e-19)
(-0.497304 0.615118 7.12619e-18)
(-0.527687 0.584359 3.48238e-18)
(-0.549917 0.5483 2.33179e-18)
(-0.565952 0.509671 -7.89136e-18)
(-0.579909 0.466802 8.71476e-18)
(-0.586038 0.412003 3.24508e-18)
(-0.57352 0.332718 -5.23976e-18)
(-0.530176 0.221066 6.34637e-18)
(-0.445454 0.0761982 -7.04153e-20)
(-0.138603 0.532874 4.03515e-19)
(-0.232804 0.708634 1.35278e-19)
(-0.280504 0.710655 -1.96056e-19)
(-0.32536 0.7042 -2.44461e-18)
(-0.370571 0.694237 4.86447e-18)
(-0.407823 0.678808 -2.51772e-18)
(-0.437712 0.654736 -7.48666e-18)
(-0.456573 0.623391 2.29242e-18)
(-0.467676 0.587301 -3.77366e-18)
(-0.472368 0.549486 5.91793e-18)
(-0.472476 0.507768 -1.07724e-17)
(-0.459958 0.452917 8.55156e-19)
(-0.424396 0.371683 4.68895e-18)
(-0.365424 0.257642 -9.81001e-18)
(-0.282687 0.103877 -2.25092e-18)
(-0.139058 0.525118 -1.49817e-18)
(-0.22873 0.727825 4.47371e-19)
(-0.26502 0.740234 1.34084e-18)
(-0.299172 0.736715 -6.26609e-20)
(-0.332974 0.728838 -6.53102e-18)
(-0.35879 0.714304 6.44978e-19)
(-0.377149 0.690364 2.45361e-18)
(-0.384716 0.658932 -6.64342e-18)
(-0.384419 0.62301 5.0296e-18)
(-0.376545 0.585693 -4.70271e-18)
(-0.361444 0.544222 1.31107e-17)
(-0.329976 0.48887 -5.51668e-18)
(-0.272912 0.404605 6.7664e-18)
(-0.203265 0.28858 1.37761e-17)
(-0.112753 0.129889 5.76461e-18)
(-0.134905 0.506771 -5.62348e-19)
(-0.221241 0.738311 9.45142e-21)
(-0.247516 0.763284 -6.72842e-20)
(-0.27132 0.763871 -1.36438e-19)
(-0.294155 0.758463 -3.05396e-18)
(-0.309 0.745267 -1.38126e-18)
(-0.316207 0.721945 2.35241e-18)
(-0.312794 0.690693 1.46731e-18)
(-0.301075 0.654827 -8.44039e-18)
(-0.280065 0.617285 -4.39468e-19)
(-0.248778 0.575662 -2.57882e-18)
(-0.199629 0.519977 5.24357e-18)
(-0.118983 0.436676 -7.51621e-18)
(-0.0321721 0.332137 -1.11776e-18)
(0.0911698 0.187528 -6.49667e-18)
(-0.125736 0.477651 2.4513e-18)
(-0.209899 0.739416 -2.14335e-18)
(-0.227979 0.780056 -3.06297e-18)
(-0.24207 0.785885 5.54111e-18)
(-0.254516 0.783179 4.99653e-18)
(-0.258948 0.771696 6.52296e-18)
(-0.255514 0.74939 3.02707e-19)
(-0.241417 0.718538 4.58102e-18)
(-0.218495 0.682596 6.25496e-18)
(-0.184323 0.644261 9.51735e-18)
(-0.13763 0.601257 -4.52363e-18)
(-0.073477 0.545886 9.51084e-18)
(0.0299254 0.461372 -1.14587e-19)
(0.12028 0.360612 -5.03812e-18)
(0.31747 0.274302 -1.18674e-17)
(-0.111324 0.437589 -1.49336e-18)
(-0.19454 0.730918 2.43483e-18)
(-0.206431 0.790555 1.61591e-18)
(-0.211704 0.802734 -5.13211e-18)
(-0.214542 0.803057 -2.48283e-18)
(-0.209159 0.793678 -4.69654e-19)
(-0.195639 0.772734 -3.38774e-18)
(-0.171321 0.742338 -5.97953e-18)
(-0.137797 0.706047 -1.04169e-17)
(-0.0913633 0.666228 -4.63427e-18)
(-0.0288737 0.620967 6.51618e-18)
(0.0438785 0.564993 -1.39972e-17)
(0.175871 0.477985 3.76088e-19)
(0.22921 0.335015 8.79085e-18)
(0.495567 0.292847 1.25339e-17)
(-0.0917522 0.386713 -3.51793e-18)
(-0.175363 0.712713 2.79436e-18)
(-0.18315 0.794544 -4.90671e-18)
(-0.18061 0.814435 -2.35658e-18)
(-0.174612 0.818166 -1.75678e-19)
(-0.160168 0.811089 3.4254e-18)
(-0.137267 0.791872 5.78151e-18)
(-0.10312 0.762192 1.97755e-18)
(-0.0595561 0.725557 2.9336e-18)
(-0.00291129 0.684352 -8.05638e-18)
(0.076253 0.634081 6.72564e-20)
(0.148156 0.578309 -6.38541e-18)
(0.325012 0.512572 -4.88052e-18)
(0.331916 0.326662 -1.38901e-17)
(0.630155 0.283264 -3.57011e-19)
(-0.0678958 0.325701 3.0954e-18)
(-0.152939 0.684386 4.88663e-19)
(-0.158656 0.791456 8.03067e-19)
(-0.149334 0.820833 5.88596e-18)
(-0.135245 0.828484 2.46799e-18)
(-0.112375 0.824034 -3.19854e-18)
(-0.0808807 0.80675 2.50688e-18)
(-0.0376346 0.777883 -1.49587e-18)
(0.0157437 0.740535 -3.00625e-18)
(0.0785266 0.698899 3.70358e-18)
(0.179298 0.643412 -1.20729e-17)
(0.230765 0.570147 -2.55527e-19)
(0.461228 0.544444 -6.75479e-18)
(0.448067 0.358068 1.07061e-17)
(0.744177 0.294114 8.32692e-19)
(-0.0421069 0.255258 -1.16615e-18)
(-0.128384 0.645035 -3.29639e-18)
(-0.133701 0.780156 9.06949e-19)
(-0.118472 0.821621 -6.63727e-18)
(-0.0969597 0.834051 -4.62911e-18)
(-0.0664451 0.83227 -2.59539e-18)
(-0.0271358 0.817311 -4.70769e-18)
(0.0243101 0.789893 4.54717e-18)
(0.0890147 0.751665 6.63465e-18)
(0.151584 0.709944 1.30746e-17)
(0.281924 0.658201 -3.94844e-19)
(0.300826 0.548258 1.51337e-17)
(0.563873 0.534052 6.1637e-18)
(0.55186 0.367419 4.36706e-18)
(0.837225 0.295098 -1.01678e-17)
(-0.0211405 0.176819 2.0079e-18)
(-0.103291 0.592808 5.00201e-18)
(-0.109057 0.758872 3.43072e-18)
(-0.0887691 0.815924 4.59542e-18)
(-0.0604788 0.834716 5.59675e-20)
(-0.0227401 0.836028 1.87754e-18)
(0.0236566 0.82307 3.8324e-20)
(0.0807594 0.797614 -3.55419e-18)
(0.159846 0.758007 5.42453e-18)
(0.214269 0.713052 -1.94307e-17)
(0.382775 0.684279 5.89702e-18)
(0.377768 0.550196 -4.04441e-18)
(0.645373 0.519412 8.24228e-19)
(0.637837 0.362667 -5.74288e-18)
(0.914823 0.299331 -6.06632e-18)
(-0.0128462 0.0977214 -3.27962e-18)
(-0.0803091 0.52555 4.34856e-18)
(-0.0854467 0.725146 -1.12781e-18)
(-0.0607501 0.802604 -1.87477e-18)
(-0.0265068 0.8299 3.99866e-18)
(0.0175195 0.834881 4.50399e-19)
(0.0716853 0.824366 -1.24681e-18)
(0.130899 0.801924 -1.51735e-19)
(0.229403 0.762941 -3.51738e-18)
(0.264112 0.698745 9.232e-18)
(0.467181 0.695316 5.45071e-18)
(0.465324 0.570018 2.73894e-18)
(0.717455 0.527433 -2.05602e-19)
(0.722106 0.371546 6.73996e-18)
(0.988209 0.31368 -4.82769e-19)
(-0.0130743 0.0301996 9.60693e-19)
(-0.0607181 0.440734 -1.05372e-18)
(-0.0634714 0.676558 7.90773e-19)
(-0.0352494 0.779419 3.46767e-18)
(0.004475 0.818785 -2.21775e-18)
(0.053585 0.828784 -1.39771e-18)
(0.116327 0.819311 -2.77587e-18)
(0.171929 0.799513 2.17349e-18)
(0.297293 0.773814 -2.31711e-18)
(0.315181 0.686137 -2.42515e-18)
(0.522767 0.676092 -4.80304e-18)
(0.549089 0.573622 -2.85232e-18)
(0.77459 0.526952 9.62465e-18)
(0.804742 0.377258 -1.32242e-17)
(1.04962 0.321593 -2.68637e-19)
(-0.0099829 -0.0167463 4.1211e-18)
(-0.044048 0.335452 -1.58557e-18)
(-0.0431279 0.610898 -4.08993e-18)
(-0.012646 0.744005 -1.08731e-18)
(0.0316325 0.798922 5.67392e-18)
(0.0836066 0.81765 -7.1611e-20)
(0.159259 0.810933 2.70755e-18)
(0.203552 0.784255 -1.50727e-18)
(0.351237 0.7758 -5.86029e-18)
(0.376235 0.694479 1.39282e-17)
(0.564187 0.652458 -1.01872e-17)
(0.620686 0.569781 2.96053e-18)
(0.814932 0.512965 -1.34359e-17)
(0.881259 0.381715 4.79576e-18)
(1.09107 0.326051 3.67318e-18)
(-0.000915031 -0.0410108 -1.47217e-18)
(-0.0338436 0.216005 -4.68281e-18)
(-0.0254077 0.525558 2.11953e-18)
(0.00580596 0.692643 3.73792e-19)
(0.0556342 0.768136 -5.03886e-18)
(0.105437 0.797517 3.10493e-18)
(0.196614 0.799717 9.73365e-20)
(0.233426 0.76726 -7.08636e-19)
(0.389163 0.752155 -5.54902e-18)
(0.423827 0.701747 -7.60689e-19)
(0.615284 0.635967 7.74677e-18)
(0.671908 0.571842 5.26747e-19)
(0.856214 0.497391 1.79948e-18)
(0.947394 0.393656 5.03632e-18)
(1.10745 0.323214 -1.252e-17)
(0.00743905 -0.0474356 -2.22904e-18)
(-0.0298467 0.106508 3.14505e-20)
(-0.0121814 0.420377 -2.66781e-18)
(0.0185343 0.621782 2.13341e-18)
(0.0747505 0.723062 2.81006e-18)
(0.120622 0.767863 -2.0785e-18)
(0.225065 0.777462 -3.64789e-19)
(0.253012 0.75221 -1.59833e-18)
(0.431959 0.720783 4.41051e-18)
(0.4376 0.685716 7.4089e-19)
(0.680568 0.618829 -1.06355e-17)
(0.686288 0.562221 2.67147e-18)
(0.913701 0.477541 1.76168e-18)
(0.977602 0.394764 -8.10249e-18)
(1.09507 0.304216 2.00878e-18)
(0.0107957 -0.0431355 5.13059e-19)
(-0.0208189 0.0310069 1.34563e-18)
(-0.00342766 0.295014 2.55506e-18)
(0.0244212 0.529176 -2.07887e-18)
(0.0881032 0.658385 -5.59891e-20)
(0.124427 0.725048 4.95559e-18)
(0.251366 0.746197 -2.14226e-19)
(0.252812 0.724684 9.32249e-20)
(0.470844 0.694272 6.44481e-18)
(0.436662 0.651501 -3.54649e-18)
(0.72435 0.59244 2.7934e-18)
(0.66577 0.52911 -7.43718e-18)
(0.971271 0.449237 6.29653e-19)
(0.940543 0.374457 -1.80656e-18)
(1.07191 0.276212 3.37666e-18)
(0.0105361 -0.034928 -3.6045e-19)
(-0.00331228 -0.00983739 1.75509e-18)
(0.0028127 0.16763 -2.21099e-18)
(0.0207608 0.413376 4.69571e-18)
(0.0959014 0.572518 -3.71906e-18)
(0.11445 0.660082 -3.25671e-18)
(0.262128 0.701623 -1.97215e-18)
(0.256264 0.68804 -3.86784e-18)
(0.461705 0.651318 -7.43101e-18)
(0.460809 0.619378 1.26361e-18)
(0.702783 0.545939 5.72572e-18)
(0.663063 0.491572 4.57214e-18)
(0.987333 0.41525 8.18394e-19)
(0.842682 0.337196 -3.77052e-18)
(1.07528 0.246195 -1.8015e-18)
(0.0102013 -0.0268239 9.47099e-19)
(0.0160833 -0.0258883 1.66212e-18)
(0.0118641 0.0763188 -6.96818e-18)
(0.0124071 0.286012 -4.68471e-18)
(0.0893664 0.461594 -1.36544e-19)
(0.10225 0.576543 3.43841e-18)
(0.234999 0.621257 -1.08965e-18)
(0.270928 0.648381 8.56471e-18)
(0.409351 0.579575 9.16267e-19)
(0.500136 0.590373 -4.29773e-18)
(0.629389 0.477696 -4.28396e-18)
(0.713122 0.465607 -6.81858e-18)
(0.914191 0.360418 7.53693e-18)
(0.744938 0.287688 5.03618e-18)
(1.13201 0.216751 1.72708e-20)
(0.0126679 -0.0210747 -2.62504e-18)
(0.0345755 -0.0288925 -4.89526e-18)
(0.0274111 0.0306557 3.49822e-18)
(0.0122695 0.176291 4.22298e-18)
(0.0683146 0.332673 2.53426e-18)
(0.0843217 0.480507 -2.32321e-18)
(0.186905 0.506768 5.74172e-18)
(0.25482 0.580045 -7.36827e-18)
(0.362309 0.4944 7.94215e-18)
(0.48179 0.52798 4.92511e-18)
(0.569139 0.400648 -1.42884e-18)
(0.723458 0.414295 -2.11634e-18)
(0.754588 0.268344 -2.97745e-18)
(0.773141 0.251913 -5.94651e-18)
(1.23002 0.192905 7.08793e-18)
(0.0189045 -0.018568 7.51435e-18)
(0.0524372 -0.0289512 5.78767e-18)
(0.0448253 0.0120218 1.32993e-18)
(0.0239149 0.108756 -6.00537e-20)
(0.0405558 0.215581 -8.48093e-19)
(0.0578932 0.376023 -1.03898e-18)
(0.130337 0.382406 -4.4596e-18)
(0.203229 0.471475 7.02804e-18)
(0.312137 0.397055 -5.12637e-18)
(0.40166 0.417431 -2.96299e-20)
(0.534771 0.319082 4.76312e-18)
(0.605706 0.305374 3.44146e-18)
(0.662935 0.186727 3.51098e-18)
(0.962868 0.241758 -2.70883e-20)
(1.31552 0.172468 -4.17426e-18)
(0.0278435 -0.0193579 -4.52966e-18)
(0.0679146 -0.0313785 -4.71072e-18)
(0.0571026 0.00158576 1.52165e-18)
(0.0335928 0.0746338 -2.3942e-18)
(0.0134465 0.130988 -1.04484e-18)
(0.026192 0.272673 3.58846e-18)
(0.063354 0.261895 -9.77226e-19)
(0.144115 0.346829 -7.52078e-19)
(0.224661 0.273929 -2.08511e-18)
(0.332241 0.290416 -4.60439e-18)
(0.440142 0.21063 2.12325e-18)
(0.496649 0.188137 -2.61867e-18)
(0.798113 0.175106 -4.07944e-18)
(1.15848 0.234378 -1.8685e-18)
(1.3399 0.148931 7.42218e-18)
(0.0375122 -0.0228234 5.16917e-18)
(0.077468 -0.0372796 -4.0982e-18)
(0.0594752 -0.0105392 -6.7621e-18)
(0.0284952 0.0493624 6.54928e-19)
(-0.0138922 0.0745298 1.64321e-18)
(-0.0165209 0.177866 -9.57866e-19)
(-0.00289334 0.156627 2.72703e-18)
(0.0643716 0.218371 6.27756e-19)
(0.140981 0.144335 -4.47332e-19)
(0.241618 0.157128 -5.50161e-20)
(0.366195 0.102962 -2.22683e-18)
(0.634112 0.151166 2.60955e-19)
(1.02134 0.195374 1.29482e-18)
(1.26095 0.212679 -9.90278e-19)
(1.42851 0.187183 7.03309e-18)
(0.0451353 -0.0276151 1.10163e-18)
(0.0780506 -0.0455255 -2.37633e-18)
(0.0493491 -0.0262359 6.63509e-18)
(0.00497838 0.0216323 5.12561e-18)
(-0.0489181 0.029957 -5.06128e-18)
(-0.072451 0.0947477 -2.40532e-19)
(-0.0733976 0.064301 -2.03503e-18)
(-0.0231113 0.0914579 -6.01265e-19)
(0.0586763 0.0224528 4.50422e-18)
(0.189148 0.0423471 2.15234e-18)
(0.524478 0.0771006 3.18845e-18)
(0.889788 0.171454 -2.66342e-18)
(1.15996 0.19327 1.66201e-18)
(1.34246 0.219585 -1.02938e-18)
(1.42958 0.163576 -8.99111e-18)
(0.0481273 -0.031946 8.81072e-19)
(0.0684136 -0.0541278 1.40261e-18)
(0.0269007 -0.043574 -3.66957e-18)
(-0.0334411 -0.00953059 -4.18038e-18)
(-0.0966327 -0.0106019 -3.79321e-18)
(-0.13975 0.0218482 3.43933e-19)
(-0.150911 -0.0206934 2.42703e-18)
(-0.102451 -0.0207312 -4.24173e-18)
(0.0484777 -0.0608384 -2.19224e-18)
(0.377336 0.0188299 1.15184e-18)
(0.782821 0.104429 -3.09787e-18)
(1.05209 0.172911 2.16469e-19)
(1.24871 0.193644 2.13489e-18)
(1.35943 0.191079 -2.79847e-18)
(1.42355 0.171492 2.25229e-18)
(0.0449642 -0.0340999 -1.97073e-18)
(0.0495512 -0.0610625 4.51149e-18)
(-0.005817 -0.0601624 3.01421e-18)
(-0.0809588 -0.0400325 2.02121e-18)
(-0.156679 -0.0469315 3.26442e-18)
(-0.214742 -0.0416296 -3.30988e-19)
(-0.221611 -0.0924467 -2.37468e-18)
(-0.105088 -0.0966487 4.63839e-19)
(0.242391 -0.0517537 2.74726e-18)
(0.6541 0.0500676 -4.85789e-18)
(0.953182 0.113613 -2.43943e-18)
(1.15666 0.170338 8.64662e-20)
(1.29314 0.172421 -6.68499e-19)
(1.37885 0.193244 3.5359e-18)
(1.44053 0.16233 -2.91707e-18)
(0.0353173 -0.032889 2.15865e-18)
(0.0234673 -0.0641209 1.45748e-18)
(-0.0448526 -0.0724351 -1.76295e-19)
(-0.132976 -0.0636238 -1.31705e-18)
(-0.21984 -0.0748274 2.81541e-19)
(-0.278023 -0.0880977 -3.92724e-18)
(-0.230356 -0.138256 8.72196e-19)
(0.0568365 -0.1046 -1.71401e-18)
(0.5229 -0.00806672 -1.95667e-18)
(0.841113 0.0619581 3.45689e-18)
(1.07461 0.116438 5.1935e-18)
(1.22848 0.157984 2.44121e-18)
(1.33268 0.173204 2.26426e-18)
(1.39192 0.178346 -2.79599e-18)
(1.41394 0.1532 -2.66582e-18)
(0.020118 -0.0277377 1.80642e-18)
(-0.00695191 -0.0612766 -3.41478e-18)
(-0.0850517 -0.0761121 -1.66751e-18)
(-0.180256 -0.0738341 -3.77107e-18)
(-0.266751 -0.0853949 1.72278e-18)
(-0.29704 -0.105453 4.11612e-18)
(-0.136777 -0.142433 -4.89328e-18)
(0.341053 -0.0478366 1.6158e-18)
(0.716814 0.0119557 2.89124e-18)
(0.987037 0.0710461 9.48703e-19)
(1.1707 0.117846 -3.67797e-18)
(1.28559 0.159889 -1.39037e-18)
(1.35421 0.160821 1.25739e-20)
(1.38514 0.173521 1.51874e-18)
(1.4222 0.154059 5.50797e-18)
(0.00149442 -0.0188759 -2.90273e-18)
(-0.0375802 -0.0511364 -2.93385e-18)
(-0.119591 -0.0686553 1.66519e-18)
(-0.211692 -0.0678213 6.72666e-18)
(-0.280403 -0.0740804 -4.47394e-18)
(-0.257118 -0.0929722 1.24219e-18)
(0.0723956 -0.0830109 1.98237e-18)
(0.563216 -0.0122387 -1.73374e-19)
(0.886656 0.0365328 3.6969e-19)
(1.10694 0.0848981 1.96731e-18)
(1.24367 0.12722 -1.80954e-18)
(1.3206 0.152917 -3.3203e-18)
(1.36464 0.160477 -2.64179e-18)
(1.39423 0.168817 2.14027e-18)
(1.40497 0.144132 5.5552e-19)
(-0.017819 -0.00743331 -7.29093e-19)
(-0.0647593 -0.0345837 5.86948e-18)
(-0.143111 -0.050781 1.26328e-18)
(-0.22238 -0.0465593 1.83101e-18)
(-0.26359 -0.0462945 1.71975e-18)
(-0.170714 -0.0740897 1.67108e-18)
(0.323937 -0.00273458 -5.88517e-19)
(0.738643 0.0224046 1.14752e-18)
(1.02402 0.0621995 5.8334e-19)
(1.19771 0.100774 2.54442e-18)
(1.29431 0.130837 9.85738e-20)
(1.34597 0.155942 2.3127e-18)
(1.3767 0.156772 -1.62785e-18)
(1.3844 0.163095 -1.40786e-18)
(1.40073 0.147584 8.68162e-19)
(-0.035233 0.00484209 2.64804e-18)
(-0.0860953 -0.0140401 -2.40239e-18)
(-0.154304 -0.0255736 2.84446e-19)
(-0.211722 -0.0144956 -3.70663e-18)
(-0.222059 -0.0113029 -3.27925e-18)
(-0.0200263 -0.0342192 5.86484e-18)
(0.524806 0.0332826 1.75213e-18)
(0.901875 0.0578197 -2.48279e-18)
(1.13633 0.0892434 6.76204e-19)
(1.26608 0.115721 -6.82892e-18)
(1.33192 0.142099 2.2726e-18)
(1.36356 0.155297 -2.50336e-18)
(1.3761 0.157193 2.65021e-18)
(1.38687 0.164112 -3.71519e-19)
(1.39397 0.142878 -1.30867e-18)
(-0.0487265 0.0161765 -4.15926e-18)
(-0.100359 0.00760205 -4.2642e-18)
(-0.154155 0.00276801 -4.40007e-18)
(-0.185019 0.0242472 -3.43189e-18)
(-0.168208 0.0221049 2.39234e-18)
(0.170922 0.0401118 -1.01715e-17)
(0.689643 0.0763328 9.31611e-19)
(1.02722 0.09366 8.71012e-19)
(1.21934 0.114079 4.69846e-19)
(1.31522 0.13294 3.19883e-18)
(1.35651 0.14858 -2.4691e-18)
(1.372 0.159228 5.422e-18)
(1.38146 0.15924 -1.05561e-18)
(1.38021 0.160727 -1.81971e-18)
(1.3832 0.145767 9.7799e-19)
(-0.0572332 0.0251111 7.39063e-19)
(-0.107748 0.0272014 3.46795e-18)
(-0.144848 0.0290744 5.01238e-18)
(-0.152468 0.0580948 8.32355e-19)
(-0.0951499 0.0330911 4.32745e-18)
(0.371901 0.0874698 2.50459e-18)
(0.84322 0.111501 7.79388e-19)
(1.13502 0.12483 -3.90264e-18)
(1.28514 0.138326 -2.18405e-19)
(1.34981 0.14715 1.63534e-18)
(1.37218 0.159344 6.01233e-18)
(1.37959 0.162676 -7.57734e-19)
(1.37781 0.161163 1.76079e-18)
(1.37749 0.164012 1.5499e-18)
(1.38074 0.146616 2.2566e-18)
(-0.0605511 0.0308383 1.37435e-18)
(-0.108843 0.0425426 -4.60113e-18)
(-0.127621 0.0525631 -9.9841e-19)
(-0.121874 0.0829988 7.32681e-20)
(0.00349053 0.0476714 -7.93422e-18)
(0.542056 0.118101 2.11386e-18)
(0.967618 0.142622 -1.0838e-18)
(1.21289 0.152763 1.25486e-18)
(1.32795 0.158269 4.09489e-18)
(1.3712 0.162232 -1.45378e-18)
(1.38189 0.167002 -4.48673e-18)
(1.38014 0.167314 -5.6479e-19)
(1.37841 0.166273 -5.91812e-19)
(1.37359 0.163803 -1.26231e-18)
(1.36941 0.149001 -2.46523e-18)
(-0.0594097 0.032932 2.88056e-19)
(-0.104689 0.0517479 1.24567e-18)
(-0.105822 0.0716848 -3.227e-18)
(-0.0967755 0.089657 1.40438e-18)
(0.132796 0.0817065 3.23737e-18)
(0.692529 0.149412 -1.47245e-18)
(1.07361 0.171415 -2.77259e-19)
(1.27529 0.176618 -3.22521e-18)
(1.36047 0.177362 5.84068e-19)
(1.38571 0.174623 -2.30332e-18)
(1.38596 0.176569 2.09618e-18)
(1.38189 0.173028 -1.61472e-18)
(1.37421 0.169739 2.64042e-18)
(1.36807 0.167603 -9.01968e-19)
(1.36694 0.153207 -1.72381e-18)
(-0.055376 0.0314443 1.47119e-18)
(-0.0969422 0.0539184 9.20756e-19)
(-0.0865518 0.0824856 8.32228e-19)
(-0.0700687 0.0706809 2.46662e-19)
(0.299651 0.111172 1.37876e-18)
(0.830917 0.171339 -3.50912e-18)
(1.15817 0.192662 2.00693e-18)
(1.31797 0.195784 4.52291e-18)
(1.37833 0.191693 -5.09006e-19)
(1.3915 0.186611 3.27819e-18)
(1.38764 0.184239 1.8547e-18)
(1.37897 0.178131 3.4146e-19)
(1.37165 0.175956 5.04692e-19)
(1.36506 0.169879 9.3314e-19)
(1.35769 0.155826 2.02882e-18)
(-0.0504411 0.0271467 2.21565e-18)
(-0.0873843 0.0510936 3.14154e-18)
(-0.0772365 0.0808409 -2.8156e-18)
(-0.0238974 0.0373592 2.61235e-18)
(0.477365 0.132739 -5.98045e-18)
(0.94869 0.191126 1.57075e-18)
(1.22277 0.212092 -5.2791e-19)
(1.34849 0.212451 -2.78203e-18)
(1.39051 0.205968 -4.8455e-18)
(1.3951 0.19715 -1.82056e-18)
(1.38614 0.192672 -4.37892e-18)
(1.37729 0.184911 2.58228e-18)
(1.36734 0.180634 -3.22226e-18)
(1.35855 0.173688 2.00142e-18)
(1.3536 0.161518 1.24565e-18)
(-0.0460835 0.0210999 -5.23769e-18)
(-0.0774664 0.0467171 1.62945e-19)
(-0.0786724 0.0634165 3.76248e-19)
(0.0596943 0.0275594 7.09352e-19)
(0.636767 0.156161 4.47309e-19)
(1.04952 0.20857 2.8944e-18)
(1.27326 0.226108 1.56286e-18)
(1.36835 0.224953 -4.18832e-19)
(1.39515 0.216032 2.14077e-18)
(1.39348 0.206495 1.33531e-18)
(1.38381 0.199902 5.85832e-19)
(1.37288 0.190342 -1.42867e-18)
(1.36287 0.186903 4.42391e-18)
(1.35514 0.177475 7.05422e-19)
(1.34638 0.165098 -1.39584e-18)
(-0.0430345 0.0142385 4.79368e-18)
(-0.0710706 0.0422686 -3.39901e-18)
(-0.0798435 0.0314371 1.09212e-18)
(0.196838 0.0580066 -1.04548e-19)
(0.775188 0.176583 5.56013e-18)
(1.13079 0.223268 -4.52032e-19)
(1.30946 0.239 -1.88987e-18)
(1.3801 0.23631 4.48517e-18)
(1.39653 0.226792 4.1401e-19)
(1.39161 0.215608 1.69215e-18)
(1.37974 0.207527 -3.37118e-18)
(1.36915 0.197482 8.93939e-20)
(1.35831 0.192331 -1.34629e-18)
(1.34855 0.181432 -2.35021e-19)
(1.3408 0.17129 -7.78839e-19)
(-0.0417893 0.00881185 -1.28016e-18)
(-0.0743262 0.0339667 3.52659e-18)
(-0.0600266 -0.00929918 2.14018e-18)
(0.380131 0.0978585 1.63925e-18)
(0.896484 0.19312 -9.10529e-19)
(1.19565 0.236227 -3.57593e-19)
(1.33664 0.249052 2.36816e-18)
(1.3871 0.245087 -1.91413e-18)
(1.39503 0.234403 5.63427e-19)
(1.387 0.223205 -2.88921e-18)
(1.37551 0.214285 2.04222e-19)
(1.36406 0.20315 3.96033e-19)
(1.35281 0.198293 -5.53363e-19)
(1.34427 0.186043 -3.13354e-18)
(1.33475 0.175916 1.23047e-18)
(-0.0425257 0.00840316 -2.23621e-18)
(-0.0850154 0.0205197 -2.77656e-18)
(-0.00376963 -0.0344394 1.43794e-18)
(0.558234 0.128222 -1.65744e-19)
(1.00035 0.208494 -2.25216e-18)
(1.246 0.247368 -7.84451e-20)
(1.35454 0.258282 -1.68289e-18)
(1.38919 0.253441 -3.25837e-18)
(1.39143 0.243 -1.2928e-18)
(1.38253 0.231333 1.19121e-18)
(1.37021 0.221418 1.04145e-18)
(1.35906 0.210294 -1.04035e-19)
(1.34784 0.204087 -1.50899e-18)
(1.33785 0.190362 2.6076e-18)
(1.3283 0.182191 7.50311e-19)
(-0.0445216 0.0139987 2.19111e-18)
(-0.0952522 0.00425834 1.63884e-20)
(0.0908357 -0.0176128 -3.51271e-18)
(0.699569 0.154671 -7.35943e-20)
(1.08641 0.225647 5.43947e-19)
(1.28525 0.258488 9.82373e-19)
(1.367 0.266219 -1.73744e-18)
(1.38948 0.260516 8.9133e-19)
(1.38741 0.249564 -4.08001e-20)
(1.37694 0.23802 9.48879e-19)
(1.36508 0.227856 -8.21644e-19)
(1.3536 0.216126 -2.21032e-18)
(1.34183 0.209747 -1.00427e-19)
(1.33272 0.195431 -1.25323e-18)
(1.32262 0.187583 -1.01125e-18)
(-0.0472885 0.0228833 8.94501e-19)
(-0.0953832 -0.0145682 -1.84798e-18)
(0.224453 0.0329066 1.7732e-18)
(0.816778 0.179598 -5.75107e-19)
(1.15596 0.241906 -3.13711e-19)
(1.31528 0.268719 -8.70732e-19)
(1.37435 0.273785 1.38148e-18)
(1.38702 0.26746 8.70941e-19)
(1.38184 0.257017 -5.11591e-19)
(1.3713 0.245536 -1.40969e-18)
(1.35915 0.234723 -4.94784e-19)
(1.3478 0.223134 2.26064e-18)
(1.33639 0.215679 1.32837e-18)
(1.3264 0.200213 1.24715e-18)
(1.31578 0.193804 -3.58749e-19)
(-0.0515857 0.0288221 -5.54474e-19)
(-0.0761321 -0.0305538 2.0313e-19)
(0.381681 0.0821535 -7.43465e-19)
(0.918879 0.200022 -2.22639e-20)
(1.21099 0.25675 -5.74013e-19)
(1.33719 0.278798 -8.43553e-19)
(1.37862 0.281068 2.97322e-19)
(1.38413 0.274051 -1.7163e-18)
(1.37684 0.263349 1.48832e-18)
(1.36544 0.251908 1.85073e-18)
(1.35355 0.241037 2.19303e-19)
(1.34204 0.229089 -1.94658e-18)
(1.3301 0.221178 -1.81093e-18)
(1.32059 0.205598 -1.30507e-18)
(1.30998 0.199619 4.90666e-19)
(-0.0576109 0.0269997 -1.80488e-18)
(-0.0371829 -0.0354796 4.98576e-19)
(0.532074 0.120517 -3.6433e-19)
(1.00721 0.219753 2.52325e-21)
(1.25396 0.270286 -1.48712e-19)
(1.35272 0.28804 -3.16412e-19)
(1.38011 0.288272 5.96423e-19)
(1.37986 0.280726 -3.26402e-19)
(1.37067 0.270383 -4.25298e-19)
(1.35925 0.259114 -8.04677e-19)
(1.34722 0.247796 -7.00176e-19)
(1.3357 0.235946 -3.10322e-19)
(1.32417 0.22716 1.12473e-18)
(1.3142 0.210829 -4.04386e-20)
(1.30298 0.20573 7.96857e-19)
(-0.0656125 0.0140258 7.48615e-19)
(0.0191986 -0.0302407 1.25091e-18)
(0.659239 0.152846 2.11935e-19)
(1.08426 0.240143 7.79952e-19)
(1.28839 0.28335 1.65496e-18)
(1.36304 0.297094 6.01356e-19)
(1.37965 0.295515 2.18492e-18)
(1.37548 0.28753 1.13391e-18)
(1.36525 0.276953 6.99294e-19)
(1.35327 0.265546 1.57089e-18)
(1.34127 0.254152 4.75557e-19)
(1.32963 0.242022 8.39709e-19)
(1.31764 0.232652 4.05679e-19)
(1.30783 0.216469 1.78704e-19)
(1.29684 0.211688 5.5037e-19)
(-0.0743988 -0.00861369 1.05896e-18)
(0.101071 -0.0120716 -1.7768e-18)
(0.767164 0.180722 -3.64571e-19)
(1.14785 0.260269 8.0393e-19)
(1.31515 0.296312 -1.66926e-18)
(1.36973 0.305902 -6.68966e-19)
(1.37773 0.302833 -1.34143e-18)
(1.37035 0.294463 -3.99012e-20)
(1.35889 0.284023 -3.48013e-19)
(1.34678 0.272687 -1.31568e-18)
(1.33463 0.260917 9.75607e-19)
(1.32288 0.248773 7.11665e-20)
(1.31125 0.238675 -4.03208e-20)
(1.30124 0.222055 3.09064e-19)
(1.28974 0.217635 -6.77144e-19)
(-0.0819491 -0.034938 -6.02035e-20)
(0.205683 0.0178594 7.59831e-19)
(0.860291 0.204596 2.20561e-19)
(1.20084 0.279891 -1.13346e-18)
(1.33618 0.309343 7.35668e-19)
(1.37363 0.315072 2.28871e-19)
(1.37471 0.310469 -5.95934e-19)
(1.36508 0.301716 -2.77696e-19)
(1.35307 0.291006 -8.26547e-19)
(1.34056 0.279372 1.41799e-19)
(1.32832 0.267426 -9.40693e-19)
(1.31646 0.254985 -6.43208e-19)
(1.30444 0.24427 1.64171e-19)
(1.29443 0.227888 1.61583e-19)
(1.28324 0.223527 -2.76113e-19)
(-0.0845072 -0.0567543 -4.01032e-19)
(0.324149 0.0536429 -2.3457e-19)
(0.941295 0.225825 5.62701e-19)
(1.24283 0.298072 9.75585e-19)
(1.35132 0.322276 1.83862e-19)
(1.37534 0.324517 -4.96602e-19)
(1.37102 0.318465 6.15002e-19)
(1.3594 0.309163 5.2708e-19)
(1.34649 0.298318 2.69455e-19)
(1.33374 0.28659 4.95327e-20)
(1.32134 0.274265 3.0031e-19)
(1.30934 0.261681 1.29208e-19)
(1.29761 0.250338 -8.47048e-20)
(1.28755 0.233685 -1.053e-19)
(1.27606 0.229234 8.77369e-20)
(-0.0785823 -0.0661237 -1.89591e-19)
(0.446196 0.0922519 -2.10685e-19)
(1.01301 0.246981 1.69238e-19)
(1.27645 0.315328 -2.32215e-19)
(1.36204 0.335122 -4.81676e-19)
(1.37518 0.334452 3.65591e-20)
(1.36661 0.326965 2.84462e-19)
(1.35349 0.317045 -2.52045e-19)
(1.34017 0.305751 1.64126e-19)
(1.32711 0.293575 3.23101e-19)
(1.31459 0.280959 5.08937e-20)
(1.30249 0.268023 1.20908e-19)
(1.29049 0.256064 -1.4085e-19)
(1.28038 0.239601 9.18912e-20)
(1.26928 0.234905 -6.48689e-20)
(-0.0648588 -0.0627228 -6.13349e-20)
(0.558524 0.131189 -2.29832e-20)
(1.07665 0.270074 -3.02964e-19)
(1.30247 0.332026 3.44407e-20)
(1.36831 0.347724 -1.71483e-20)
(1.37325 0.344635 2.36334e-19)
(1.36166 0.335876 -1.74406e-19)