/*--------------------------------*- C++ -*----------------------------------*\
  =========                 |
  \\      /  F ield         | OpenFOAM: The Open Source CFD Toolbox
   \\    /   O peration     | Website:  https://openfoam.org
    \\  /    A nd           | Version:  7
     \\/     M anipulation  |
\*---------------------------------------------------------------------------*/
FoamFile
{
    version     2.0;
    format      ascii;
    class       volScalarField;
    location    "37.9995";
    object      p;
}
// * * * * * * * * * * * * * * * * * * * * * * * * * * * * * * * * * * * * * //

dimensions      [0 2 -2 0 0 0 0];

internalField   nonuniform List<scalar> 
18750
(
-0.195245
-0.199108
-0.207074
-0.220203
-0.23747
-0.258439
-0.282536
-0.309427
-0.338703
-0.370059
-0.403304
-0.438366
-0.475082
-0.512915
-0.550948
-0.211551
-0.214948
-0.222597
-0.235576
-0.252773
-0.273686
-0.297699
-0.324356
-0.353234
-0.383962
-0.416289
-0.450073
-0.485083
-0.520727
-0.556177
-0.228723
-0.231554
-0.238789
-0.251516
-0.268536
-0.289286
-0.313106
-0.339472
-0.367881
-0.397935
-0.42933
-0.461856
-0.495222
-0.528799
-0.561846
-0.246493
-0.248651
-0.255402
-0.267796
-0.284548
-0.305038
-0.328564
-0.354561
-0.382456
-0.411792
-0.442243
-0.473532
-0.505323
-0.536968
-0.567782
-0.26455
-0.265952
-0.272177
-0.284176
-0.300587
-0.320741
-0.343886
-0.369425
-0.396762
-0.425354
-0.454852
-0.484927
-0.515219
-0.545067
-0.573814
-0.282561
-0.283162
-0.288848
-0.300413
-0.316427
-0.336185
-0.35889
-0.383906
-0.41062
-0.438497
-0.467003
-0.495891
-0.524756
-0.552934
-0.579786
-0.300184
-0.299986
-0.305154
-0.31627
-0.331848
-0.351165
-0.373385
-0.397837
-0.423881
-0.450957
-0.478548
-0.506286
-0.533797
-0.560427
-0.585565
-0.317084
-0.316136
-0.320847
-0.331516
-0.346641
-0.365489
-0.387193
-0.411054
-0.436407
-0.462674
-0.489338
-0.515995
-0.542227
-0.567426
-0.591031
-0.332938
-0.33135
-0.335698
-0.345939
-0.360611
-0.37898
-0.400154
-0.423409
-0.448065
-0.47353
-0.499283
-0.524903
-0.549947
-0.573831
-0.596072
-0.347446
-0.345423
-0.349496
-0.35934
-0.373579
-0.39148
-0.412124
-0.434775
-0.458739
-0.48342
-0.508294
-0.532926
-0.556869
-0.57955
-0.600581
-0.360313
-0.358219
-0.36204
-0.371544
-0.38539
-0.402849
-0.422977
-0.445034
-0.468325
-0.492252
-0.516288
-0.539994
-0.562915
-0.584512
-0.60445
-0.371465
-0.369496
-0.373143
-0.382398
-0.395908
-0.412972
-0.432605
-0.454088
-0.476733
-0.499939
-0.523185
-0.546035
-0.568031
-0.588638
-0.607618
-0.380837
-0.379106
-0.382672
-0.391781
-0.405018
-0.421759
-0.440918
-0.461854
-0.483883
-0.506408
-0.528914
-0.550971
-0.572148
-0.591894
-0.609891
-0.388384
-0.386938
-0.390606
-0.399597
-0.41263
-0.429144
-0.447844
-0.468265
-0.489712
-0.511599
-0.533413
-0.554733
-0.575178
-0.594233
-0.611176
-0.394118
-0.392989
-0.396873
-0.40587
-0.418673
-0.4351
-0.453325
-0.473266
-0.494167
-0.515457
-0.536632
-0.557268
-0.577014
-0.595599
-0.611403
-0.398126
-0.397321
-0.401474
-0.410574
-0.423407
-0.439364
-0.45732
-0.476808
-0.497206
-0.517939
-0.538524
-0.558541
-0.577553
-0.595923
-0.610569
-0.400578
-0.400042
-0.404448
-0.413694
-0.426527
-0.442195
-0.459843
-0.478899
-0.498802
-0.519006
-0.539042
-0.558539
-0.576753
-0.595035
-0.608685
-0.401703
-0.401302
-0.405881
-0.415268
-0.428096
-0.443554
-0.460877
-0.47952
-0.498945
-0.518634
-0.538138
-0.557135
-0.574817
-0.592545
-0.606023
-0.401761
-0.401278
-0.405898
-0.415374
-0.428185
-0.443441
-0.460441
-0.478672
-0.497617
-0.516802
-0.53578
-0.554373
-0.571479
-0.588822
-0.602017
-0.401
-0.400144
-0.404651
-0.414125
-0.426872
-0.441906
-0.458568
-0.476361
-0.494814
-0.513508
-0.531937
-0.550218
-0.56671
-0.583834
-0.596666
-0.399611
-0.398058
-0.402314
-0.411664
-0.424255
-0.439019
-0.455299
-0.472617
-0.490544
-0.508761
-0.526581
-0.544646
-0.560497
-0.57755
-0.589936
-0.397698
-0.395177
-0.399101
-0.408156
-0.420454
-0.434865
-0.450698
-0.467486
-0.484817
-0.502575
-0.519695
-0.537629
-0.552832
-0.56996
-0.58185
-0.395288
-0.391691
-0.395263
-0.403794
-0.415612
-0.429553
-0.444844
-0.461031
-0.477649
-0.494967
-0.511289
-0.529134
-0.543709
-0.56103
-0.572495
-0.392397
-0.387893
-0.391072
-0.398798
-0.409908
-0.423222
-0.43783
-0.45333
-0.469075
-0.485937
-0.501409
-0.519126
-0.533159
-0.550636
-0.562016
-0.389104
-0.384177
-0.386792
-0.393419
-0.403565
-0.416052
-0.429776
-0.444476
-0.459164
-0.475462
-0.490136
-0.507555
-0.521318
-0.538629
-0.550465
-0.385561
-0.380911
-0.382644
-0.387947
-0.396864
-0.408269
-0.420836
-0.434565
-0.448044
-0.463516
-0.477591
-0.494293
-0.508439
-0.52507
-0.537843
-0.38208
-0.378225
-0.378819
-0.38271
-0.390138
-0.400153
-0.411229
-0.423697
-0.435908
-0.450098
-0.463976
-0.479223
-0.494627
-0.510232
-0.524321
-0.378891
-0.376017
-0.375514
-0.378044
-0.383755
-0.39203
-0.401259
-0.412008
-0.423001
-0.435282
-0.449479
-0.462508
-0.479825
-0.494113
-0.510399
-0.376159
-0.374121
-0.372895
-0.374208
-0.378075
-0.384263
-0.39133
-0.399735
-0.409584
-0.419275
-0.434378
-0.444405
-0.464536
-0.476188
-0.496443
-0.373906
-0.372447
-0.371007
-0.371315
-0.373392
-0.377231
-0.381909
-0.38729
-0.395908
-0.402582
-0.41861
-0.426138
-0.449069
-0.457135
-0.482242
-0.372068
-0.370986
-0.369712
-0.369319
-0.369862
-0.371303
-0.373446
-0.37533
-0.382079
-0.386131
-0.401684
-0.408987
-0.433057
-0.440861
-0.46731
-0.370547
-0.369746
-0.36878
-0.368062
-0.367452
-0.36675
-0.36624
-0.364711
-0.368421
-0.370879
-0.382701
-0.392947
-0.415969
-0.426895
-0.454433
-0.369243
-0.368694
-0.36803
-0.367316
-0.365965
-0.363631
-0.360465
-0.356104
-0.355938
-0.357815
-0.365906
-0.378537
-0.398377
-0.414947
-0.438588
-0.368071
-0.367761
-0.367367
-0.366838
-0.365112
-0.361738
-0.356223
-0.34968
-0.346024
-0.346974
-0.353181
-0.366805
-0.383688
-0.405602
-0.421961
-0.366959
-0.366876
-0.366717
-0.366421
-0.364598
-0.360693
-0.353457
-0.345322
-0.339147
-0.3386
-0.344114
-0.357913
-0.373152
-0.394973
-0.410363
-0.365869
-0.365992
-0.366027
-0.365916
-0.364173
-0.360093
-0.351956
-0.342746
-0.335088
-0.333276
-0.337967
-0.351314
-0.365768
-0.384509
-0.400999
-0.364792
-0.365099
-0.36528
-0.365284
-0.363697
-0.35966
-0.351489
-0.341678
-0.333572
-0.330874
-0.334628
-0.346265
-0.359977
-0.376002
-0.392326
-0.363767
-0.364228
-0.364493
-0.364561
-0.363172
-0.359366
-0.351872
-0.34225
-0.333966
-0.330626
-0.333664
-0.342813
-0.355325
-0.36908
-0.384132
-0.36287
-0.363452
-0.363752
-0.363867
-0.362721
-0.359469
-0.353362
-0.344827
-0.335825
-0.332026
-0.333873
-0.340955
-0.351436
-0.363149
-0.376634
-0.362202
-0.362874
-0.363195
-0.363367
-0.362601
-0.360211
-0.355929
-0.348104
-0.338907
-0.334139
-0.334759
-0.339796
-0.348161
-0.357995
-0.369467
-0.361856
-0.362594
-0.362962
-0.363295
-0.362998
-0.36162
-0.359345
-0.351337
-0.342424
-0.336525
-0.335716
-0.338948
-0.345323
-0.353125
-0.362741
-0.361881
-0.36266
-0.363111
-0.363647
-0.363883
-0.363598
-0.361124
-0.354508
-0.345425
-0.338691
-0.33656
-0.338076
-0.342563
-0.348518
-0.35634
-0.362263
-0.363052
-0.363595
-0.364314
-0.365011
-0.366185
-0.36166
-0.356461
-0.347514
-0.340323
-0.337017
-0.33697
-0.339813
-0.344005
-0.350129
-0.362931
-0.363691
-0.364285
-0.365096
-0.36628
-0.366906
-0.36257
-0.357011
-0.348498
-0.341205
-0.336965
-0.335589
-0.336917
-0.339494
-0.344149
-0.363788
-0.364472
-0.365031
-0.365731
-0.367859
-0.365601
-0.363067
-0.35685
-0.348552
-0.34128
-0.336336
-0.333841
-0.333834
-0.334977
-0.338258
-0.364741
-0.365307
-0.365704
-0.36627
-0.368816
-0.364858
-0.362378
-0.355952
-0.347829
-0.340595
-0.335109
-0.331727
-0.330539
-0.330377
-0.332466
-0.365725
-0.366148
-0.366179
-0.367335
-0.367038
-0.365251
-0.361273
-0.354492
-0.346505
-0.339254
-0.333334
-0.329234
-0.326994
-0.325707
-0.326717
-0.366714
-0.366966
-0.366494
-0.368878
-0.364154
-0.364634
-0.359889
-0.352672
-0.344687
-0.337361
-0.331067
-0.326368
-0.323211
-0.320943
-0.320973
-0.367732
-0.367676
-0.367148
-0.369351
-0.363817
-0.363117
-0.35802
-0.35056
-0.342503
-0.335022
-0.328376
-0.323159
-0.319181
-0.316078
-0.315219
-0.368827
-0.368249
-0.368744
-0.36736
-0.365551
-0.361997
-0.355923
-0.348196
-0.340005
-0.332311
-0.325323
-0.319623
-0.314917
-0.31111
-0.309412
-0.370037
-0.368785
-0.3712
-0.364046
-0.365707
-0.360927
-0.353782
-0.345639
-0.337243
-0.329289
-0.321953
-0.315794
-0.310435
-0.306021
-0.303538
-0.371307
-0.369749
-0.373156
-0.363673
-0.364423
-0.359425
-0.351625
-0.342984
-0.334267
-0.325994
-0.318304
-0.311694
-0.305745
-0.300807
-0.297577
-0.372601
-0.371755
-0.372924
-0.367408
-0.363979
-0.35773
-0.349325
-0.340194
-0.331094
-0.32246
-0.3144
-0.307346
-0.300865
-0.295456
-0.291514
-0.373964
-0.375042
-0.370722
-0.371044
-0.364498
-0.356173
-0.346918
-0.337275
-0.327751
-0.31871
-0.310263
-0.302768
-0.295796
-0.289955
-0.285338
-0.375447
-0.379114
-0.367973
-0.371682
-0.36461
-0.354799
-0.34453
-0.334248
-0.324236
-0.314755
-0.305901
-0.297967
-0.290544
-0.284292
-0.279031
-0.377298
-0.382607
-0.368464
-0.370375
-0.363761
-0.353315
-0.342154
-0.33115
-0.320575
-0.310607
-0.301324
-0.292952
-0.285102
-0.278454
-0.272584
-0.379859
-0.384478
-0.373384
-0.369867
-0.362335
-0.351514
-0.339684
-0.327964
-0.316767
-0.306267
-0.296532
-0.287718
-0.279465
-0.272436
-0.265998
-0.383434
-0.38455
-0.380236
-0.371394
-0.361163
-0.349454
-0.337001
-0.324623
-0.312795
-0.301736
-0.291524
-0.282267
-0.273627
-0.266232
-0.259288
-0.388367
-0.383432
-0.385869
-0.374064
-0.360682
-0.347376
-0.334098
-0.321063
-0.308615
-0.296991
-0.286292
-0.276591
-0.267582
-0.259844
-0.25247
-0.394994
-0.383035
-0.389349
-0.376684
-0.36071
-0.345443
-0.331027
-0.317247
-0.304183
-0.292003
-0.280821
-0.270683
-0.261323
-0.253271
-0.245546
-0.403167
-0.386375
-0.391267
-0.378541
-0.360769
-0.343599
-0.327833
-0.313174
-0.299462
-0.286739
-0.275087
-0.264529
-0.254839
-0.246509
-0.238505
-0.412322
-0.394369
-0.393019
-0.379405
-0.360394
-0.34162
-0.324474
-0.308837
-0.294432
-0.28117
-0.269068
-0.258113
-0.248122
-0.239546
-0.231312
-0.42131
-0.405506
-0.395688
-0.37948
-0.359296
-0.339244
-0.320846
-0.30421
-0.289077
-0.275273
-0.262739
-0.251417
-0.241155
-0.232364
-0.223928
-0.428892
-0.416492
-0.3992
-0.379088
-0.357407
-0.336276
-0.316816
-0.299239
-0.283377
-0.26903
-0.256079
-0.24442
-0.23392
-0.224942
-0.21633
-0.433724
-0.424734
-0.402303
-0.378312
-0.354808
-0.332639
-0.312276
-0.293862
-0.277304
-0.262423
-0.24907
-0.237098
-0.226389
-0.217258
-0.208506
-0.435668
-0.429493
-0.404014
-0.376968
-0.351593
-0.328345
-0.30717
-0.288021
-0.270823
-0.255435
-0.241694
-0.229428
-0.218529
-0.209278
-0.200453
-0.435496
-0.431141
-0.404046
-0.374845
-0.347787
-0.323439
-0.301482
-0.281673
-0.263902
-0.248045
-0.23394
-0.22139
-0.210302
-0.200961
-0.19216
-0.43429
-0.430519
-0.402489
-0.371818
-0.34336
-0.317945
-0.295216
-0.274798
-0.256512
-0.240233
-0.225791
-0.212971
-0.201697
-0.192282
-0.183559
-0.432899
-0.42849
-0.399602
-0.367863
-0.338263
-0.311859
-0.288376
-0.267382
-0.248632
-0.231975
-0.217228
-0.204161
-0.192729
-0.183247
-0.174485
-0.43178
-0.425636
-0.39564
-0.363008
-0.332456
-0.305158
-0.280955
-0.259415
-0.240243
-0.223251
-0.208231
-0.194954
-0.183428
-0.173914
-0.164733
-0.43102
-0.422279
-0.390809
-0.357299
-0.325909
-0.297807
-0.272932
-0.250881
-0.231327
-0.214043
-0.198783
-0.185344
-0.173803
-0.164349
-0.154246
-0.430445
-0.418567
-0.385244
-0.350772
-0.318594
-0.289768
-0.264278
-0.241758
-0.22187
-0.20434
-0.188887
-0.175343
-0.163852
-0.154546
-0.143245
-0.42971
-0.414535
-0.379011
-0.343439
-0.310483
-0.280996
-0.254955
-0.232025
-0.211858
-0.194139
-0.178558
-0.164981
-0.153598
-0.14435
-0.132192
-0.428408
-0.410064
-0.372088
-0.335281
-0.301536
-0.271447
-0.244931
-0.221662
-0.201285
-0.183448
-0.167816
-0.15429
-0.1431
-0.133566
-0.121208
-0.426208
-0.404795
-0.364366
-0.326251
-0.291713
-0.261084
-0.234179
-0.210664
-0.190158
-0.172279
-0.156674
-0.14329
-0.132273
-0.12229
-0.110234
-0.422788
-0.39838
-0.355692
-0.316278
-0.280973
-0.249878
-0.222693
-0.199038
-0.178491
-0.160638
-0.145124
-0.131952
-0.121047
-0.110681
-0.0991755
-0.417877
-0.390575
-0.345907
-0.305286
-0.269283
-0.237825
-0.210489
-0.186802
-0.166281
-0.148501
-0.133165
-0.120243
-0.109404
-0.0988453
-0.0879738
-0.411251
-0.381209
-0.334869
-0.293207
-0.256622
-0.224944
-0.197585
-0.17393
-0.153498
-0.135875
-0.120795
-0.108147
-0.097373
-0.0868258
-0.076614
-0.402749
-0.370168
-0.322466
-0.279989
-0.243003
-0.211263
-0.18394
-0.1604
-0.140145
-0.12277
-0.108013
-0.0956666
-0.0850073
-0.0746222
-0.0650969
-0.392266
-0.357403
-0.308602
-0.265609
-0.228461
-0.196732
-0.169535
-0.146211
-0.126231
-0.109195
-0.0948256
-0.0828187
-0.0723447
-0.0622214
-0.0534377
-0.379754
-0.34294
-0.293207
-0.250069
-0.212957
-0.18133
-0.154374
-0.131373
-0.11177
-0.0951655
-0.0812485
-0.0696227
-0.0593997
-0.0496155
-0.0416419
-0.365201
-0.326856
-0.276269
-0.233339
-0.196436
-0.165067
-0.13847
-0.115903
-0.0967829
-0.0807004
-0.0673015
-0.0560974
-0.046176
-0.0367977
-0.0297316
-0.34863
-0.309202
-0.257903
-0.215326
-0.178885
-0.147958
-0.12185
-0.0998255
-0.0812911
-0.0658206
-0.0530042
-0.0422603
-0.0326869
-0.0237852
-0.0177531
-0.330096
-0.289876
-0.238231
-0.196083
-0.160323
-0.130027
-0.104541
-0.0831687
-0.06532
-0.050546
-0.0383693
-0.0281247
-0.0189677
-0.0106547
-0.00576572
-0.309702
-0.268618
-0.217428
-0.175741
-0.1408
-0.111305
-0.086576
-0.0659653
-0.0488965
-0.0348919
-0.0233992
-0.0136976
-0.0050726
0.00244949
0.00612688
-0.287592
-0.245334
-0.195534
-0.154435
-0.120391
-0.0918342
-0.0679925
-0.0482512
-0.0320484
-0.0188698
-0.00808916
0.00101808
0.00894209
0.015348
0.0176013
-0.26387
-0.220312
-0.172431
-0.132245
-0.0991822
-0.0716695
-0.0488341
-0.030065
-0.0148042
-0.00249194
0.00755952
0.0160059
0.0230225
0.0278623
0.028052
-0.238519
-0.194017
-0.148131
-0.109207
-0.0772497
-0.0508761
-0.0291512
-0.0114478
0.00280612
0.0142222
0.0235213
0.0312118
0.0370886
0.0398655
0.0372294
-0.211488
-0.166878
-0.12277
-0.0853506
-0.0546582
-0.0295221
-0.00899993
0.00755651
0.0207498
0.0312395
0.0397329
0.0465272
0.0510242
0.051496
0.0462888
-0.182957
-0.138976
-0.0965179
-0.0607403
-0.0314708
-0.0076759
0.01156
0.0269012
0.0389881
0.0485107
0.0561023
0.0618173
0.0647456
0.0633587
0.0578359
-0.153148
-0.110301
-0.0695167
-0.0354728
-0.00775825
0.0145936
0.0324669
0.0465355
0.0574734
0.0659719
0.0725388
0.0769992
0.0783278
0.0757614
0.0741219
-0.122278
-0.0808955
-0.0418864
-0.00965722
0.016398
0.0372152
0.0536575
0.0664037
0.0761482
0.083551
0.0889759
0.0920911
0.0920149
0.0889446
0.0900927
-0.0905362
-0.0508455
-0.0137376
0.0165965
0.0409089
0.0601143
0.075066
0.0864447
0.0949479
0.10118
0.105379
0.107168
0.105971
0.102866
0.105158
-0.0581042
-0.0202733
0.0148183
0.0431805
0.0656814
0.0832124
0.0966234
0.106593
0.113806
0.118803
0.121738
0.122269
0.120127
0.116985
0.119293
-0.0251521
0.0106858
0.0436655
0.0699882
0.0906209
0.106428
0.118257
0.126781
0.13266
0.136377
0.138046
0.137409
0.134458
0.131127
0.132768
0.0081524
0.0418898
0.072684
0.0969128
0.115632
0.129679
0.139894
0.14694
0.151451
0.153864
0.15428
0.152522
0.148772
0.145047
0.145853
0.0416464
0.0731971
0.101752
0.123847
0.14062
0.152879
0.161457
0.167002
0.170124
0.171225
0.170414
0.167584
0.163033
0.158744
0.158621
0.0751691
0.104467
0.130746
0.150684
0.16549
0.175944
0.18287
0.186901
0.188622
0.188414
0.186388
0.182493
0.177113
0.172193
0.171156
0.108563
0.135563
0.159545
0.177316
0.190146
0.198789
0.204059
0.206571
0.206892
0.205385
0.202169
0.197227
0.190995
0.185371
0.183417
0.141676
0.166349
0.188031
0.203638
0.214495
0.221332
0.224948
0.225947
0.224875
0.222081
0.217684
0.211701
0.20462
0.198292
0.195419
0.174357
0.196696
0.216086
0.229546
0.238445
0.243489
0.245467
0.244966
0.242517
0.238457
0.232901
0.225891
0.217952
0.210889
0.207108
0.206462
0.226475
0.243597
0.254939
0.261905
0.265181
0.265542
0.263563
0.259759
0.25445
0.247755
0.239741
0.230968
0.223177
0.218469
0.23785
0.255565
0.270455
0.279719
0.284787
0.286329
0.285106
0.281678
0.276548
0.27002
0.262212
0.253213
0.243613
0.235086
0.229466
0.268388
0.283846
0.296553
0.303791
0.307008
0.306858
0.304089
0.299249
0.292824
0.285108
0.276221
0.266274
0.255876
0.246612
0.240071
0.297946
0.311207
0.32179
0.327064
0.328486
0.326695
0.322427
0.31622
0.308542
0.299676
0.289741
0.278875
0.267701
0.257711
0.250259
0.326401
0.33754
0.34607
0.349451
0.349143
0.34577
0.340058
0.332531
0.323645
0.313672
0.302737
0.290995
0.279073
0.268357
0.260002
0.353639
0.362741
0.369301
0.370871
0.368904
0.364017
0.356923
0.348133
0.33809
0.327056
0.315163
0.302587
0.289948
0.278526
0.269281
0.379549
0.386716
0.391398
0.391245
0.387701
0.381374
0.372965
0.362973
0.35183
0.33979
0.326992
0.313626
0.300302
0.288187
0.278074
0.404029
0.409374
0.412278
0.410501
0.405469
0.397782
0.388132
0.377005
0.364822
0.351832
0.338183
0.324079
0.310108
0.297321
0.286362
0.426984
0.430632
0.431869
0.428571
0.422146
0.413187
0.402374
0.390185
0.377029
0.363152
0.34871
0.333917
0.319336
0.305904
0.294129
0.448327
0.450414
0.4501
0.445395
0.437677
0.427538
0.415647
0.402472
0.388413
0.373714
0.358541
0.343115
0.327964
0.313913
0.301361
0.467976
0.468652
0.466912
0.460915
0.452012
0.440789
0.427909
0.41383
0.398943
0.383492
0.36765
0.351645
0.335966
0.321333
0.308044
0.485859
0.485287
0.48225
0.475082
0.465104
0.4529
0.439124
0.424225
0.408588
0.392456
0.376012
0.359485
0.343324
0.328146
0.314171
0.501913
0.500265
0.496065
0.48785
0.476912
0.463833
0.449258
0.433628
0.417321
0.400583
0.383605
0.366615
0.35002
0.334343
0.319737
0.516092
0.513537
0.508313
0.499179
0.487401
0.473557
0.458283
0.442014
0.425122
0.407854
0.390412
0.37302
0.356043
0.339913
0.324736
0.528373
0.525046
0.518953
0.509034
0.49654
0.482043
0.466174
0.449361
0.43197
0.414252
0.396417
0.378685
0.361379
0.344849
0.329165
0.538727
0.534755
0.527952
0.517386
0.504304
0.489271
0.472912
0.455651
0.43785
0.419762
0.401605
0.383597
0.366017
0.349143
0.33302
0.547125
0.542639
0.535284
0.524215
0.510672
0.495221
0.478482
0.460872
0.442751
0.424373
0.405965
0.387741
0.369946
0.352791
0.336305
0.553545
0.548684
0.540933
0.529503
0.515633
0.499883
0.482872
0.465012
0.446662
0.428077
0.409489
0.391111
0.373159
0.355794
0.33903
0.557974
0.552881
0.54489
0.533243
0.519176
0.503249
0.486075
0.468067
0.44958
0.43087
0.412172
0.3937
0.375653
0.358156
0.341206
0.560405
0.555226
0.547152
0.535431
0.5213
0.505316
0.488091
0.470035
0.451503
0.432749
0.41401
0.395504
0.377425
0.359879
0.342838
0.560843
0.555725
0.547722
0.536072
0.522008
0.506087
0.488921
0.470919
0.452433
0.433719
0.41501
0.396529
0.37848
0.360962
0.343925
0.5593
0.554388
0.546611
0.535174
0.521309
0.50557
0.488572
0.470723
0.452377
0.433783
0.415175
0.396782
0.378823
0.361407
0.344461
0.555799
0.551235
0.543836
0.532753
0.519215
0.503778
0.487055
0.469459
0.451341
0.432949
0.414513
0.396269
0.37846
0.36122
0.344454
0.550371
0.546288
0.53942
0.52883
0.515747
0.500728
0.484387
0.467141
0.449339
0.431228
0.413032
0.394997
0.377396
0.360399
0.343903
0.543054
0.53958
0.533395
0.523434
0.51093
0.496442
0.480588
0.463785
0.446387
0.428635
0.410748
0.392978
0.375637
0.358948
0.342805
0.533895
0.53115
0.525797
0.516599
0.504796
0.490949
0.475681
0.459413
0.442503
0.425187
0.407676
0.390228
0.373198
0.356872
0.341158
0.522942
0.521048
0.516675
0.508365
0.497379
0.48428
0.469695
0.454053
0.437712
0.420905
0.403837
0.386768
0.370095
0.354183
0.338963
0.510237
0.509345
0.506082
0.49878
0.488722
0.476473
0.462664
0.447731
0.432037
0.415813
0.399252
0.382617
0.366347
0.350893
0.336226
0.495842
0.496108
0.494077
0.487895
0.478871
0.467568
0.454625
0.440482
0.425509
0.409936
0.393945
0.377797
0.361974
0.347017
0.332955
0.479834
0.481402
0.48072
0.475767
0.467877
0.457613
0.445619
0.432343
0.418161
0.403303
0.387941
0.372333
0.356996
0.342572
0.32916
0.462304
0.465302
0.466079
0.46246
0.455798
0.446658
0.435691
0.423352
0.410028
0.395946
0.381271
0.36625
0.351437
0.337575
0.324853
0.443345
0.44789
0.450227
0.448038
0.442692
0.434756
0.424889
0.413555
0.401148
0.3879
0.373965
0.359578
0.345321
0.332047
0.320047
0.423061
0.429255
0.433245
0.432576
0.428626
0.421967
0.413266
0.402997
0.391563
0.379201
0.366053
0.352345
0.338677
0.32601
0.314757
0.401561
0.409494
0.41522
0.41615
0.413668
0.408352
0.400878
0.391728
0.381318
0.369888
0.357576
0.344586
0.331533
0.319486
0.309001
0.378961
0.38871
0.396242
0.398843
0.397892
0.393978
0.387784
0.379802
0.37046
0.360005
0.348566
0.33633
0.323918
0.312505
0.302799
0.355385
0.367009
0.376409
0.380741
0.381376
0.378913
0.374045
0.367273
0.359036
0.349592
0.339065
0.327618
0.315869
0.305091
0.296171
0.330961
0.344506
0.355821
0.361935
0.364201
0.363231
0.359727
0.354199
0.347101
0.3387
0.329113
0.318482
0.307412
0.297272
0.289142
0.305825
0.321318
0.334585
0.34252
0.346451
0.347007
0.344896
0.34064
0.334705
0.327371
0.318751
0.308962
0.298591
0.289085
0.281735
0.280116
0.297568
0.31281
0.322593
0.328214
0.330317
0.329621
0.326659
0.321907
0.31566
0.308028
0.299099
0.289431
0.280549
0.273978
0.25398
0.273383
0.290609
0.302255
0.309578
0.313242
0.313973
0.312316
0.308761
0.303613
0.296982
0.288929
0.279978
0.271712
0.265897
0.227565
0.248894
0.268099
0.281609
0.290636
0.295863
0.298025
0.297677
0.295325
0.291288
0.285672
0.278505
0.270264
0.262586
0.257521
0.201026
0.224236
0.245398
0.260761
0.271481
0.278262
0.281849
0.282806
0.281656
0.278733
0.274137
0.267861
0.260327
0.253219
0.248879
0.174519
0.199545
0.222628
0.239815
0.252205
0.260523
0.265518
0.267767
0.267811
0.266001
0.262438
0.257062
0.250221
0.243625
0.23999
0.148205
0.17496
0.199908
0.218879
0.232904
0.242728
0.249107
0.252626
0.253844
0.253142
0.250615
0.246149
0.239983
0.233841
0.230883
0.122246
0.150623
0.177359
0.198058
0.21367
0.224961
0.232688
0.237446
0.239811
0.2402
0.238721
0.235193
0.229703
0.223901
0.22155
0.0968071
0.126669
0.155099
0.177458
0.194598
0.207303
0.216334
0.222292
0.225767
0.227219
0.226788
0.224232
0.219441
0.213861
0.211985
0.0720622
0.103228
0.133242
0.157185
0.175779
0.189832
0.200116
0.207228
0.211766
0.214237
0.214844
0.213318
0.20932
0.20388
0.20211
0.0481876
0.080404
0.111899
0.137343
0.1573
0.172623
0.1841
0.192318
0.197866
0.201297
0.202906
0.202453
0.199388
0.194129
0.191861
0.025383
0.0582665
0.0911872
0.118037
0.139241
0.155748
0.168352
0.17762
0.184125
0.188445
0.190988
0.191622
0.189688
0.18494
0.181199
0.00385355
0.03683
0.0712376
0.0993612
0.121678
0.139274
0.152931
0.16319
0.170598
0.175737
0.179117
0.180777
0.180114
0.176378
0.170396
-0.0161773
0.0161196
0.0521987
0.0813841
0.104674
0.12327
0.137897
0.149076
0.157333
0.16323
0.16734
0.169892
0.170489
0.168168
0.162282
-0.0347355
-0.0034834
0.0341998
0.064148
0.0882978
0.1078
0.123301
0.135323
0.144373
0.150975
0.155719
0.159
0.160694
0.160021
0.155527
-0.0518365
-0.0215523
0.0172644
0.0476986
0.0726246
0.092927
0.109193
0.121967
0.131748
0.13901
0.144318
0.14818
0.150736
0.151502
0.148773
-0.0673835
-0.0378237
0.00130359
0.0321174
0.057735
0.0787053
0.0956152
0.109045
0.119486
0.127364
0.133188
0.137517
0.140716
0.142572
0.14128
-0.0812482
-0.0523676
-0.013635
0.0175269
0.0436985
0.0651764
0.0826045
0.0965913
0.107613
0.116053
0.122356
0.127074
0.130743
0.133384
0.133155
-0.0933398
-0.0654001
-0.0273869
0.00404467
0.0305596
0.0523715
0.0701954
0.0846363
0.0961516
0.105092
0.111836
0.116892
0.120898
0.124094
0.124768
-0.103614
-0.0769944
-0.039836
-0.0082944
0.018332
0.0403151
0.0584181
0.0732089
0.0851238
0.0944921
0.101634
0.106987
0.111237
0.114833
0.116339
-0.112059
-0.0871071
-0.0508921
-0.0195699
0.00700657
0.0290267
0.0472973
0.0623326
0.0745495
0.0842672
0.091757
0.0973697
0.101795
0.105694
0.107954
-0.1187
-0.095684
-0.0605767
-0.0298022
-0.00346592
0.0185171
0.0368486
0.0520251
0.0644462
0.0744295
0.0822123
0.08805
0.0925897
0.0967191
0.0996612
-0.123606
-0.102727
-0.0689661
-0.0389978
-0.0130973
0.0087616
0.0270747
0.0422969
0.0548287
0.0649904
0.0730104
0.0790412
0.0836308
0.0879146
0.091482
-0.126898
-0.108305
-0.0761584
-0.0471834
-0.0218603
-0.00026368
0.0179505
0.0331483
0.0457083
0.0559592
0.0641588
0.0703572
0.0749363
0.0792663
0.083416
-0.12876
-0.112554
-0.0822701
-0.0544056
-0.0297501
-0.00853885
0.00945877
0.0245516
0.0370864
0.0473466
0.05566
0.0620049
0.0665466
0.0707587
0.0754466
-0.129425
-0.115672
-0.0874363
-0.0607228
-0.0367852
-0.016054
0.00161394
0.0165019
0.028927
0.039168
0.0475096
0.0539731
0.0584981
0.062411
0.0675424
-0.129183
-0.117942
-0.091792
-0.066195
-0.0429963
-0.0228199
-0.00557807
0.00901183
0.0212488
0.0313969
0.0396977
0.0462289
0.0507946
0.0543098
0.059643
-0.128333
-0.119677
-0.0954419
-0.0708703
-0.0484189
-0.0288642
-0.0121291
0.00208548
0.0140634
0.0240392
0.0322232
0.0387213
0.0434063
0.0465936
0.0516637
-0.127241
-0.121017
-0.0984228
-0.0747743
-0.0530893
-0.0342242
-0.0180647
-0.00428722
0.0073706
0.0171064
0.0251086
0.0315085
0.0362401
0.0393443
0.0435545
-0.126236
-0.12198
-0.100704
-0.0779079
-0.0570402
-0.0389408
-0.0234164
-0.0101248
0.00116234
0.0106048
0.018373
0.0246165
0.0293046
0.0323685
0.035576
-0.125507
-0.122473
-0.102184
-0.0802497
-0.0603031
-0.0430546
-0.0282136
-0.0154469
-0.00457395
0.00453059
0.012021
0.0180538
0.0226169
0.0255754
0.0280542
-0.125013
-0.12225
-0.102701
-0.0817734
-0.0629151
-0.0466023
-0.0324783
-0.0202698
-0.00985338
-0.00112841
0.00604553
0.0118204
0.0161955
0.0189956
0.0211025
-0.12439
-0.120802
-0.102037
-0.0824718
-0.0649261
-0.0496108
-0.0362223
-0.0246074
-0.0146939
-0.00638955
0.000434435
0.00591644
0.0100651
0.0126924
0.0146647
-0.122889
-0.117387
-0.0999965
-0.0823997
-0.0663907
-0.0520885
-0.0394491
-0.0284753
-0.0191167
-0.0112715
-0.00482429
0.000342484
0.0042483
0.00670066
0.00861547
-0.119462
-0.111214
-0.0965547
-0.0817056
-0.0673399
-0.0540176
-0.0421625
-0.0318983
-0.0231476
-0.0157927
-0.0097413
-0.004903
-0.00124784
0.00101688
0.00284621
-0.11365
-0.102039
-0.0921485
-0.0806079
-0.0677409
-0.0553681
-0.044386
-0.0349145
-0.0268143
-0.0199699
-0.0143275
-0.00982889
-0.00643323
-0.00438168
-0.00270505
-0.105869
-0.0910185
-0.0878752
-0.0792147
-0.0675032
-0.056148
-0.0461795
-0.0375737
-0.0301447
-0.0238189
-0.0185955
-0.0144497
-0.0113279
-0.00952031
-0.00806103
-0.0970694
-0.0808701
-0.0844364
-0.0773252
-0.0665844
-0.0564547
-0.04764
-0.0399271
-0.0331622
-0.027355
-0.0225608
-0.0187846
-0.0159532
-0.0144161
-0.0132253
-0.0884815
-0.0742918
-0.0815515
-0.0746651
-0.0651106
-0.0564765
-0.0488725
-0.0420153
-0.0358868
-0.0305966
-0.0262414
-0.0228511
-0.0203273
-0.0190813
-0.0181959
-0.0809915
-0.0719667
-0.0781249
-0.071222
-0.0634102
-0.056437
-0.0499527
-0.043861
-0.0383384
-0.0335656
-0.0296569
-0.0266655
-0.0244631
-0.0235232
-0.0229752
-0.0749776
-0.0724664
-0.0730976
-0.0674071
-0.0619334
-0.0564859
-0.0508969
-0.0454783
-0.0405451
-0.03629
-0.0328259
-0.030238
-0.0283693
-0.027751
-0.0275726
-0.0705606
-0.0727605
-0.0664904
-0.0640885
-0.0610388
-0.0566088
-0.0516779
-0.0468911
-0.0425446
-0.0387979
-0.0357648
-0.0335765
-0.0320488
-0.031769
-0.0320042
-0.0673843
-0.0717551
-0.0598858
-0.0624158
-0.0606571
-0.0566315
-0.0522859
-0.0481502
-0.04438
-0.0411148
-0.038484
-0.0366823
-0.0355021
-0.0355779
-0.0362774
-0.0651393
-0.0691252
-0.056793
-0.0622341
-0.0601477
-0.0564275
-0.0527872
-0.049318
-0.0460843
-0.0432569
-0.040991
-0.039555
-0.0387228
-0.0391694
-0.0403981
-0.0634595
-0.0653574
-0.0578951
-0.0615227
-0.0589658
-0.0560918
-0.0532922
-0.0504407
-0.0476774
-0.0452345
-0.0432859
-0.0421869
-0.0417031
-0.0425322
-0.0443587
-0.0620233
-0.0617226
-0.0603975
-0.0582869
-0.057268
-0.0558905
-0.0538587
-0.0515251
-0.0491686
-0.0470534
-0.0453674
-0.0445664
-0.0444259
-0.045649
-0.0481446
-0.0607263
-0.0593194
-0.0614052
-0.0535783
-0.0561123
-0.0559218
-0.0544421
-0.0525767
-0.0505734
-0.0487174
-0.0472228
-0.0466715
-0.0468724
-0.0485003
-0.0517178
-0.0595735
-0.0581401
-0.0603224
-0.0519915
-0.0559578
-0.0559605
-0.0550119
-0.0536283
-0.0519121
-0.050225
-0.0488359
-0.0484705
-0.0490079
-0.0510605
-0.0550442
-0.0585339
-0.0575881
-0.0580147
-0.0544487
-0.055215
-0.0558212
-0.0556965
-0.0547481
-0.0532039
-0.051565
-0.0501712
-0.0499186
-0.0507928
-0.0532939
-0.0580767
-0.0576265
-0.057147
-0.0563173
-0.0571921
-0.0532275
-0.0558323
-0.0565844
-0.0559659
-0.0544648
-0.0527188
-0.0511841
-0.0509524
-0.0521631
-0.0551656
-0.0607905
-0.0568174
-0.0566436
-0.0557318
-0.0576181
-0.0527545
-0.0563789
-0.05762
-0.0573048
-0.055708
-0.053645
-0.0518005
-0.0514981
-0.0530519
-0.0566233
-0.0631542
-0.0560185
-0.0560565
-0.0557303
-0.0566779
-0.0555798
-0.0566577
-0.0587235
-0.0588385
-0.0569388
-0.0542757
-0.0519271
-0.051457
-0.0533747
-0.0576262
-0.0651531
-0.0551494
-0.0554168
-0.0556988
-0.0563037
-0.0585833
-0.056661
-0.0601361
-0.0605895
-0.0581071
-0.0544935
-0.0514396
-0.0507346
-0.0530444
-0.0581023
-0.0667654
-0.054185
-0.0547164
-0.0554885
-0.0565222
-0.0591881
-0.0584111
-0.0617231
-0.0624747
-0.0591066
-0.0541415
-0.0501993
-0.0492087
-0.0519619
-0.057998
-0.0679667
-0.053142
-0.0539483
-0.0551016
-0.0567953
-0.059106
-0.0617914
-0.0630059
-0.064416
-0.0597057
-0.0530166
-0.0480704
-0.0467707
-0.0500044
-0.0572196
-0.0687483
-0.0521047
-0.053168
-0.0546038
-0.0567806
-0.0593142
-0.0636817
-0.064757
-0.0662179
-0.0594862
-0.0509405
-0.0449235
-0.0432658
-0.0470602
-0.0557041
-0.0690791
-0.0512345
-0.052517
-0.0541312
-0.0566092
-0.0595468
-0.0635282
-0.0675618
-0.0667993
-0.057968
-0.0478351
-0.0406584
-0.0385396
-0.0429924
-0.0533874
-0.0689775
-0.0507599
-0.0522237
-0.053961
-0.0565948
-0.0595859
-0.0631016
-0.0689194
-0.0653784
-0.0548493
-0.0437426
-0.0351015
-0.0324331
-0.0377806
-0.050235
-0.0684321
-0.0509246
-0.052551
-0.0544412
-0.0571862
-0.0599975
-0.0628925
-0.0668965
-0.0624234
-0.0500921
-0.0387619
-0.0280588
-0.024912
-0.0314468
-0.0463018
-0.0674955
-0.0519161
-0.0536855
-0.0558254
-0.0587749
-0.0614466
-0.063374
-0.0641314
-0.0581885
-0.0443243
-0.0328447
-0.0193541
-0.016345
-0.0242086
-0.0416798
-0.0662478
-0.0537258
-0.0556108
-0.0581188
-0.0613669
-0.0640767
-0.0650179
-0.0626524
-0.0535865
-0.0395609
-0.0254177
-0.00935792
-0.0075478
-0.0162936
-0.0368156
-0.0647652
-0.0561502
-0.0580603
-0.0609247
-0.0646908
-0.0674364
-0.0676485