/*--------------------------------*- C++ -*----------------------------------*\
  =========                 |
  \\      /  F ield         | OpenFOAM: The Open Source CFD Toolbox
   \\    /   O peration     | Website:  https://openfoam.org
    \\  /    A nd           | Version:  7
     \\/     M anipulation  |
\*---------------------------------------------------------------------------*/
FoamFile
{
    version     2.0;
    format      ascii;
    class       surfaceScalarField;
    location    "37.9995";
    object      phi;
}
// * * * * * * * * * * * * * * * * * * * * * * * * * * * * * * * * * * * * * //

dimensions      [0 3 -1 0 0 0 0];

internalField   nonuniform List<scalar> 
37105
(
-6.26118e-06
4.41313e-05
-3.78701e-05
-1.56491e-05
5.35803e-05
-4.41924e-05
-2.56546e-05
4.60948e-05
-3.60893e-05
-3.61599e-05
3.60251e-05
-2.55198e-05
-4.73164e-05
2.44129e-05
-1.32564e-05
-5.92291e-05
1.106e-05
8.52676e-07
-7.20437e-05
-4.02998e-06
1.68445e-05
-8.59101e-05
-2.0904e-05
3.47704e-05
-0.000100987
-3.95586e-05
5.46358e-05
-0.000117444
-5.99639e-05
7.64209e-05
-0.000135454
-8.20495e-05
0.000100059
-0.00015518
-0.000105686
0.000125412
-0.000176777
-0.000130698
0.000152295
-0.000200396
-0.000156837
0.000180456
-0.000183712
0.000209571
-0.000226255
-5.92978e-06
5.0061e-05
-1.49929e-05
6.26434e-05
-2.47006e-05
5.58025e-05
-3.48941e-05
4.62186e-05
-4.57072e-05
3.52261e-05
-5.72615e-05
2.26143e-05
-6.96623e-05
8.37081e-06
-8.30717e-05
-7.49453e-06
-9.76454e-05
-2.49848e-05
-0.000113555
-4.40544e-05
-0.000130976
-6.46281e-05
-0.000150091
-8.65714e-05
-0.000171088
-0.000109701
-0.000194154
-0.000133771
-0.00015845
-0.000219416
-5.5211e-06
5.55821e-05
-1.41649e-05
7.12872e-05
-2.34982e-05
6.51358e-05
-3.33044e-05
5.60249e-05
-4.37015e-05
4.56231e-05
-5.47952e-05
3.3708e-05
-6.67195e-05
2.02951e-05
-7.95609e-05
5.34683e-06
-9.35117e-05
-1.1034e-05
-0.000108729
-2.8837e-05
-0.000125385
-4.79722e-05
-0.000143663
-6.82937e-05
-0.000163762
-8.96023e-05
-0.000185866
-0.000111667
-0.000134227
-0.000210089
-5.02725e-06
6.06094e-05
-1.31717e-05
7.94316e-05
-2.2063e-05
7.40271e-05
-3.14164e-05
6.53783e-05
-4.13302e-05
5.55369e-05
-5.18992e-05
4.42769e-05
-6.32372e-05
3.16332e-05
-7.54786e-05
1.75882e-05
-8.86932e-05
2.18054e-06
-0.000103112
-1.44182e-05
-0.000118871
-3.22128e-05
-0.000136145
-5.10198e-05
-0.000155124
-7.06236e-05
-0.000175983
-9.08085e-05
-0.000111355
-0.000198854
-4.44722e-06
6.50566e-05
-1.20204e-05
8.70048e-05
-2.04105e-05
8.24172e-05
-2.92543e-05
7.42221e-05
-3.86279e-05
6.49104e-05
-4.86141e-05
5.42632e-05
-5.93114e-05
4.23305e-05
-7.08316e-05
2.91084e-05
-8.33124e-05
1.46613e-05
-9.68272e-05
-9.03292e-07
-0.000111594
-1.74463e-05
-0.000127751
-3.48625e-05
-0.000145465
-5.29096e-05
-0.000164903
-7.13708e-05
-9.00561e-05
-0.000186202
-3.78869e-06
6.88453e-05
-1.07202e-05
9.39364e-05
-1.85561e-05
9.02531e-05
-2.6842e-05
8.2508e-05
-3.56269e-05
7.36953e-05
-4.49832e-05
6.36195e-05
-5.49952e-05
5.23425e-05
-6.57569e-05
3.98701e-05
-7.73905e-05
2.62948e-05
-9.00006e-05
1.17068e-05
-0.000103704
-3.74262e-06
-0.000118673
-1.98941e-05
-0.000135041
-3.65417e-05
-0.000152961
-5.34504e-05
-7.04582e-05
-0.000172559
-3.058e-06
7.19033e-05
-9.27977e-06
0.000100158
-1.65153e-05
9.74886e-05
-2.42028e-05
9.01955e-05
-3.23589e-05
8.18514e-05
-4.10463e-05
7.23069e-05
-5.03356e-05
6.16319e-05
-6.03072e-05
4.98417e-05
-7.10575e-05
3.70451e-05
-8.26986e-05
2.3348e-05
-9.53299e-05
8.88864e-06
-0.000109066
-6.15818e-06
-0.000124049
-2.15584e-05
-0.000140407
-3.70924e-05
-5.26191e-05
-0.000158246
-2.25878e-06
7.41621e-05
-7.70667e-06
0.000105606
-1.43041e-05
0.000104086
-2.13592e-05
9.72507e-05
-2.88543e-05
8.93465e-05
-3.68422e-05
8.02948e-05
-4.53801e-05
7.01698e-05
-5.45341e-05
5.89957e-05
-6.43844e-05
4.68954e-05
-7.5022e-05
3.39856e-05
-8.65515e-05
2.04181e-05
-9.90579e-05
6.34829e-06
-0.000112637
-7.97905e-06
-0.000127417
-2.23126e-05
-3.65573e-05
-0.000143479
-1.38966e-06
7.55517e-05
-6.015e-06
0.000110231
-1.19388e-05
0.00011001
-1.83324e-05
0.000103644
-2.51412e-05
9.61554e-05
-3.2407e-05
8.75605e-05
-4.01727e-05
7.79355e-05
-4.84909e-05
6.73139e-05
-5.74255e-05
5.583e-05
-6.70521e-05
4.36122e-05
-7.74555e-05
3.08216e-05
-8.87213e-05
1.7614e-05
-0.000100916
4.21586e-06
-0.00011411
-9.11895e-06
-2.22792e-05
-0.000128388
-4.29868e-07
7.59816e-05
-4.2259e-06
0.000114027
-9.43507e-06
0.000115219
-1.51423e-05
0.000109351
-2.12458e-05
0.000102259
-2.7773e-05
9.40878e-05
-3.47525e-05
8.4915e-05
-4.22229e-05
7.47843e-05
-5.02325e-05
6.38395e-05
-5.88403e-05
5.222e-05
-6.8117e-05
4.00984e-05
-7.81329e-05
2.76299e-05
-8.8938e-05
1.5021e-05
-0.00010056
2.50293e-06
-9.80086e-06
-0.000113038
5.06852e-07
7.54748e-05
-2.36705e-06
0.000116901
-6.80601e-06
0.000119658
-1.1808e-05
0.000114353
-1.71926e-05
0.000107644
-2.29709e-05
9.9866e-05
-2.91552e-05
9.10994e-05
-3.57711e-05
8.14003e-05
-4.28514e-05
7.09197e-05
-5.04376e-05
5.98062e-05
-5.85826e-05
4.82433e-05
-6.73464e-05
3.63937e-05
-7.67635e-05
2.44381e-05
-8.68094e-05
1.25488e-05
8.55916e-07
-9.74662e-05
1.41589e-06
7.40589e-05
-4.45822e-07
0.000118763
-4.06827e-06
0.00012328
-8.34929e-06
0.000118634
-1.30049e-05
0.000112299
-1.80287e-05
0.00010489
-2.34133e-05
9.6484e-05
-2.9172e-05
8.7159e-05
-3.53217e-05
7.70695e-05
-4.18873e-05
6.63718e-05
-4.89007e-05
5.52567e-05
-5.64064e-05
4.38994e-05
-6.44389e-05
3.24706e-05
-7.29062e-05
2.10161e-05
9.63486e-06
-8.16851e-05
2.38206e-06
7.16768e-05
1.57327e-06
0.000119572
-1.25427e-06
0.000126108
-4.78463e-06
0.000122165
-8.70418e-06
0.000116219
-1.29741e-05
0.00010916
-1.75575e-05
0.000101067
-2.246e-05
9.20615e-05
-2.76806e-05
8.22901e-05
-3.32284e-05
7.19195e-05
-3.9113e-05
6.11414e-05
-4.53512e-05
5.01376e-05
-5.19876e-05
3.9107e-05
-5.89268e-05
2.79553e-05
1.64008e-05
-6.56928e-05
3.36807e-06
6.83088e-05
3.65683e-06
0.000119283
1.67223e-06
0.000128093
-1.13991e-06
0.000124977
-4.31563e-06
0.000119394
-7.83438e-06
0.000112678
-1.16166e-05
0.00010485
-1.56685e-05
9.61133e-05
-1.99633e-05
8.65849e-05
-2.44966e-05
7.64528e-05
-2.92598e-05
6.59046e-05
-3.42329e-05
5.51107e-05
-3.94379e-05
4.43119e-05
-4.49197e-05
3.34372e-05
2.12278e-05
-4.97467e-05
4.3447e-06
6.39641e-05
5.77703e-06
0.000117851
4.71277e-06
0.000129157
2.61021e-06
0.000127079
6.37636e-08
0.000121941
-2.64203e-06
0.000115384
-5.62158e-06
0.000107829
-8.82938e-06
9.93211e-05
-1.22024e-05
8.99579e-05
-1.57227e-05
7.99731e-05
-1.93667e-05
6.95486e-05
-2.30862e-05
5.88303e-05
-2.67667e-05
4.79923e-05
-3.08609e-05
3.75314e-05
2.43329e-05
-3.3966e-05
5.28187e-06
5.86822e-05
7.89908e-06
0.000115233
7.77583e-06
0.00012928
6.45269e-06
0.000128403
4.674e-06
0.00012372
2.60303e-06
0.000117455
3.45542e-07
0.000110087
-1.98145e-06
0.000101648
-4.43412e-06
9.24105e-05
-6.94345e-06
8.24825e-05
-9.4656e-06
7.20708e-05
-1.2001e-05
6.13656e-05
-1.41836e-05
5.0175e-05
-1.67738e-05
4.01215e-05
2.60219e-05
-1.84628e-05
6.13994e-06
5.25422e-05
9.97878e-06
0.000111395
1.08494e-05
0.000128409
1.03066e-05
0.000128945
9.24318e-06
0.000124783
7.91878e-06
0.00011878
6.45176e-06
0.000111554
4.88261e-06
0.000103217
3.30452e-06
9.39886e-05
1.78045e-06
8.40065e-05
3.61109e-07
7.34901e-05
-8.98279e-07
6.2625e-05
-1.91575e-06
5.11925e-05
-2.52884e-06
4.07346e-05
2.70625e-05
-3.56944e-06
6.86798e-06
4.56743e-05
1.19626e-05
0.0001063
1.3895e-05
0.000126477
1.416e-05
0.00012868
1.38066e-05
0.000125136
1.31967e-05
0.00011939
1.24801e-05
0.00011227
1.17297e-05
0.000103968
1.10409e-05
9.46775e-05
1.04968e-05
8.45506e-05
1.01988e-05
7.37881e-05
1.00852e-05
6.27387e-05
1.05185e-05
5.07592e-05
1.12131e-05
4.004e-05
2.65476e-05
1.1728e-05
7.40396e-06
3.82703e-05
1.37848e-05
9.99192e-05
1.68599e-05
0.000123402
1.79804e-05
0.00012756
1.83393e-05
0.000124777
1.84301e-05
0.000119299
1.8444e-05
0.000112256
1.84881e-05
0.000103924
1.86692e-05
9.44964e-05
1.90828e-05
8.41369e-05
1.99027e-05
7.29683e-05
2.09242e-05
6.17172e-05
2.28389e-05
4.88444e-05
2.49425e-05
3.79364e-05
2.45367e-05
2.69534e-05
7.67704e-06
3.05933e-05
1.53679e-05
9.22283e-05
1.96776e-05
0.000119092
2.17191e-05
0.000125518
2.281e-05
0.000123687
2.35899e-05
0.000118519
2.43148e-05
0.000111531
2.51313e-05
0.000103107
2.61678e-05
9.34599e-05
2.74993e-05
8.28054e-05
2.94616e-05
7.1006e-05
3.15983e-05
5.95805e-05
3.49191e-05
4.55236e-05
3.87214e-05
3.41342e-05
2.08828e-05
4.23753e-05
7.61895e-06
2.29743e-05
1.66244e-05
8.32228e-05
2.22634e-05
0.000113453
2.53132e-05
0.000122469
2.71751e-05
0.000121825
2.86401e-05
0.000117054
3.00575e-05
0.000110114
3.16186e-05
0.000101546
3.35032e-05
9.15752e-05
3.56982e-05
8.06105e-05
3.883e-05
6.78743e-05
4.20792e-05
5.63313e-05
4.66794e-05
4.09234e-05
5.22942e-05
2.85194e-05
1.52169e-05
5.796e-05
7.18952e-06
1.57848e-05
1.74584e-05
7.29539e-05
2.4511e-05
0.000106401
2.86814e-05
0.000118298
3.13769e-05
0.000119129
3.35364e-05
0.000114894
3.56299e-05
0.00010802
3.78983e-05
9.92777e-05
4.06338e-05
8.88398e-05
4.36337e-05
7.76106e-05
4.79221e-05
6.35859e-05
5.23811e-05
5.18722e-05
5.80921e-05
3.52124e-05
6.52896e-05
2.13218e-05
6.91032e-06
7.35962e-05
6.40873e-06
9.37607e-06
1.77667e-05
6.1596e-05
2.62937e-05
9.78736e-05
3.17195e-05
0.000112872
3.53398e-05
0.000115509
3.82195e-05
0.000112015
4.09822e-05
0.000105258
4.39055e-05
9.63544e-05
4.74992e-05
8.5246e-05
5.12707e-05
7.38392e-05
5.65868e-05
5.82697e-05
6.2446e-05
4.6013e-05
6.93729e-05
2.82855e-05
7.75069e-05
1.31878e-05
-4.36714e-06
8.87844e-05
5.36648e-06
4.00959e-06
1.74457e-05
4.95168e-05
2.74703e-05
8.7849e-05
3.42967e-05
0.000106046
3.89607e-05
0.000110845
4.26073e-05
0.000108368
4.60528e-05
0.000101812
4.95736e-05
9.28336e-05
5.40021e-05
8.08175e-05
5.86119e-05
6.92294e-05
6.46771e-05
5.22046e-05
7.19262e-05
3.87639e-05
8.06632e-05
1.95485e-05
8.92794e-05
4.57163e-06
-1.82265e-05
0.000103139
4.19266e-06
-1.83072e-07
1.64153e-05
3.72942e-05
2.78951e-05
7.63692e-05
3.62507e-05
9.76904e-05
4.20994e-05
0.000104996
4.65856e-05
0.000103882
5.07538e-05
9.7644e-05
5.48434e-05
8.87441e-05
5.99779e-05
7.5683e-05
6.5632e-05
6.35752e-05
7.22622e-05
4.55744e-05
8.04446e-05
3.05815e-05
9.13684e-05
8.62467e-06
0.000100809
-4.86926e-06
-3.39684e-05
0.000116551
3.03189e-06
-3.21496e-06
1.46776e-05
2.56484e-05
2.74349e-05
6.3612e-05
3.73856e-05
8.77397e-05
4.45688e-05
9.7813e-05
4.99963e-05
9.84543e-05
5.49433e-05
9.2697e-05
5.96642e-05
8.40232e-05
6.52272e-05
7.012e-05
7.20736e-05
5.67288e-05
7.94421e-05
3.82059e-05
8.82079e-05
2.18156e-05
0.000100662
-3.8298e-06
0.000111505
-1.57116e-05
-5.104e-05
0.000128576
1.97942e-06
-5.19438e-06
1.2367e-05
1.52609e-05
2.59844e-05
4.99946e-05
3.74788e-05
7.62453e-05
4.61282e-05
8.91636e-05
5.26306e-05
9.19519e-05
5.83937e-05
8.69339e-05
6.39457e-05
7.84712e-05
6.96529e-05
6.44127e-05
7.75486e-05
4.88332e-05
8.56894e-05
3.00651e-05
9.55782e-05
1.19269e-05
0.000108225
-1.64771e-05
0.000120889
-2.83751e-05
-6.87266e-05
0.000138576
1.15304e-06
-6.34742e-06
9.74755e-06
6.66636e-06
2.35004e-05
3.62418e-05
3.63122e-05
6.34334e-05
4.64878e-05
7.8988e-05
5.42323e-05
8.42073e-05
6.07824e-05
8.03838e-05
6.74332e-05
7.18204e-05
7.32014e-05
5.86445e-05
8.20757e-05
3.99588e-05
8.99258e-05
2.22151e-05
0.000102439
-5.86287e-07
0.000113271
-2.73094e-05
0.000129108
-4.42116e-05
-8.58291e-05
0.00014621
5.96884e-07
-6.9443e-06
7.1828e-06
8.04434e-08
2.00809e-05
2.33437e-05
3.37373e-05
4.9777e-05
4.53315e-05
6.73938e-05
5.44874e-05
7.50514e-05
6.17413e-05
7.31299e-05
6.96579e-05
6.39038e-05
7.5549e-05
5.27534e-05
8.56022e-05
2.99056e-05
9.23852e-05
1.5432e-05
0.000107889
-1.609e-05
0.000115743
-3.51631e-05
0.0001357
-6.4169e-05
-0.000101461
0.000151332
2.68397e-07
-7.2127e-06
4.99428e-06
-4.64544e-06
1.60736e-05
1.22644e-05
2.97816e-05
3.60691e-05
4.23989e-05
5.47765e-05
5.30031e-05
6.44471e-05
6.09166e-05
6.52165e-05
6.99312e-05
5.48892e-05
7.65421e-05
4.61425e-05
8.71443e-05
1.93035e-05
9.4126e-05
8.4504e-06
0.000111356
-3.33199e-05
0.000116539
-4.03462e-05
0.000140563
-8.81931e-05
-0.000113997
0.000153099
9.97556e-08
-7.31245e-06
3.31988e-06
-7.86556e-06
1.20415e-05
3.54271e-06
2.47551e-05
2.33555e-05
3.76551e-05
4.18766e-05
4.93761e-05
5.27261e-05
5.81283e-05
5.64644e-05
6.74452e-05
4.55723e-05
7.54873e-05
3.81004e-05
8.54615e-05
9.3292e-06
9.40529e-05
-1.40948e-07
0.000110308
-4.9575e-05
0.000114936
-4.49744e-05
0.000143853
-0.00011711
-0.000108595
0.000138451
3.72148e-08
-7.34967e-06
2.17612e-06
-1.00045e-05
8.51361e-06
-2.79478e-06
1.92416e-05
1.26274e-05
3.14485e-05
2.96697e-05
4.34056e-05
4.0769e-05
5.3098e-05
4.67719e-05
6.19436e-05
3.67267e-05
7.111e-05
2.89341e-05
7.94138e-05
1.02535e-06
8.97432e-05
-1.04703e-05
9.93216e-05
-5.91534e-05
0.000109294
-5.49463e-05
0.000132555
-0.000140372
-0.000111606
0.000135566
3.03055e-08
-7.37997e-06
1.42391e-06
-1.13981e-05
5.71615e-06
-7.08702e-06
1.38963e-05
4.44732e-06
2.44482e-05
1.91178e-05
3.54606e-05
2.97566e-05
4.54975e-05
3.6735e-05
5.37657e-05
2.84585e-05
6.25677e-05
2.01321e-05
6.99628e-05
-6.3698e-06
7.94774e-05
-1.99849e-05
8.35644e-05
-6.32404e-05
0.000101143
-7.25254e-05
0.000115523
-0.000154752
-0.000153399
0.000157316
2.35619e-08
-7.40353e-06
8.49714e-07
-1.22242e-05
3.5152e-06
-9.75251e-06
9.12351e-06
-1.16099e-06
1.73276e-05
1.09137e-05
2.63585e-05
2.07257e-05
3.55907e-05
2.75027e-05
4.31947e-05
2.08545e-05
5.07101e-05
1.26166e-05
5.73002e-05
-1.29598e-05
6.64046e-05
-2.90892e-05
7.53202e-05
-7.21561e-05
0.000105639
-0.000102844
0.000136019
-0.000185132
-0.000219966
0.000202586
-4.60571e-08
-7.35748e-06
2.43427e-07
-1.25137e-05
1.58216e-06
-1.10912e-05
4.905e-06
-4.48383e-06
1.04657e-05
5.35294e-06
1.699e-05
1.42015e-05
2.43111e-05
2.01816e-05
3.06197e-05
1.45459e-05
3.69046e-05
6.33173e-06
4.25464e-05
-1.86017e-05
5.66922e-05
-4.3235e-05
8.08766e-05
-9.63405e-05
0.00012811
-0.000150078
0.000175962
-0.000232984
-0.00027704
0.000233036
-2.19399e-07
-7.13808e-06
-5.36706e-07
-1.21964e-05
-4.08131e-07
-1.12198e-05
9.67056e-07
-5.85901e-06
3.91208e-06
2.40792e-06
7.81868e-06
1.02949e-05
1.25542e-05
1.54461e-05
1.70833e-05
1.00169e-05
2.29806e-05
4.34381e-07
3.27759e-05
-2.8397e-05
6.13264e-05
-7.17854e-05
0.000103817
-0.000138831
0.000160226
-0.000206487
0.000202611
-0.000275368
-0.000315049
0.000240619
-5.15991e-07
-6.62209e-06
-1.53084e-06
-1.11816e-05
-2.50301e-06
-1.02477e-05
-2.90315e-06
-5.45887e-06
-2.34901e-06
1.85378e-06
-8.68598e-07
8.81446e-06
1.25366e-06
1.33238e-05
4.69072e-06
6.57985e-06
1.44821e-05
-9.35703e-06
3.86644e-05
-5.25792e-05
8.38097e-05
-0.000116931
0.000135371
-0.000190392
0.000183525
-0.000254642
0.000215435
-0.000307278
-0.000346023
0.00024641
-9.08556e-07
-5.71353e-06
-2.6816e-06
-9.40852e-06
-4.73617e-06
-8.19307e-06
-6.65439e-06
-3.54065e-06
-8.0362e-06
3.23559e-06
-8.81654e-06
9.5948e-06
-7.99848e-06
1.25057e-05
-1.9583e-06
5.39675e-07
1.9384e-05
-3.06993e-05
6.10002e-05
-9.41955e-05
0.000113323
-0.000169254
0.000159154
-0.000236223
0.000195464
-0.000290952
0.000222881
-0.000334696
-0.000368412
0.00024527
-1.32925e-06
-4.38428e-06
-3.82132e-06
-6.91645e-06
-6.80417e-06
-5.21022e-06
-9.86473e-06
-4.80091e-07
-1.2468e-05
5.83882e-06
-1.39169e-05
1.10437e-05
-1.15375e-05
1.01263e-05
2.80482e-06
-1.38026e-05
3.91276e-05
-6.7022e-05
8.91589e-05
-0.000144227
0.000135992
-0.000216087
0.000173218
-0.000273449
0.000202418
-0.000320152
0.000223806
-0.000356084
-0.000385944
0.000241337
-1.68459e-06
-2.69968e-06
-4.72011e-06
-3.88093e-06
-8.29985e-06
-1.63049e-06
-1.18551e-05
3.0752e-06
-1.45556e-05
8.53927e-06
-1.46176e-05
1.11058e-05
-7.24289e-06
2.7516e-06
1.94445e-05
-4.049e-05
6.54673e-05
-0.000113045
0.000112336
-0.000191095
0.000151075
-0.000254826
0.000181588
-0.000303963
0.000204256
-0.000342819
0.000221524
-0.000373353
-0.000401161
0.000236742
-1.88751e-06
-8.12171e-07
-5.17573e-06
-5.92716e-07
-8.8724e-06
2.06618e-06
-1.21713e-05
6.37409e-06
-1.38238e-05
1.01918e-05
-1.10079e-05
8.2899e-06
4.65389e-06
-1.29102e-05
4.22338e-05
-7.80699e-05
8.86464e-05
-0.000159457
0.000128937
-0.000231386
0.000160779
-0.000286668
0.000184877
-0.00032806
0.000203014
-0.000360956
0.000217701
-0.00038804
-0.000413732
0.000230272
-1.8927e-06
1.08053e-06
-5.10181e-06
2.61639e-06
-8.4454e-06
5.40977e-06
-1.08427e-05
8.77142e-06
-1.06148e-05
9.96388e-06
-4.1e-06
1.77506e-06
2.15191e-05
-3.85293e-05
6.46979e-05
-0.000121249
0.000106263
-0.000201022
0.000140259
-0.000265382
0.000165732
-0.000312141
0.000184996
-0.000347324
0.000200006
-0.000375967
0.000212209
-0.000400242
-0.000425323
0.000223799
-1.7111e-06
2.79163e-06
-4.55412e-06
5.45941e-06
-7.19113e-06
8.04678e-06
-8.34258e-06
9.92287e-06
-6.08588e-06
7.70719e-06
6.35842e-06
-1.06692e-05
4.09472e-05
-7.31181e-05
8.30346e-05
-0.000163336
0.000119233
-0.000237221
0.000146978
-0.000293127
0.000167403
-0.000332565
0.000183062
-0.000362983
0.00019534
-0.000388246
0.000206371
-0.000411273
-0.00043592
0.000216968
-1.39918e-06
4.19081e-06
-3.69144e-06
7.75167e-06
-5.45145e-06
9.80679e-06
-5.22219e-06
9.69361e-06
-1.1823e-06
3.6673e-06
1.93718e-05
-3.12233e-05
5.97424e-05
-0.000113489
9.74678e-05
-0.000201062
0.000127759
-0.000267512
0.00015024
-0.000315609
0.000166661
-0.000348987
0.000179398
-0.00037572
0.000190153
-0.000399001
0.000200097
-0.000421216
-0.000445565
0.000209742
-1.03558e-06
5.2264e-06
-2.70782e-06
9.42391e-06
-3.58637e-06
1.06853e-05
-2.24658e-06
8.35382e-06
5.43742e-06
-4.0167e-06
3.43438e-05
-6.01297e-05
7.4659e-05
-0.000153804
0.000107887
-0.00023429
0.000132864
-0.000292488
0.000150864
-0.000333609
0.000164108
-0.00036223
0.000175014
-0.000386626
0.000184383
-0.00040837
0.000193458
-0.000430292
-0.000454754
0.000202647
-6.95508e-07
5.9219e-06
-1.77932e-06
1.05077e-05
-1.81909e-06
1.07251e-05
-9.27556e-09
6.54401e-06
1.40995e-05
-1.81255e-05
5.00148e-05
-9.6045e-05
8.63746e-05
-0.000190164
0.000114761
-0.000262676
0.000135093
-0.00031282
0.000149519
-0.000348035
0.000160537
-0.000373248
0.000169842
-0.000395932
0.000178282
-0.000416809
0.000186879
-0.00043889
-0.000463198
0.000195324
-4.35488e-07
6.35739e-06
-1.01092e-06
1.10832e-05
-4.1237e-07
1.01265e-05
2.94541e-06
3.18623e-06
2.44257e-05
-3.96057e-05
6.3031e-05
-0.00013465
9.51461e-05
-0.000222279
0.000118691
-0.000286221
0.000135157
-0.000329286
0.000146878
-0.000359756
0.000156082
-0.000382451
0.00016435
-0.000404201
0.000172126
-0.000424584
0.000180031
-0.000446795
-0.00047109
0.000187923
-2.86156e-07
6.64355e-06
-3.88128e-07
1.11851e-05
3.04657e-07
9.43376e-06
7.48495e-06
-3.99407e-06
3.68756e-05
-6.89964e-05
7.28188e-05
-0.000170593
0.000100851
-0.000250311
0.000120275
-0.000305645
0.000133596
-0.000342607
0.000143196
-0.000369356
0.000151203
-0.000390458
0.000158608
-0.000411606
0.000165699
-0.000431675
0.000173191
-0.000454287
-0.000478499
0.000180599
-2.3354e-07
6.87709e-06
2.6438e-08
1.09252e-05
7.3835e-07
8.72185e-06
1.38811e-05
-1.71368e-05
4.88802e-05
-0.000103996
8.05394e-05
-0.000202253
0.000104111
-0.000273883
0.000120012
-0.000321546
0.000130846
-0.000353442
0.000138934
-0.000377444
0.000145951
-0.000397474
0.000152647
-0.000418302
0.000159318
-0.000438347
0.000166295
-0.000461264
-0.00048526
0.000173057
-2.36972e-07
7.11406e-06
1.45348e-07
1.05428e-05
1.90558e-06
6.96162e-06
2.17807e-05
-3.70119e-05
5.78671e-05
-0.000140082
8.58864e-05
-0.000230272
0.000105387
-0.000293383
0.000118322
-0.000334481
0.000127262
-0.000362382
0.000134166
-0.000384347
0.000140474
-0.000403782
0.000146641
-0.000424469
0.000152792
-0.000444498
0.000159275
-0.000467748
-0.000491617
0.000165632
-1.93134e-07
7.3072e-06
-2.76525e-08
1.03774e-05
4.93583e-06
1.99814e-06
3.16491e-05
-6.37252e-05
6.43826e-05
-0.000172816
8.89963e-05
-0.000254886
0.000105153
-0.00030954
0.000115658
-0.000344987
0.00012309
-0.000369813
0.00012914
-0.000390398
0.000134866
-0.000409507
0.000140487
-0.00043009
0.000146248
-0.000450259
0.000152305
-0.000473805
-0.000497398
0.000158087
-1.58066e-07
7.46526e-06
-2.66344e-07
1.04856e-05
9.44613e-06
-7.71434e-06
4.10455e-05
-9.53246e-05
6.95264e-05
-0.000201296
9.0215e-05
-0.000275574
0.000103571
-0.000322896
0.000112208
-0.000353624
0.000118525
-0.00037613
0.00012389
-0.000395763
0.000129112
-0.00041473
0.000134322
-0.0004353
0.000139667
-0.000455604
0.000145191
-0.000479329
-0.000502741
0.000150534
-1.76653e-07
7.64191e-06
-1.67986e-07
1.0477e-05
1.46072e-05
-2.24895e-05
4.78601e-05
-0.000128577
7.29865e-05
-0.000226423
9.01327e-05
-0.00029272
0.00010108
-0.000333843
0.000108262
-0.000360807
0.000113702
-0.00038157
0.000118524
-0.000400584
0.000123323
-0.00041953
0.000128087
-0.000440063
0.000133021
-0.000460539
0.000138121
-0.000484429
-0.000507631
0.000143011
-1.17222e-07
7.75914e-06
1.03654e-06
9.32321e-06
2.13369e-05
-4.27899e-05
5.21482e-05
-0.000159389
7.47875e-05
-0.000249062
8.90499e-05
-0.000306983
9.79262e-05
-0.000342719
0.000103917
-0.000366797
0.000108687
-0.00038634
0.00011306
-0.000404957
0.000117444
-0.000423914
0.000121828
-0.000444447
0.000126386
-0.000465097
0.000130982
-0.000489025
-0.000512055
0.000135405
-1.36508e-07
7.89564e-06
3.46845e-06
5.71825e-06
2.83444e-05
-6.76659e-05
5.55314e-05
-0.000186576
7.50528e-05
-0.000268584
8.70046e-05
-0.000318935
9.42939e-05
-0.000350008
9.93601e-05
-0.000371864
0.000103575
-0.000390554
0.000107541
-0.000408924
0.000111556
-0.000427929
0.000115549
-0.00044844
0.000119689
-0.000469236
0.000123839
-0.000493175
-0.000516095
0.000127879
-1.78919e-07
8.07456e-06
6.50727e-06
-9.67946e-07
3.43254e-05
-9.5484e-05
5.79097e-05
-0.00021016
7.42589e-05
-0.000284933
8.42062e-05
-0.000328882
9.02875e-05
-0.00035609
9.46288e-05
-0.000376205
9.83774e-05
-0.000394303
0.000101982
-0.000412528
0.000105621
-0.000431568
0.000109237
-0.000452056
0.000112997
-0.000472996
0.000116688
-0.000496866
-0.000519676
0.00012027
-1.80573e-07
8.25513e-06
9.74057e-06
-1.08891e-05
3.84135e-05
-0.000124157
5.92612e-05
-0.000231008
7.2751e-05
-0.000298423
8.08977e-05
-0.000337029
8.60082e-05
-0.0003612
8.97996e-05
-0.000379996
9.31564e-05
-0.00039766
9.64057e-05
-0.000415777
9.96858e-05
-0.000434848
0.000102932
-0.000455303
0.000106272
-0.000476336
0.000109511
-0.000500105
-0.000522878
0.000112712
-1.62484e-07
8.41762e-06
1.3332e-05
-2.43836e-05
4.04795e-05
-0.000151304
5.9481e-05
-0.000250009
7.07073e-05
-0.000309649
7.73031e-05
-0.000343625
8.15792e-05
-0.000365476
8.48977e-05
-0.000383315
8.78972e-05
-0.000400659
9.08146e-05
-0.000418695
9.37344e-05
-0.000437768
9.66034e-05
-0.000458172
9.95495e-05
-0.000479282
0.000102362
-0.000502917
-0.000525652
0.000105137
-1.47331e-07
8.56495e-06
1.73458e-05
-4.18767e-05
4.16704e-05
-0.000175629
5.85819e-05
-0.000266921
6.81433e-05
-0.00031921
7.35152e-05
-0.000348996
7.70767e-05
-0.000369038
7.99716e-05
-0.00038621
8.26413e-05
-0.000403329
8.52266e-05
-0.00042128
8.77899e-05
-0.000440331
9.02928e-05
-0.000460675
9.28288e-05
-0.000481818
9.52048e-05
-0.000505293
-0.000528045
9.75977e-05
2.90224e-07
8.27473e-06
2.07304e-05
-6.23168e-05
4.24278e-05
-0.000197326
5.6981e-05
-0.000281474
6.51055e-05
-0.000327335
6.95745e-05
-0.000353465
7.25569e-05
-0.00037202
7.50524e-05
-0.000388705
7.73836e-05
-0.00040566
7.96386e-05
-0.000423535
8.18483e-05
-0.000442541
8.39751e-05
-0.000462801
8.61101e-05
-0.000483953
8.80846e-05
-0.000507268
-0.000530063
9.01024e-05
1.05056e-06
7.22417e-06
2.34605e-05
-8.47268e-05
4.25983e-05
-0.000216464
5.49445e-05
-0.00029382
6.17419e-05
-0.000334132
6.54988e-05
-0.000357222
6.80248e-05
-0.000374546
7.01555e-05
-0.000390836
7.21537e-05
-0.000407659
7.40714e-05
-0.000425453
7.5922e-05
-0.000444391
7.76801e-05
-0.00046456
7.94146e-05
-0.000485688
8.09763e-05
-0.00050883
-0.000531695
8.26082e-05
2.27956e-06
4.94461e-06
2.53814e-05
-0.000107829
4.23328e-05
-0.000233416
5.26352e-05
-0.000304122
5.82089e-05
-0.000339706
6.13468e-05
-0.00036036
6.34912e-05
-0.000376691
6.52885e-05
-0.000392633
6.69489e-05
-0.000409319
6.85217e-05
-0.000427026
7.00136e-05
-0.000445883
7.13954e-05
-0.000465941
7.27282e-05
-0.00048702
7.39019e-05
-0.000510003
-0.000532959
7.51659e-05
3.99345e-06
9.51157e-07
2.64808e-05
-0.000130316
4.16525e-05
-0.000248587
5.01496e-05
-0.00031262
5.46142e-05
-0.000344171
5.7173e-05
-0.000362919
5.89637e-05
-0.000378481
6.0446e-05
-0.000394115
6.17794e-05
-0.000410652
6.30068e-05
-0.000428253
6.4133e-05
-0.000447009
6.514e-05
-0.000466948
6.60758e-05
-0.000487956
6.68415e-05
-0.000510769
-0.000533789
6.7672e-05
6.00851e-06
-5.05735e-06
2.67058e-05
-0.000151013
4.0502e-05
-0.000262383
4.75316e-05
-0.000319649
5.1014e-05
-0.000347653
5.30232e-05
-0.000364928
5.44635e-05
-0.000379922
5.5636e-05
-0.000395288
5.66424e-05
-0.000411659
5.75211e-05
-0.000429132
5.82826e-05
-0.000447771
5.89113e-05
-0.000467577
5.94428e-05
-0.000488488
5.9798e-05
-0.000511124
-0.000534184
6.01921e-05
8.2852e-06
-1.33425e-05
2.66962e-05
-0.000169424
3.88858e-05
-0.000274573
4.47551e-05
-0.000325518
4.7423e-05
-0.000350321
4.89222e-05
-0.000366427
5.00042e-05
-0.000381004
5.08601e-05
-0.000396144
5.15428e-05
-0.000412341
5.20767e-05
-0.000429666
5.24703e-05
-0.000448164
5.27184e-05
-0.000467825
5.28497e-05
-0.000488619
5.27858e-05
-0.00051106
-0.000534116
5.2718e-05
1.01966e-05
-2.35391e-05
2.66302e-05
-0.000185858
3.6998e-05
-0.000284941
4.18061e-05
-0.000330326
4.38256e-05
-0.000352341
4.48744e-05
-0.000367476
4.55997e-05
-0.000381729
4.61312e-05
-0.000396675
4.6485e-05
-0.000412695
4.66707e-05
-0.000429851
4.66968e-05
-0.000448191
4.65611e-05
-0.000467689
4.62857e-05
-0.000488344
4.58072e-05
-0.000510582
-0.000533593
4.52849e-05
1.15551e-05
-3.50942e-05
2.62229e-05
-0.000200526
3.49096e-05
-0.000293628
3.87257e-05
-0.000334143
4.0206e-05
-0.000353821
4.08712e-05
-0.000368141
4.12532e-05
-0.000382111
4.14538e-05
-0.000396876
4.14753e-05
-0.000412717
4.13148e-05
-0.000429691
4.09717e-05
-0.000447847
4.04454e-05
-0.000467163
3.97622e-05
-0.00048766
3.88788e-05
-0.000509698
-0.000532597
3.78825e-05
1.23282e-05
-4.74224e-05
2.54462e-05
-0.000213644
3.26593e-05
-0.000300841
3.55801e-05
-0.000337063
3.65837e-05
-0.000354824
3.6909e-05
-0.000368467
3.69659e-05
-0.000382168
3.68365e-05
-0.000396747
3.65211e-05
-0.000412401
3.60107e-05
-0.00042918
3.52993e-05
-0.000447136
3.43794e-05
-0.000466243
3.32747e-05
-0.000486556
3.19848e-05
-0.000508409
-0.000531146
3.05334e-05
1.25802e-05
-6.00027e-05
2.43403e-05
-0.000225404
3.02799e-05
-0.00030678
3.2417e-05
-0.0003392
3.29866e-05
-0.000355394
3.29933e-05
-0.000368473
3.27373e-05
-0.000381912
3.22802e-05
-0.000396289
3.16266e-05
-0.000411747
3.07675e-05
-0.000428321
2.96899e-05
-0.000446058
2.8379e-05
-0.000464932
2.68496e-05
-0.000485026
2.51199e-05
-0.000506679
-0.00052926
2.32343e-05
1.24388e-05
-7.24414e-05
2.29647e-05
-0.00023593
2.7807e-05
-0.000311622
2.92668e-05
-0.00034066
2.94352e-05
-0.000355563
2.91326e-05
-0.000368171
2.85702e-05
-0.00038135
2.77897e-05
-0.000395509
2.67978e-05
-0.000410756
2.55874e-05
-0.000427111
2.41443e-05
-0.000444615
2.2456e-05
-0.000463244
2.0523e-05
-0.000483093
1.82822e-05
-0.000504438
-0.000526943
1.5965e-05
1.20248e-05
-8.44662e-05
2.13929e-05
-0.000245298
2.52757e-05
-0.000315505
2.61482e-05
-0.000341533
2.5945e-05
-0.000355359
2.53365e-05
-0.000367562
2.44686e-05
-0.000380482
2.33667e-05
-0.000394407
2.20378e-05
-0.000409427
2.04764e-05
-0.00042555
1.86673e-05
-0.000442806
1.66071e-05
-0.000461184
1.43128e-05
-0.000480799
1.15621e-05
-0.000501687
-0.000524074
8.69295e-06
1.142e-05
-9.58862e-05
1.96834e-05
-0.000253561
2.2719e-05
-0.000318541
2.30779e-05
-0.000341892
2.25264e-05
-0.000354808
2.16128e-05
-0.000366649
2.0438e-05
-0.000379307
1.90163e-05
-0.000392985
1.73522e-05
-0.000407763
1.54386e-05
-0.000423636
1.32621e-05
-0.00044063
1.08255e-05
-0.000458747
8.15843e-06
-0.000478132
5.08893e-06
-0.000498618
-0.000520278
1.29328e-06
1.06753e-05
-0.000106561
1.78879e-05
-0.000260774
2.01713e-05
-0.000320824
2.00717e-05
-0.000341792
1.91882e-05
-0.000353924
1.7968e-05
-0.000365428
1.6483e-05
-0.000377822
1.47406e-05
-0.000391243
1.27423e-05
-0.000405764
1.04779e-05
-0.000421372
7.93719e-06
-0.000438089
5.13549e-06
-0.000455945
1.96357e-06
-0.00047496
-1.09281e-06
-0.000495561
-0.000515955
-5.41601e-06
9.76523e-06
-0.000116327
1.60484e-05
-0.000267057
1.76632e-05
-0.000322439
1.71441e-05
-0.000341273
1.59363e-05
-0.000352717
1.44065e-05
-0.000363899
1.2608e-05
-0.000376023
1.05424e-05
-0.000389177
8.20942e-06
-0.000403431
5.59493e-06
-0.000418757
2.69251e-06
-0.000435187
-5.21347e-07
-0.000452731
-3.93043e-06
-0.000471551
-7.73548e-06
-0.000491756
-0.00051167
-1.20199e-05
8.86529e-06
-0.000125192
1.42151e-05
-0.000272407
1.52141e-05
-0.000323438
1.43038e-05
-0.000340363
1.27739e-05
-0.000351187
1.09316e-05
-0.000362056
8.81521e-06
-0.000373907
6.42039e-06
-0.000386783
3.74642e-06
-0.000400757
7.77656e-07
-0.000415788
-2.44767e-06
-0.000431961
-5.94156e-06
-0.000449238
-9.7001e-06
-0.000467792
-1.4066e-05
-0.000487391
-0.000507145
-1.85914e-05
8.00878e-06
-0.000133201
1.24232e-05
-0.000276821
1.28344e-05
-0.000323849
1.15483e-05
-0.000339076
9.70113e-06
-0.00034934
7.5438e-06
-0.000359899
5.10274e-06
-0.000371466
2.36734e-06
-0.000384047
-6.5626e-07
-0.000397734
-3.90884e-06
-0.000412536
-7.4745e-06
-0.000428396
-1.13071e-05
-0.000445405
-1.54591e-05
-0.00046364
-2.02282e-05
-0.000482621
-0.000502294
-2.50788e-05
7.16604e-06
-0.000140367
1.06898e-05
-0.000280345
1.05364e-05
-0.000323696
8.88062e-06
-0.000337421
6.71783e-06
-0.000347177
4.23924e-06
-0.00035742
1.45516e-06
-0.000368682
-1.58814e-06
-0.000381004
-4.88574e-06
-0.000394436
-8.50537e-06
-0.000408916
-1.24092e-05
-0.000424492
-1.6597e-05
-0.000441217
-2.11553e-05
-0.000459082
-2.62447e-05
-0.000477532
-0.000497056
-3.1483e-05
6.34111e-06
-0.000146708
9.02399e-06
-0.000283028
8.32343e-06
-0.000322996
6.30436e-06
-0.000335401
3.82056e-06
-0.000344693
9.96038e-07
-0.000354596
-2.06828e-06
-0.000365618
-5.4081e-06
-0.000377664
-9.05479e-06
-0.000390789
-1.30097e-05
-0.000404961
-1.7253e-05
-0.000420248
-2.18058e-05
-0.000436664
-2.67742e-05
-0.000454114
-3.21548e-05
-0.000472151
-0.000491433
-3.77778e-05
5.54075e-06
-0.000152249
7.42985e-06
-0.000284917
6.20173e-06
-0.000321767
3.82184e-06
-0.000333022
9.88142e-07
-0.000341859
-2.10483e-06
-0.000351503
-5.47813e-06
-0.000362244
-9.15503e-06
-0.000373987
-1.31369e-05
-0.000386808
-1.74213e-05
-0.000400677
-2.20046e-05
-0.000415665