/*--------------------------------*- C++ -*----------------------------------*\
  =========                 |
  \\      /  F ield         | OpenFOAM: The Open Source CFD Toolbox
   \\    /   O peration     | Website:  https://openfoam.org
    \\  /    A nd           | Version:  7
     \\/     M anipulation  |
\*---------------------------------------------------------------------------*/
FoamFile
{
    version     2.0;
    format      ascii;
    class       volVectorField;
    location    "37.9995";
    object      U;
}
// * * * * * * * * * * * * * * * * * * * * * * * * * * * * * * * * * * * * * //

dimensions      [0 1 -1 0 0 0 0];

internalField   nonuniform List<vector> 
18750
(
(-0.0202987 0.177762 -6.87661e-20)
(-0.0788038 0.200915 1.92251e-20)
(-0.145932 0.159598 1.30677e-19)
(-0.204244 0.112421 2.27133e-20)
(-0.262456 0.0636179 -3.60908e-20)
(-0.318146 0.0131409 -7.78327e-20)
(-0.373503 -0.038616 6.3913e-20)
(-0.428021 -0.0911593 3.67866e-20)
(-0.482803 -0.144052 -2.50421e-20)
(-0.537735 -0.196815 -6.51777e-20)
(-0.593695 -0.248925 2.33113e-19)
(-0.650893 -0.299759 -1.83004e-19)
(-0.709733 -0.348655 1.05903e-19)
(-0.769393 -0.394856 -2.00647e-19)
(-0.828731 -0.437615 4.66402e-20)
(-0.0241153 0.203725 4.39162e-20)
(-0.0818203 0.237034 3.87379e-20)
(-0.146102 0.194671 6.33801e-21)
(-0.201441 0.146019 1.29045e-19)
(-0.256663 0.0961568 2.2489e-19)
(-0.309361 0.04498 2.44615e-19)
(-0.361648 -0.00715811 -1.77351e-19)
(-0.413016 -0.0598876 2.57147e-19)
(-0.464607 -0.112676 2.22317e-19)
(-0.516329 -0.165099 -6.11406e-20)
(-0.569072 -0.216688 -2.45103e-19)
(-0.623124 -0.26689 1.27396e-20)
(-0.67898 -0.315124 5.55461e-20)
(-0.73597 -0.36071 1.31606e-19)
(-0.793341 -0.402953 -1.97084e-19)
(-0.028807 0.228017 1.07362e-19)
(-0.0857092 0.271648 1.05781e-19)
(-0.146668 0.228603 -3.05058e-19)
(-0.198587 0.178637 -4.92939e-21)
(-0.250403 0.127818 -4.37538e-19)
(-0.299713 0.0760128 1.21134e-19)
(-0.348614 0.0235806 -2.80238e-19)
(-0.396511 -0.0291805 -3.31177e-20)
(-0.444509 -0.0818692 -1.68128e-19)
(-0.492607 -0.133863 4.65406e-19)
(-0.541645 -0.18485 5.75816e-19)
(-0.591946 -0.23428 4.80928e-19)
(-0.64405 -0.281626 2.74088e-19)
(-0.69736 -0.326286 1.79868e-19)
(-0.751352 -0.367701 -3.22091e-19)
(-0.034283 0.250269 -4.13479e-19)
(-0.0903968 0.304402 4.19708e-19)
(-0.147589 0.26115 -2.64201e-19)
(-0.195702 0.210082 -4.34857e-19)
(-0.243775 0.158456 6.09945e-19)
(-0.289372 0.106113 -4.96292e-19)
(-0.334535 0.0534199 6.09761e-19)
(-0.378753 0.000740288 -4.63705e-19)
(-0.422938 -0.0516358 2.95443e-19)
(-0.467068 -0.103262 -6.68318e-19)
(-0.512087 -0.153566 -8.91633e-19)
(-0.558231 -0.202152 5.25122e-20)
(-0.606069 -0.248505 -1.54242e-19)
(-0.655023 -0.292089 -3.25997e-19)
(-0.70467 -0.332443 1.18579e-18)
(-0.040414 0.270101 -2.38739e-19)
(-0.0957744 0.334984 4.95824e-19)
(-0.148801 0.292103 1.36708e-19)
(-0.192784 0.240186 3.79074e-19)
(-0.236832 0.187928 -3.67839e-19)
(-0.278478 0.135195 1.50675e-19)
(-0.319656 0.0823169 1.46014e-18)
(-0.359867 0.0296945 1.83849e-19)
(-0.400115 -0.0222818 3.21288e-19)
(-0.440192 -0.0733546 -9.99953e-20)
(-0.480906 -0.122971 9.14824e-20)
(-0.522671 -0.17066 -2.11637e-20)
(-0.565958 -0.215969 -8.76433e-19)
(-0.610186 -0.258399 -4.78174e-19)
(-0.654919 -0.297569 -1.35229e-18)
(-0.0470278 0.287149 5.55873e-19)
(-0.101697 0.363109 5.96784e-20)
(-0.150221 0.321279 -2.17639e-19)
(-0.189818 0.268806 -1.48077e-19)
(-0.22961 0.216112 7.47827e-20)
(-0.267114 0.16315 -1.41886e-18)
(-0.304157 0.110226 -1.5734e-19)
(-0.34023 0.0577305 8.53888e-20)
(-0.376284 0.00605851 -4.69034e-19)
(-0.412199 -0.0443125 -6.2189e-19)
(-0.448621 -0.0931572 4.14592e-19)
(-0.485867 -0.139945 -3.89071e-19)
(-0.524491 -0.184204 1.14794e-18)
(-0.563852 -0.225448 -8.69244e-19)
(-0.603446 -0.263374 1.85136e-18)
(-0.0539126 0.301087 -4.09662e-19)
(-0.107985 0.388513 -7.39645e-19)
(-0.151751 0.348525 2.18957e-19)
(-0.186772 0.295829 1.57414e-18)
(-0.222136 0.242911 1.38657e-18)
(-0.255352 0.189894 -4.05859e-19)
(-0.28814 0.137061 1.96427e-19)
(-0.319992 0.0848237 1.02071e-19)
(-0.351793 0.0335726 1.00715e-18)
(-0.383427 -0.0162151 1.29861e-18)
(-0.415526 -0.064199 -6.12246e-19)
(-0.448296 -0.110052 -1.10181e-18)
(-0.482238 -0.153276 -1.95806e-18)
(-0.516737 -0.193339 3.15138e-19)
(-0.551211 -0.230022 -2.25724e-18)
(-0.0608223 0.311622 -2.82216e-19)
(-0.114425 0.410969 -3.47779e-19)
(-0.153277 0.373719 -2.40643e-18)
(-0.183605 0.321161 7.39689e-19)
(-0.214418 0.268251 -8.79174e-19)
(-0.243252 0.215369 4.85512e-19)
(-0.271712 0.162774 4.40549e-19)
(-0.299286 0.1109 -1.90423e-18)
(-0.326803 0.060157 -1.15714e-18)
(-0.354151 0.0110227 -1.83789e-18)
(-0.381915 -0.0361552 -3.13243e-19)
(-0.410263 -0.0810312 1.17449e-18)
(-0.439594 -0.123219 4.39134e-18)
(-0.469306 -0.162132 -6.45239e-19)
(-0.498801 -0.197614 1.12294e-18)
(-0.0674709 0.318482 1.55615e-18)
(-0.120773 0.430265 6.16956e-19)
(-0.154672 0.396759 2.58293e-18)
(-0.180268 0.344732 -1.73849e-18)
(-0.206454 0.292075 7.07921e-19)
(-0.23085 0.239531 -1.06089e-18)
(-0.254952 0.187333 -2.20749e-18)
(-0.278237 0.135943 1.85602e-18)
(-0.301469 0.0857853 1.94132e-19)
(-0.324545 0.037358 2.70866e-18)
(-0.348005 -0.00898789 -8.41786e-19)
(-0.371986 -0.0529066 -3.55938e-18)
(-0.396806 -0.0940314 -2.08037e-18)
(-0.421831 -0.131836 2.0331e-19)
(-0.446525 -0.166168 -9.35503e-19)
(-0.0735183 0.321407 -1.2123e-18)
(-0.12679 0.446337 -7.06243e-19)
(-0.155815 0.417548 7.5873e-19)
(-0.176702 0.366485 1.16355e-19)
(-0.198226 0.314348 -2.70182e-19)
(-0.218169 0.262352 -2.88613e-19)
(-0.237915 0.210716 1.02518e-18)
(-0.256931 0.159938 -1.08515e-18)
(-0.275906 0.110458 1.00934e-18)
(-0.294744 0.0627929 1.16414e-18)
(-0.313944 0.0173059 -1.98949e-18)
(-0.33361 -0.0256611 3.58867e-18)
(-0.353993 -0.0657352 3.98066e-19)
(-0.374425 -0.102428 5.0045e-19)
(-0.394451 -0.135679 1.13734e-18)
(-0.078537 0.320268 2.07639e-18)
(-0.132138 0.45897 -6.7488e-19)
(-0.156604 0.435957 -2.93658e-18)
(-0.172839 0.386385 1.04145e-18)
(-0.189705 0.335053 -5.85745e-19)
(-0.20522 0.283823 6.49717e-19)
(-0.220641 0.232911 4.23386e-18)
(-0.23543 0.182872 1.859e-18)
(-0.250197 0.134167 1.15885e-18)
(-0.264848 0.0873331 -3.70785e-18)
(-0.27984 0.0427463 3.82042e-18)
(-0.295239 0.000743859 1.30181e-18)
(-0.311203 -0.0383247 -2.04248e-18)
(-0.327077 -0.0739676 2.40685e-18)
(-0.342548 -0.106164 -6.06466e-20)
(-0.0822834 0.315264 3.13868e-19)
(-0.136592 0.468058 1.23621e-19)
(-0.156895 0.451857 -1.34323e-19)
(-0.168589 0.404413 -1.83748e-18)
(-0.180856 0.354188 3.44401e-18)
(-0.192004 0.303949 -1.65045e-18)
(-0.203161 0.253922 -4.47433e-18)
(-0.213779 0.204747 1.22452e-18)
(-0.224396 0.156909 -1.89075e-18)
(-0.234914 0.110973 2.76769e-18)
(-0.24575 0.0673347 -4.73572e-18)
(-0.25695 0.0263362 3.49606e-19)
(-0.268568 -0.0117109 1.81765e-18)
(-0.279815 -0.0464184 -3.66009e-18)
(-0.290615 -0.0777818 -8.29304e-19)
(-0.0844966 0.306393 -1.28481e-18)
(-0.139902 0.473372 3.71442e-19)
(-0.156569 0.465221 1.07657e-18)
(-0.163849 0.420553 -3.1952e-20)
(-0.171634 0.37177 -4.55519e-18)
(-0.178515 0.322741 4.36684e-19)
(-0.185493 0.273757 1.44365e-18)
(-0.192015 0.225571 -3.67343e-18)
(-0.19855 0.178684 2.52357e-18)
(-0.204991 0.133705 -2.20759e-18)
(-0.211707 0.0910524 5.73999e-18)
(-0.218736 0.0510872 -2.32357e-18)
(-0.226093 0.0140995 2.64028e-18)
(-0.232786 -0.0197239 5.13867e-18)
(-0.238491 -0.050664 2.11718e-18)
(-0.0849976 0.29363 -4.73467e-19)
(-0.141799 0.474713 1.13342e-20)
(-0.155473 0.475982 -6.36997e-20)
(-0.158573 0.434846 -1.21086e-19)
(-0.161981 0.387801 -2.10511e-18)
(-0.164753 0.340242 -8.63254e-19)
(-0.167649 0.292423 1.37542e-18)
(-0.170168 0.245352 7.57043e-19)
(-0.172699 0.199496 -4.35925e-18)
(-0.17512 0.155528 -2.49135e-19)
(-0.177745 0.113888 -1.12724e-18)
(-0.180598 0.0749636 2.20281e-18)
(-0.183775 0.0390523 -2.9169e-18)
(-0.186257 0.0062349 -3.61839e-19)
(-0.186083 -0.0245562 -2.38621e-18)
(-0.0836093 0.276984 2.05491e-18)
(-0.142092 0.471979 -1.80043e-18)
(-0.153424 0.484063 -2.42824e-18)
(-0.152726 0.447334 4.13522e-18)
(-0.151931 0.402451 3.50698e-18)
(-0.150654 0.356382 4.24634e-18)
(-0.149651 0.309922 1.52647e-19)
(-0.148261 0.264118 2.54661e-18)
(-0.146865 0.219353 3.2744e-18)
(-0.145319 0.176445 4.62265e-18)
(-0.143874 0.135848 -2.00951e-18)
(-0.142504 0.097962 4.06979e-18)
(-0.141343 0.063032 -4.82479e-20)
(-0.140181 0.0313836 -1.92003e-18)
(-0.133216 0.000454463 -4.51988e-18)
(-0.0801979 0.256569 -1.26812e-18)
(-0.140611 0.465055 2.00725e-18)
(-0.150302 0.489347 1.28994e-18)
(-0.146174 0.458014 -3.85191e-18)
(-0.141516 0.415726 -1.72757e-18)
(-0.136354 0.371242 -2.9517e-19)
(-0.131475 0.326378 -2.06714e-18)
(-0.126277 0.281819 -3.38143e-18)
(-0.121075 0.238247 -5.43743e-18)
(-0.115604 0.196456 -2.22947e-18)
(-0.110125 0.156927 2.99323e-18)
(-0.104602 0.120119 -6.01715e-18)
(-0.0987613 0.0860501 2.11309e-19)
(-0.0949405 0.0557439 3.51191e-18)
(-0.0803395 0.0250861 4.83599e-18)
(-0.0747441 0.232637 -3.00319e-18)
(-0.13724 0.453779 2.3372e-18)
(-0.146007 0.491634 -3.96367e-18)
(-0.138925 0.466826 -1.8129e-18)
(-0.130622 0.427512 -7.78884e-20)
(-0.121827 0.385047 2.31026e-18)
(-0.113246 0.34178 3.49051e-18)
(-0.104323 0.298499 1.05888e-18)
(-0.095328 0.256206 1.48097e-18)
(-0.0859941 0.215555 -4.17249e-18)
(-0.0764968 0.177131 1.0472e-19)
(-0.0669918 0.141341 -2.88044e-18)
(-0.05607 0.108385 -2.05586e-18)
(-0.0500827 0.0788377 -5.6572e-18)
(-0.0286498 0.0504501 -7.06467e-20)
(-0.0673761 0.205587 2.64944e-18)
(-0.131942 0.43797 4.0513e-19)
(-0.140479 0.490676 6.36713e-19)
(-0.130951 0.473661 4.54084e-18)
(-0.119289 0.437901 1.8396e-18)
(-0.107067 0.397669 -2.10705e-18)
(-0.0949378 0.356053 1.61334e-18)
(-0.0824305 0.314274 -8.74141e-19)
(-0.069707 0.273259 -1.64986e-18)
(-0.0565361 0.233746 1.82851e-18)
(-0.043023 0.196398 -5.85614e-18)
(-0.0296796 0.161712 -2.37952e-19)
(-0.013498 0.129941 -3.02457e-18)
(-0.00516779 0.100794 4.53313e-18)
(0.023137 0.0763997 4.51922e-19)
(-0.0584159 0.175982 -1.00372e-18)
(-0.124752 0.417408 -2.79107e-18)
(-0.133703 0.486146 7.19826e-19)
(-0.122247 0.478334 -5.17362e-18)
(-0.107554 0.446869 -3.39436e-18)
(-0.0921042 0.409084 -1.83413e-18)
(-0.0766019 0.369288 -3.01615e-18)
(-0.0606188 0.329057 2.84132e-18)
(-0.044253 0.289333 3.75254e-18)
(-0.0273013 0.250987 6.98538e-18)
(-0.00963773 0.214706 -2.8538e-19)
(0.00719936 0.181223 7.19424e-18)
(0.0291627 0.150601 2.69092e-18)
(0.0393568 0.121864 2.02233e-18)
(0.0758935 0.102743 -4.33337e-18)
(-0.048426 0.144581 1.72387e-18)
(-0.115771 0.391819 4.23434e-18)
(-0.125678 0.477606 2.84222e-18)
(-0.112846 0.480574 3.59323e-18)
(-0.0954671 0.454312 -1.69949e-20)
(-0.077004 0.419308 1.27513e-18)
(-0.0582964 0.381471 6.78472e-20)
(-0.0389509 0.342807 -2.09035e-18)
(-0.0190146 0.304413 3.21664e-18)
(0.00160634 0.267276 -1.07272e-17)
(0.0236865 0.232015 2.9575e-18)
(0.0435076 0.199757 -1.89909e-18)
(0.0721672 0.170472 3.42192e-19)
(0.0829606 0.141382 -2.58285e-18)
(0.130383 0.12994 -2.7868e-18)
(-0.0381765 0.112397 -2.80539e-18)
(-0.105176 0.360912 3.70787e-18)
(-0.116403 0.464512 -9.03937e-19)
(-0.102794 0.479978 -1.51247e-18)
(-0.0831069 0.460043 3.05445e-18)
(-0.0618555 0.428295 2.62223e-19)
(-0.0401051 0.392565 -8.52963e-19)
(-0.0175224 0.355516 -9.79128e-20)
(0.00595551 0.318459 -2.05155e-18)
(0.0300153 0.28257 5.13796e-18)
(0.0570499 0.248236 3.02277e-18)
(0.0789816 0.21719 1.57707e-18)
(0.115895 0.189853 -1.30336e-19)
(0.124938 0.158278 3.37733e-18)
(0.186583 0.157528 -2.7917e-19)
(-0.0284446 0.0807743 8.18486e-19)
(-0.0931971 0.324461 -8.76163e-19)
(-0.105887 0.446258 6.90212e-19)
(-0.0921447 0.475973 2.81201e-18)
(-0.0705755 0.46374 -1.7454e-18)
(-0.0467713 0.435915 -1.10459e-18)
(-0.022143 0.402518 -1.91456e-18)
(0.00352647 0.367146 1.46903e-18)
(0.0306199 0.331384 -1.45428e-18)
(0.057667 0.296802 -1.64744e-18)
(0.0905666 0.263341 -2.61345e-18)
(0.113242 0.233057 -1.46234e-18)
(0.16092 0.209675 5.10821e-18)
(0.164748 0.171631 -6.75147e-18)
(0.243733 0.183805 -1.47748e-19)
(-0.019663 0.0513906 3.48927e-18)
(-0.0800987 0.2825 -1.35071e-18)
(-0.0941651 0.422221 -3.46969e-18)
(-0.0809701 0.467805 -8.81774e-19)
(-0.0579986 0.464903 4.55643e-18)
(-0.0318996 0.44193 -1.3071e-19)
(-0.00455042 0.411218 2.01739e-18)
(0.023987 0.377621 -1.09579e-18)
(0.0549583 0.343076 -3.94041e-18)
(0.0842224 0.30981 8.76271e-18)
(0.12438 0.277503 -6.20018e-18)
(0.145578 0.246229 1.7456e-18)
(0.207694 0.230914 -7.32012e-18)
(0.203138 0.182775 2.55602e-18)
(0.30047 0.205767 2.02256e-18)
(-0.0117054 0.0259815 -1.24395e-18)
(-0.0661987 0.23563 -4.02167e-18)
(-0.0813292 0.39181 1.82566e-18)
(-0.0693685 0.454543 3.25109e-19)
(-0.0455306 0.462817 -4.12256e-18)
(-0.0174417 0.445944 2.46861e-18)
(0.0125091 0.41845 1.13722e-19)
(0.0435509 0.386814 -6.08412e-19)
(0.0789416 0.353419 -4.19875e-18)
(0.109271 0.321176 -4.82651e-19)
(0.158739 0.291489 4.95913e-18)
(0.175257 0.25515 4.24846e-19)
(0.255263 0.252165 1.09092e-18)
(0.241882 0.195421 2.99943e-18)
(0.356204 0.222686 -7.21951e-18)
(-0.00410618 0.00578379 -1.89127e-18)
(-0.0519354 0.18541 3.83021e-20)
(-0.06759 0.354535 -2.28501e-18)
(-0.0574744 0.435112 1.827e-18)
(-0.0333617 0.456529 2.34621e-18)
(-0.00367766 0.447335 -1.7023e-18)
(0.0288396 0.423843 -2.68177e-19)
(0.0618196 0.394473 -1.30386e-18)
(0.102456 0.362398 3.11225e-18)
(0.132284 0.329872 6.3658e-19)
(0.193607 0.306419 -7.30876e-18)
(0.202874 0.26035 1.98518e-18)
(0.301314 0.268926 1.11189e-18)
(0.28132 0.210257 -4.90778e-18)
(0.410347 0.236364 9.70766e-19)
(0.00305203 -0.00840996 4.34493e-19)
(-0.0377207 0.134795 1.16049e-18)
(-0.0533163 0.310199 2.19172e-18)
(-0.0454799 0.408406 -1.78422e-18)
(-0.0217286 0.444839 -2.7234e-20)
(0.00900839 0.445183 4.23736e-18)
(0.0441684 0.426795 -1.4626e-19)
(0.0783283 0.400073 2.23781e-20)
(0.125229 0.370341 5.15931e-18)
(0.152889 0.334343 -2.85541e-18)
(0.227464 0.321413 1.84965e-18)
(0.230487 0.265614 -5.13479e-18)
(0.343847 0.278878 4.15094e-19)
(0.320607 0.224075 -1.25936e-18)
(0.460309 0.246395 2.06345e-18)
(0.00916374 -0.0171536 -3.09622e-19)
(-0.0239267 0.0876994 1.48317e-18)
(-0.039025 0.259248 -1.91338e-18)
(-0.0336737 0.373481 4.02511e-18)
(-0.0109279 0.426343 -3.2217e-18)
(0.020113 0.438198 -2.78046e-18)
(0.0580592 0.426437 -1.71859e-18)
(0.09262 0.40249 -3.51865e-18)
(0.146467 0.377766 -6.46427e-18)
(0.171667 0.334464 8.57324e-19)
(0.25717 0.332069 4.60573e-18)
(0.259521 0.272778 3.49447e-18)
(0.380631 0.284005 5.00201e-19)
(0.359935 0.235042 -2.66735e-18)
(0.503725 0.251091 -1.21361e-18)
(0.0139727 -0.0218894 7.89405e-19)
(-0.0105011 0.0481063 1.38986e-18)
(-0.0252032 0.203428 -5.90271e-18)
(-0.0224513 0.329864 -4.00232e-18)
(-0.00133063 0.399563 -1.17648e-19)
(0.0290581 0.424694 3.00499e-18)
(0.0697612 0.421635 -1.03472e-18)
(0.104326 0.399994 7.80466e-18)
(0.164405 0.383688 4.68632e-19)
(0.190521 0.332686 -4.06785e-18)
(0.278517 0.335608 -3.59476e-18)
(0.291649 0.277202 -5.388e-18)
(0.407456 0.286297 5.83458e-18)
(0.398834 0.241082 3.6064e-18)
(0.540856 0.250931 -4.73395e-20)
(0.0173314 -0.023922 -2.1915e-18)
(0.00220341 0.0181805 -4.09299e-18)
(-0.0122528 0.14649 2.9492e-18)
(-0.0122524 0.278077 3.57262e-18)
(0.0066144 0.363262 2.16737e-18)
(0.0352797 0.402626 -2.07217e-18)
(0.0781063 0.410982 5.25037e-18)
(0.113446 0.390844 -7.11279e-18)
(0.17566 0.384605 7.63469e-18)
(0.212351 0.330677 4.63302e-18)
(0.287383 0.332457 -1.43891e-18)
(0.329128 0.278182 -1.86751e-18)
(0.420586 0.284964 -2.38037e-18)
(0.438496 0.242072 -4.41103e-18)
(0.570487 0.246834 5.10088e-18)
(0.0195312 -0.0243608 6.21528e-18)
(0.0134076 -0.00250034 4.78956e-18)
(-0.000361101 0.0941069 1.09633e-18)
(-0.00338846 0.220398 -6.27513e-20)
(0.012445 0.317116 -7.47752e-19)
(0.0384116 0.369966 -8.835e-19)
(0.0813332 0.392382 -4.11947e-18)
(0.120524 0.374355 6.91261e-18)
(0.176781 0.375285 -5.25353e-18)
(0.237234 0.328196 1.62875e-20)
(0.282745 0.319556 4.66524e-18)
(0.375919 0.28159 3.07207e-18)
(0.414079 0.274015 2.95635e-18)
(0.487854 0.242753 -2.64318e-21)
(0.583067 0.235417 -3.18906e-18)
(0.0210152 -0.0239331 -3.73354e-18)
(0.0225514 -0.0157615 -3.88428e-18)
(0.0105365 0.0515882 1.2167e-18)
(0.00419826 0.161433 -1.96208e-18)
(0.0158146 0.26269 -8.97094e-19)
(0.038502 0.325792 3.1547e-18)
(0.077753 0.362886 -8.39042e-19)
(0.124848 0.350688 -7.02252e-19)
(0.167091 0.350807 -2.2702e-18)
(0.259625 0.323327 -4.94459e-18)
(0.264744 0.289451 2.23806e-18)
(0.427013 0.284753 -2.5245e-18)
(0.377874 0.24276 -3.58915e-18)
(0.559265 0.237784 -1.49394e-18)
(0.566918 0.227608 5.70901e-18)
(0.0221907 -0.0230718 4.2234e-18)
(0.0296619 -0.02371 -3.3291e-18)
(0.0203038 0.0207691 -5.48779e-18)
(0.0108093 0.107315 5.57061e-19)
(0.0167393 0.203974 1.30468e-18)
(0.03569 0.271846 -8.72516e-19)
(0.0674373 0.319894 2.42245e-18)
(0.122742 0.31941 5.65996e-19)
(0.150431 0.310194 -4.87506e-19)
(0.264839 0.306966 -8.86727e-20)
(0.243114 0.245107 -2.36793e-18)
(0.446504 0.274666 2.35849e-19)
(0.313279 0.172647 1.13755e-18)
(0.637794 0.245233 -8.2518e-19)
(0.450681 0.147314 5.89689e-18)
(0.0232912 -0.0220614 8.89003e-19)
(0.0350286 -0.0282105 -1.90809e-18)
(0.0282888 3.20517e-05 5.33092e-18)
(0.0163283 0.0630416 4.11237e-18)
(0.0157092 0.14654 -4.08444e-18)
(0.0295306 0.212628 -2.5609e-19)
(0.0527645 0.264777 -1.82583e-18)
(0.109277 0.276292 -6.2931e-19)
(0.133506 0.262138 4.84394e-18)
(0.241168 0.263877 2.3659e-18)
(0.235014 0.206876 3.311e-18)
(0.400283 0.224797 -2.51669e-18)
(0.294789 0.117491 1.55699e-18)
(0.642485 0.223756 -8.6644e-19)
(0.397383 0.0657792 -7.50912e-18)
(0.024319 -0.0210925 7.09607e-19)
(0.0387187 -0.0307169 1.14115e-18)
(0.0336045 -0.0136522 -2.93231e-18)
(0.0198673 0.0298608 -3.3333e-18)
(0.0129972 0.0953877 -3.01954e-18)
(0.0194223 0.15351 2.67413e-19)
(0.0357951 0.203423 2.17618e-18)
(0.0845664 0.219063 -3.96766e-18)
(0.114666 0.211911 -2.15713e-18)
(0.199563 0.19801 1.21085e-18)
(0.225182 0.16884 -3.14143e-18)
(0.339862 0.153643 2.53611e-19)
(0.360512 0.121663 1.94565e-18)
(0.649943 0.190791 -2.46823e-18)
(0.656423 0.164571 1.92306e-18)
(0.0250475 -0.0202305 -1.59465e-18)
(0.040439 -0.03222 3.62497e-18)
(0.0354509 -0.0231803 2.38997e-18)
(0.0201962 0.00544342 1.58947e-18)
(0.00783007 0.05273 2.58122e-18)
(0.00554021 0.0987105 -2.60489e-19)
(0.0161734 0.141565 -2.04101e-18)
(0.0533775 0.153345 4.08796e-19)
(0.0878741 0.154682 2.79706e-18)
(0.156331 0.128881 -4.82596e-18)
(0.204117 0.113681 -2.34837e-18)
(0.344182 0.111841 8.03645e-20)
(0.493217 0.147669 -6.10493e-19)
(0.76823 0.215293 3.15514e-18)
(0.93122 0.277838 -2.60818e-18)
(0.0250786 -0.0193996 1.74429e-18)
(0.0396842 -0.0332394 1.16612e-18)
(0.0331985 -0.0306338 -1.36379e-19)
(0.0160941 -0.0135183 -1.02552e-18)
(-0.00120289 0.0178666 2.31785e-19)
(-0.01161 0.0501642 -2.9933e-18)
(-0.00733092 0.0824955 6.91489e-19)
(0.0193873 0.0867352 -1.41918e-18)
(0.0544192 0.0903316 -1.63363e-18)
(0.124278 0.0673202 3.3755e-18)
(0.226787 0.0706617 4.92643e-18)
(0.451124 0.123672 2.26436e-18)
(0.677629 0.18861 2.04898e-18)
(0.939471 0.276051 -2.51044e-18)
(1.03901 0.300607 -2.44904e-18)
(0.0239541 -0.0183986 1.45167e-18)
(0.0360313 -0.0338511 -2.74145e-18)
(0.0266992 -0.0370173 -1.3203e-18)
(0.00690996 -0.0292176 -2.92919e-18)
(-0.0149923 -0.0110361 1.30319e-18)
(-0.0318177 0.00802132 3.16814e-18)
(-0.0347755 0.0284353 -3.71885e-18)
(-0.0140565 0.0253227 1.31229e-18)
(0.0294871 0.0287978 2.62961e-18)
(0.144397 0.0308429 8.04708e-19)
(0.354694 0.0822235 -3.3554e-18)
(0.626172 0.167982 -1.28188e-18)
(0.865591 0.247503 1.2001e-20)
(1.02838 0.29743 1.37865e-18)
(1.11228 0.322935 5.0348e-18)
(0.0212792 -0.016974 -2.34337e-18)
(0.029326 -0.0338104 -2.35167e-18)
(0.0163257 -0.0422462 1.30754e-18)
(-0.00675516 -0.042182 5.19752e-18)
(-0.0328065 -0.0348324 -3.35243e-18)
(-0.0542423 -0.0264621 9.57728e-19)
(-0.0616604 -0.0164931 1.48717e-18)
(-0.0339125 -0.0226455 -9.73816e-20)
(0.0511418 -0.00971686 3.19963e-19)
(0.26316 0.0430567 1.64325e-18)
(0.547505 0.132117 -1.53919e-18)
(0.804044 0.221557 -2.95013e-18)
(0.976496 0.274605 -2.38221e-18)
(1.09571 0.315425 1.93641e-18)
(1.16446 0.336615 5.25273e-19)
(0.0168911 -0.0148998 -5.81963e-19)
(0.0198812 -0.0326338 4.68254e-18)
(0.00307452 -0.0454975 9.83582e-19)
(-0.0229573 -0.0515034 1.37933e-18)
(-0.0515741 -0.0518807 1.24508e-18)
(-0.073752 -0.0500022 1.19092e-18)
(-0.0751733 -0.0455756 -4.49302e-19)
(-0.0135843 -0.0455777 8.37433e-19)
(0.156213 -0.00164577 4.60427e-19)
(0.453511 0.0941248 2.09366e-18)
(0.729015 0.184706 1.24291e-19)
(0.926046 0.253795 2.05711e-18)
(1.05722 0.295234 -1.47442e-18)
(1.144 0.327945 -1.30147e-18)
(1.18144 0.33529 8.22903e-19)
(0.0109718 -0.0120665 2.11867e-18)
(0.0085455 -0.0298311 -1.91542e-18)
(-0.011338 -0.0457116 2.13699e-19)
(-0.0386861 -0.0554418 -2.81295e-18)
(-0.0661416 -0.0596918 -2.33045e-18)
(-0.081364 -0.0593863 4.03615e-18)
(-0.0620198 -0.0542083 1.22249e-18)
(0.0653582 -0.035551 -1.79223e-18)
(0.335578 0.0512051 4.55258e-19)
(0.638336 0.149122 -5.63332e-18)
(0.86456 0.223253 1.94984e-18)
(1.01746 0.278252 -2.1796e-18)
(1.11417 0.310213 2.39342e-18)
(1.16606 0.329925 -3.22081e-19)
(1.19746 0.338211 -1.24723e-18)
(0.00404439 -0.00855049 -3.31502e-18)
(-0.00345542 -0.0251725 -3.36656e-18)
(-0.0248068 -0.0421968 -3.42309e-18)
(-0.0506181 -0.0530402 -2.57326e-18)
(-0.0717959 -0.0574663 1.70857e-18)
(-0.0712242 -0.0547367 -6.9861e-18)
(-0.0148074 -0.0471124 6.45443e-19)
(0.206106 0.00840997 6.23463e-19)
(0.524246 0.11107 3.49617e-19)
(0.787532 0.192601 2.63607e-18)
(0.968745 0.253054 -2.06935e-18)
(1.08363 0.296662 4.74273e-18)
(1.14591 0.316008 -9.45512e-19)
(1.18426 0.333621 -1.69081e-18)
(1.2037 0.336084 9.19986e-19)
(-0.00316713 -0.00462481 5.8768e-19)
(-0.0148768 -0.0188953 2.73877e-18)
(-0.0356323 -0.0352367 3.901e-18)
(-0.0565846 -0.0449377 6.18126e-19)
(-0.0668599 -0.0469536 3.08653e-18)
(-0.0449725 -0.0415373 1.72045e-18)
(0.0705317 -0.025196 5.28948e-19)
(0.383888 0.0683191 -2.8689e-18)
(0.684901 0.16014 -1.87878e-19)
(0.906104 0.227532 1.31853e-18)
(1.04612 0.276991 5.05294e-18)
(1.12503 0.306811 -6.61142e-19)
(1.16976 0.321994 1.58732e-18)
(1.19246 0.333425 1.43053e-18)
(1.20475 0.33328 2.16307e-18)
(-0.00993117 -0.000698446 1.08584e-18)
(-0.0247638 -0.0116757 -3.6281e-18)
(-0.0429329 -0.0259268 -7.71754e-19)
(-0.0562447 -0.0330021 2.92728e-20)
(-0.0522518 -0.0313844 -5.78307e-18)
(-0.00212471 -0.0279107 1.50842e-18)
(0.201947 0.0205836 -7.61508e-19)
(0.549783 0.121031 9.18301e-19)
(0.818667 0.201829 3.17874e-18)
(0.997348 0.256312 -1.16423e-18)
(1.09881 0.293168 -3.79756e-18)
(1.15553 0.315553 -5.0778e-19)
(1.1822 0.324065 -5.35356e-19)
(1.19623 0.332531 -1.15046e-18)
(1.207 0.331977 -2.34538e-18)
(-0.0156915 0.00280709 2.26607e-19)
(-0.0326019 -0.00441746 9.8035e-19)
(-0.046639 -0.0157992 -2.53283e-18)
(-0.050421 -0.0196581 1.05335e-18)
(-0.0317166 -0.0163437 2.40171e-18)
(0.063248 -0.0144539 -1.0282e-18)
(0.367777 0.0767032 -2.01537e-19)
(0.696425 0.167564 -2.38981e-18)
(0.925271 0.236234 4.97379e-19)
(1.06337 0.277428 -1.84104e-18)
(1.13726 0.306635 1.78233e-18)
(1.17299 0.319846 -1.42254e-18)
(1.18955 0.325575 2.39627e-18)
(1.19941 0.332444 -8.53815e-19)
(1.20558 0.329146 -1.68202e-18)
(-0.0201731 0.00556896 1.16653e-18)
(-0.0383084 0.00200178 7.30156e-19)
(-0.0472529 -0.00636009 6.56836e-19)
(-0.0406246 -0.00661812 1.61524e-19)
(-0.00603547 -0.00695212 1.10413e-18)
(0.164577 0.0172139 -2.62018e-18)
(0.526951 0.125862 1.45795e-18)
(0.820796 0.20688 3.44575e-18)
(1.0071 0.26315 -3.8744e-19)
(1.11207 0.294813 2.68365e-18)
(1.16115 0.315378 1.58446e-18)
(1.18457 0.323269 2.87738e-19)
(1.19436 0.32727 4.73025e-19)
(1.19909 0.330941 8.91448e-19)
(1.20444 0.327435 1.98318e-18)
(-0.0233795 0.00742122 1.76746e-18)
(-0.042097 0.00692444 2.51356e-18)
(-0.0453541 0.00141583 -2.2582e-18)
(-0.0294633 0.00397607 2.04703e-18)
(0.0339162 -0.00589217 -4.71681e-18)
(0.308552 0.067304 1.13073e-18)
(0.667379 0.169801 -4.03027e-19)
(0.920473 0.239648 -2.13509e-18)
(1.06876 0.285091 -3.8745e-18)
(1.1445 0.307152 -1.51155e-18)
(1.17749 0.322496 -3.74122e-18)
(1.19151 0.325646 2.27106e-18)
(1.19545 0.327839 -2.94647e-18)
(1.19918 0.330426 1.9067e-18)
(1.20325 0.326124 1.24008e-18)
(-0.0255502 0.00835695 -4.18311e-18)
(-0.0443082 0.00995796 1.41589e-19)
(-0.0414786 0.00758326 3.00513e-19)
(-0.0183955 0.00802601 5.68267e-19)
(0.100202 0.00234769 3.36265e-19)
(0.464454 0.115884 2.21846e-18)
(0.789996 0.207347 1.21947e-18)
(1.00006 0.266446 -3.41316e-19)
(1.11338 0.30152 1.72823e-18)
(1.16735 0.317211 1.12466e-18)
(1.1872 0.327575 5.07963e-19)
(1.19466 0.327101 -1.26825e-18)
(1.19651 0.329489 4.05149e-18)
(1.19834 0.329674 6.74152e-19)
(1.20056 0.324603 -1.3579e-18)
(-0.0270805 0.00845504 3.83915e-18)
(-0.0451502 0.0110742 -2.74115e-18)
(-0.0370327 0.0123045 8.75069e-19)
(-0.00112913 0.00347012 -8.84424e-20)
(0.206349 0.038224 4.44907e-18)
(0.602055 0.15878 -3.66263e-19)
(0.889989 0.239603 -1.46892e-18)
(1.05982 0.288033 3.58674e-18)
(1.14507 0.314792 3.38043e-19)
(1.18133 0.324642 1.44593e-18)
(1.19263 0.331459 -2.91243e-18)
(1.19677 0.328984 7.12778e-20)
(1.19577 0.330571 -1.25224e-18)
(1.19669 0.328844 -2.33356e-19)
(1.19874 0.324224 -7.79429e-19)
(-0.0283948 0.00777659 -1.02713e-18)
(-0.044664 0.011025 2.85375e-18)
(-0.0337036 0.014183 1.72538e-18)
(0.0334299 -0.0062188 1.37219e-18)
(0.350488 0.0880297 -7.1866e-19)
(0.725194 0.196762 -2.93479e-19)
(0.971291 0.266337 1.91756e-18)
(1.10551 0.305471 -1.52079e-18)
(1.16688 0.324741 4.65968e-19)
(1.19041 0.330667 -2.44367e-18)
(1.19583 0.334847 1.76223e-19)
(1.19668 0.330306 3.59716e-19)
(1.19471 0.332104 -5.16485e-19)
(1.19549 0.328642 -3.00719e-18)
(1.1959 0.323746 1.22116e-18)
(-0.0297542 0.0064315 -1.79931e-18)
(-0.0431633 0.0111342 -2.25049e-18)
(-0.0302092 0.0111765 1.19059e-18)
(0.0957272 -0.00188438 -1.57394e-19)
(0.495893 0.132286 -1.83639e-18)
(0.83074 0.229118 -7.25408e-20)
(1.03471 0.288454 -1.34689e-18)
(1.13788 0.31924 -2.66076e-18)
(1.18113 0.332821 -1.08231e-18)
(1.19526 0.335643 1.00603e-18)
(1.1965 0.337459 9.1318e-19)
(1.19626 0.332183 -9.26277e-20)
(1.19332 0.333718 -1.40311e-18)
(1.19318 0.32804 2.49373e-18)
(1.19298 0.323892 7.50445e-19)
(-0.0310698 0.00471951 1.76635e-18)
(-0.0418327 0.0119647 7.54903e-22)
(-0.0207426 0.00254922 -2.91582e-18)
(0.191804 0.0324219 -6.30066e-20)
(0.619774 0.171937 4.42766e-19)
(0.917311 0.258046 8.00043e-19)
(1.08369 0.307015 -1.42751e-18)
(1.16142 0.330478 7.35271e-19)
(1.19036 0.339263 -3.29854e-20)
(1.19773 0.339805 8.13905e-19)
(1.19667 0.340162 -7.24597e-19)
(1.19492 0.333985 -2.00686e-18)
(1.19117 0.335202 -9.61158e-20)
(1.19123 0.328095 -1.20574e-18)
(1.19011 0.324549 -1.00856e-18)
(-0.0320783 0.00350062 7.1563e-19)
(-0.0419038 0.0120567 -1.4651e-18)
(0.0044128 -0.00979358 1.48305e-18)
(0.321909 0.0822227 -4.64468e-19)
(0.73069 0.206924 -2.54851e-19)
(0.988335 0.282038 -7.16519e-19)
(1.12091 0.322102 1.12871e-18)
(1.17725 0.339427 7.25906e-19)
(1.1955 0.344649 -4.31712e-19)
(1.19835 0.343686 -1.21901e-18)
(1.1954 0.342515 -4.37692e-19)
(1.19309 0.336051 2.05516e-18)
(1.18919 0.336989 1.23904e-18)
(1.18865 0.328081 1.19734e-18)
(1.18643 0.325274 -3.59612e-19)
(-0.0326923 0.00400235 -4.51457e-19)
(-0.0428353 0.00915674 1.61235e-19)
(0.0521591 -0.0146876 -6.10658e-19)
(0.460444 0.12679 -1.58029e-20)
(0.827582 0.236885 -4.6844e-19)
(1.04422 0.302436 -6.95868e-19)
(1.1479 0.334799 2.44071e-19)
(1.18782 0.347074 -1.43915e-18)
(1.1983 0.349476 1.27332e-18)
(1.19782 0.347195 1.61505e-18)
(1.19402 0.345062 2.02706e-19)
(1.19106 0.338331 -1.78139e-18)
(1.18651 0.338531 -1.70646e-18)
(1.1859 0.328438 -1.26404e-18)
(1.18318 0.326688 4.92126e-19)
(-0.032886 0.00693015 -1.44629e-18)
(-0.0419047 0.00317589 3.95903e-19)
(0.122528 0.00133715 -2.82861e-19)
(0.580291 0.165215 3.59901e-21)
(0.90913 0.264771 -1.21949e-19)
(1.08847 0.320154 -2.63836e-19)
(1.16765 0.345367 4.92998e-19)
(1.19439 0.35349 -2.80491e-19)
(1.19902 0.353751 -3.64855e-19)
(1.19648 0.350688 -7.03102e-19)
(1.19185 0.347562 -6.21013e-19)
(1.1884 0.340652 -2.83464e-19)
(1.18388 0.340306 1.06032e-18)
(1.18299 0.329091 -4.19119e-20)
(1.17916 0.328027 8.01066e-19)
(-0.0329455 0.0114118 6.0187e-19)
(-0.0341802 -0.00579997 1.01137e-18)
(0.217502 0.0396704 1.64761e-19)
(0.683469 0.200284 6.28682e-19)
(0.976551 0.289342 1.35816e-18)
(1.12262 0.335401 4.96862e-19)
(1.18118 0.354466 1.82429e-18)
(1.19796 0.359291 9.57729e-19)
(1.19867 0.357985 6.04498e-19)
(1.19455 0.354117 1.37869e-18)
(1.18952 0.350225 4.23836e-19)
(1.18576 0.343248 7.68506e-19)
(1.18082 0.341986 3.78239e-19)
(1.17957 0.329915 1.71878e-19)
(1.17534 0.329783 5.59706e-19)
(-0.0334763 0.0146397 8.35318e-19)
(-0.0144601 -0.0145081 -1.43113e-18)
(0.331876 0.0860189 -2.75732e-19)
(0.774235 0.230451 6.4482e-19)
(1.03083 0.310599 -1.36526e-18)
(1.14837 0.348683 -5.55071e-19)
(1.1905 0.362484 -1.12447e-18)
(1.19966 0.364621 -3.67141e-20)
(1.19732 0.362004 -2.99575e-19)
(1.19219 0.357592 -1.16104e-18)
(1.18677 0.352992 8.78201e-19)
(1.18254 0.345822 6.67693e-20)
(1.17757 0.343776 -3.673e-20)
(1.17614 0.331156 3.03297e-19)
(1.17112 0.331546 -6.84489e-19)
(-0.0346707 0.0135813 -6.04544e-20)
(0.019392 -0.0175187 6.16316e-19)
(0.450956 0.129196 1.69249e-19)
(0.854191 0.257805 -9.00713e-19)
(1.07424 0.328893 6.01258e-19)
(1.16728 0.360099 1.90933e-19)
(1.19625 0.369714 -5.00679e-19)
(1.19972 0.369767 -2.37012e-19)
(1.19539 0.366193 -7.16332e-19)
(1.18947 0.361184 1.25657e-19)
(1.18375 0.355898 -8.50835e-19)
(1.17929 0.348621 -5.97686e-19)
(1.1741 0.345643 1.58249e-19)
(1.17219 0.33252 1.60259e-19)
(1.16676 0.333396 -2.7647e-19)
(-0.0362827 0.00630826 -3.10559e-19)
(0.0672585 -0.0120597 -1.93127e-19)
(0.559563 0.167673 4.37915e-19)
(0.924252 0.283576 7.74278e-19)
(1.10893 0.345137 1.48945e-19)
(1.18069 0.370199 -4.11935e-19)
(1.19947 0.376434 5.18328e-19)
(1.19886 0.374861 4.50618e-19)
(1.19295 0.370396 2.33287e-19)
(1.18643 0.364848 4.37627e-20)
(1.18045 0.358958 2.73942e-19)
(1.17558 0.351424 1.19679e-19)
(1.17026 0.34755 -8.227e-20)
(1.16818 0.334224 -1.03727e-19)
(1.16233 0.335326 8.92746e-20)
(-0.03757 -0.0071014 -1.44474e-19)
(0.13049 0.00314266 -1.67258e-19)
(0.653979 0.201524 1.34653e-19)
(0.983679 0.307901 -1.8405e-19)
(1.13651 0.360101 -3.895e-19)
(1.19003 0.379359 3.02307e-20)
(1.20068 0.382811 2.38829e-19)