/*--------------------------------*- C++ -*----------------------------------*\
  =========                 |
  \\      /  F ield         | OpenFOAM: The Open Source CFD Toolbox
   \\    /   O peration     | Website:  https://openfoam.org
    \\  /    A nd           | Version:  7
     \\/     M anipulation  |
\*---------------------------------------------------------------------------*/
FoamFile
{
    version     2.0;
    format      ascii;
    class       surfaceScalarField;
    location    "23.001";
    object      phi;
}
// * * * * * * * * * * * * * * * * * * * * * * * * * * * * * * * * * * * * * //

dimensions      [0 3 -1 0 0 0 0];

internalField   nonuniform List<scalar> 
37105
(
-1.12628e-05
1.11261e-05
1.36771e-07
-2.62573e-05
1.48363e-05
1.58164e-07
-4.17723e-05
1.5376e-05
1.38949e-07
-5.79367e-05
1.60451e-05
1.19288e-07
-7.48171e-05
1.6783e-05
9.74934e-08
-9.24517e-05
1.75616e-05
7.29255e-08
-0.000110868
1.83711e-05
4.50795e-08
-0.000130078
1.91965e-05
1.35101e-08
-0.000150104
2.00473e-05
-2.14261e-08
-0.000170978
2.09347e-05
-6.02993e-08
-0.000192756
2.18802e-05
-1.02843e-07
-0.000215489
2.28829e-05
-1.48982e-07
-0.000239228
2.39378e-05
-1.98724e-07
-0.000264027
2.50503e-05
-2.51642e-07
2.62935e-05
-3.05748e-07
-0.000290015
-1.10925e-05
2.22186e-05
-2.59228e-05
2.96666e-05
-4.12769e-05
3.07301e-05
-5.72643e-05
3.20326e-05
-7.39474e-05
3.3466e-05
-9.13562e-05
3.49704e-05
-0.00010951
3.65252e-05
-0.000128412
3.80987e-05
-0.000148074
3.97088e-05
-0.000168514
4.1375e-05
-0.000189774
4.31404e-05
-0.000211899
4.50075e-05
-0.000234932
4.69704e-05
-0.000258917
4.90357e-05
5.13289e-05
-0.000283952
-1.07536e-05
3.29722e-05
-2.52577e-05
4.41706e-05
-4.02925e-05
4.5765e-05
-5.59304e-05
4.76704e-05
-7.22253e-05
4.97609e-05
-8.91926e-05
5.19378e-05
-0.000106837
5.41696e-05
-0.000125145
5.64067e-05
-0.000144108
5.86722e-05
-0.000163724
6.0991e-05
-0.000184012
6.34284e-05
-0.000205002
6.59972e-05
-0.000226731
6.86988e-05
-0.000249227
7.15319e-05
7.46379e-05
-0.000272536
-1.02524e-05
4.32247e-05
-2.42739e-05
5.8192e-05
-3.8838e-05
6.03291e-05
-5.39647e-05
6.27971e-05
-6.96963e-05
6.54925e-05
-8.60282e-05
6.82697e-05
-0.000102946
7.10869e-05
-0.000120414
7.38754e-05
-0.000138403
7.66614e-05
-0.000156884
7.94721e-05
-0.000175852
8.23962e-05
-0.000195321
8.54661e-05
-0.000215324
8.87014e-05
-0.000235877
9.20853e-05
9.57368e-05
-0.000256976
-9.60061e-06
5.28253e-05
-2.29883e-05
7.15797e-05
-3.69393e-05
7.42801e-05
-5.14086e-05
7.72664e-05
-6.64225e-05
8.05065e-05
-8.19534e-05
8.38005e-05
-9.79643e-05
8.70978e-05
-0.0001144
9.03111e-05
-0.000131207
9.34687e-05
-0.000148334
9.65987e-05
-0.000165753
9.98151e-05
-0.000183466
0.000103179
-0.000201507
0.000106742
-0.000219894
0.000110472
0.000114435
-0.000238592
-8.82859e-06
6.16539e-05
-2.14206e-05
8.41717e-05
-3.46271e-05
8.74866e-05
-4.83114e-05
9.09507e-05
-6.24773e-05
9.46723e-05
-7.70724e-05
9.83956e-05
-9.20383e-05
0.000102064
-0.0001073
0.000105573
-0.000122786
0.000108954
-0.000138425
0.000112238
-0.000154175
0.000115565
-0.000170029
0.000119034
-0.000186029
0.000122742
-0.000202207
0.00012665
0.000130758
-0.00021853
-7.91043e-06
6.95643e-05
-1.95799e-05
9.58411e-05
-3.19345e-05
9.98413e-05
-4.47277e-05
0.000103744
-5.79397e-05
0.000107884
-7.14953e-05
0.000111951
-8.53165e-05
0.000115885
-9.93115e-05
0.000119568
-0.000113395
0.000123038
-0.000127486
0.000126329
-0.000141531
0.00012961
-0.000155521
0.000133024
-0.000169506
0.000136726
-0.000183547
0.000140692
0.000144841
-0.00019763
-6.8453e-06
7.64096e-05
-1.74799e-05
0.000106476
-2.88962e-05
0.000111258
-4.0714e-05
0.000115562
-5.289e-05
0.00012006
-6.53308e-05
0.000124392
-7.7942e-05
0.000128496
-9.06184e-05
0.000132244
-0.000103266
0.000135686
-0.0001158
0.000138863
-0.000128163
0.000141973
-0.000140343
0.000145204
-0.000152396
0.000148779
-0.000164414
0.00015271
0.000156837
-0.00017641
-5.65125e-06
8.20608e-05
-1.51417e-05
0.000115966
-2.55491e-05
0.000121665
-3.63265e-05
0.000126339
-4.74058e-05
0.00013114
-5.86815e-05
0.000135668
-7.00457e-05
0.00013986
-8.13837e-05
0.000143582
-9.25961e-05
0.000146898
-0.000103598
0.000149865
-0.000114333
0.000152708
-0.000124784
0.000155654
-0.000135002
0.000158997
-0.000145099
0.000162807
0.000166857
-0.000155119
-4.34004e-06
8.64009e-05
-1.25887e-05
0.000124215
-2.19323e-05
0.000131009
-3.16198e-05
0.000136027
-4.15602e-05
0.00014108
-5.1641e-05
0.000145749
-6.17437e-05
0.000149963
-7.1746e-05
0.000153585
-8.15447e-05
0.000156697
-9.10571e-05
0.000159377
-0.000100229
0.00016188
-0.000109033
0.000164459
-0.000117502
0.000167467
-0.000125745
0.000171049
0.000174947
-0.000133834
-2.91722e-06
8.93181e-05
-9.84783e-06
0.000131145
-1.80839e-05
0.000139245
-2.66452e-05
0.000144588
-3.54202e-05
0.000149855
-4.42928e-05
0.000154621
-5.31351e-05
0.000158805
-6.18193e-05
0.000162269
-7.02385e-05
0.000165116
-7.83094e-05
0.000167448
-8.59791e-05
0.000169549
-9.32118e-05
0.000171691
-9.99992e-05
0.000174254
-0.000106409
0.000177459
0.000181096
-0.000112559
-1.37262e-06
9.06907e-05
-6.95707e-06
0.00013673
-1.40416e-05
0.000146329
-2.14495e-05
0.000151996
-2.90468e-05
0.000157452
-3.67108e-05
0.000162285
-4.43047e-05
0.000166399
-5.1697e-05
0.000169661
-5.87757e-05
0.000172195
-6.54524e-05
0.000174125
-7.16703e-05
0.000175767
-7.73875e-05
0.000177409
-8.25479e-05
0.000179414
-8.7128e-05
0.000182039
0.000185266
-9.12979e-05
2.85201e-07
9.04055e-05
-3.96161e-06
0.000140977
-9.83214e-06
0.0001522
-1.60762e-05
0.00015824
-2.24963e-05
0.000163872
-2.89601e-05
0.000168749
-3.53235e-05
0.000172763
-4.14534e-05
0.000175791
-4.72317e-05
0.000177973
-5.25594e-05
0.000179453
-5.73646e-05
0.000180573
-6.16024e-05
0.000181646
-6.51968e-05
0.000183009
-6.79744e-05
0.000184817
0.000187335
-7.00434e-05
1.74863e-06
8.86569e-05
-9.1575e-07
0.000143641
-5.48971e-06
0.000156774
-1.05694e-05
0.00016332
-1.58202e-05
0.000169123
-2.10988e-05
0.000174028
-2.62537e-05
0.000177917
-3.11517e-05
0.000180689
-3.56672e-05
0.000182489
-3.96871e-05
0.000183472
-4.31132e-05
0.000183999
-4.58829e-05
0.000184416
-4.7945e-05
0.000185071
-4.90478e-05
0.00018592
0.000186975
-4.8688e-05
3.33488e-06
8.5322e-05
2.30691e-06
0.000144669
-1.07551e-06
0.000160156
-4.97435e-06
0.000167218
-9.07037e-06
0.000173219
-1.31802e-05
0.000178137
-1.71503e-05
0.000181888
-2.08453e-05
0.000184384
-2.41322e-05
0.000185776
-2.68805e-05
0.000186221
-2.89645e-05
0.000186083
-3.02717e-05
0.000185723
-3.07619e-05
0.000185561
-3.03153e-05
0.000185473
0.000184509
-2.78493e-05
4.95006e-06
8.0372e-05
5.58247e-06
0.000144037
3.50605e-06
0.000162233
6.57997e-07
0.000170066
-2.31116e-06
0.000176188
-5.26112e-06
0.000181087
-8.07089e-06
0.000184697
-1.05891e-05
0.000186902
-1.26768e-05
0.000187863
-1.41784e-05
0.000187722
-1.49569e-05
0.000186861
-1.48371e-05
0.000185604
-1.36938e-05
0.000184418
-1.15597e-05
0.000183339
0.000180696
-7.74689e-06
6.52935e-06
7.38426e-05
8.85947e-06
0.000141706
8.10791e-06
0.000162984
6.42714e-06
0.000171747
4.53334e-06
0.000178082
2.64745e-06
0.000182973
9.14389e-07
0.00018643
-4.85196e-07
0.000188302
-1.37659e-06
0.000188755
-1.64257e-06
0.000187988
-1.12296e-06
0.000186342
3.73955e-07
0.000184107
2.98641e-06
0.000181805
6.90622e-06
0.000179419
0.000175384
1.22185e-05
8.00605e-06
6.58366e-05
1.20751e-05
0.000137637
1.26814e-05
0.000162378
1.2128e-05
0.000172301
1.13322e-05
0.000178878
1.05498e-05
0.000183756
9.94391e-06
0.000187036
9.66743e-06
0.000188578
9.88521e-06
0.000188537
1.07783e-05
0.000187095
1.25057e-05
0.000184614
1.53356e-05
0.000181277
1.95118e-05
0.000177629
2.47186e-05
0.000174212
0.000168164
3.19391e-05
9.29076e-06
5.65458e-05
1.51355e-05
0.000131793
1.71753e-05
0.000160338
1.77585e-05
0.000171717
1.80185e-05
0.000178618
1.82939e-05
0.00018348
1.87571e-05
0.000186573
1.95625e-05
0.000187773
2.0896e-05
0.000187203
2.295e-05
0.000185041
2.58878e-05
0.000181676
2.99723e-05
0.000177192
3.56831e-05
0.000171918
4.23523e-05
0.000167543
0.000159409
5.1107e-05
1.02561e-05
4.62897e-05
1.79228e-05
0.000124126
2.15133e-05
0.000156748
2.32683e-05
0.000169962
2.45583e-05
0.000177328
2.58534e-05
0.000182185
2.73528e-05
0.000185074
2.92134e-05
0.000185912
3.16262e-05
0.00018479
3.48277e-05
0.00018184
3.8986e-05
0.000177518
4.42314e-05
0.000171947
5.14896e-05
0.00016466
5.97021e-05
0.000159331
0.000149291
6.98196e-05
1.07296e-05
3.55602e-05
2.02986e-05
0.000114557
2.55964e-05
0.00015145
2.85852e-05
0.000166973
3.08987e-05
0.000175015
3.31818e-05
0.000179902
3.56817e-05
0.000182574
3.85691e-05
0.000183025
4.20252e-05
0.000181334
4.63372e-05
0.000177528
5.17529e-05
0.000172102
5.80686e-05
0.000165631
6.67992e-05
0.000155929
7.66452e-05
0.000149485
0.000137689
8.8248e-05
1.05261e-05
2.50341e-05
2.21216e-05
0.000102962
2.92947e-05
0.000144277
3.36162e-05
0.000162652
3.69747e-05
0.000171656
4.02238e-05
0.000176653
4.36862e-05
0.000179111
4.75663e-05
0.000179145
5.20329e-05
0.000176868
5.7362e-05
0.000172199
6.41045e-05
0.00016536
7.144e-05
0.000158296
8.15052e-05
0.000145864
9.3025e-05
0.000137965
0.000124272
0.000106442
9.56384e-06
1.54702e-05
2.32588e-05
8.92666e-05
3.24394e-05
0.000135096
3.82418e-05
0.00015685
4.27127e-05
0.000167185
4.69185e-05
0.000172447
5.12952e-05
0.000174735
5.61234e-05
0.000174317
6.15982e-05
0.000171393
6.78064e-05
0.00016599
7.59326e-05
0.000157234
8.43201e-05
0.000149908
9.54539e-05
0.00013473
0.000108463
0.000124956
0.000108388
0.000124347
7.99106e-06
7.47915e-06
2.35471e-05
7.37106e-05
3.48246e-05
0.000123819
4.23228e-05
0.000149351
4.80185e-05
0.000161489
5.31924e-05
0.000167273
5.84425e-05
0.000169484
6.41397e-05
0.000168619
7.06507e-05
0.000164882
7.7592e-05
0.000159049
8.70541e-05
0.000147772
9.67134e-05
0.000140249
0.0001089
0.000122544
0.000122479
0.000111377
8.96353e-05
0.000141232
6.11844e-06
1.36071e-06
2.27725e-05
5.70565e-05
3.62316e-05
0.000110359
4.56902e-05
0.000139893
5.27745e-05
0.000154405
5.89498e-05
0.000161098
6.50487e-05
0.000163386
7.1486e-05
0.000162182
7.91012e-05
0.000157267
8.66885e-05
0.000151462
9.72078e-05
0.000137252
0.000108221
0.000129235
0.000122267
0.000108498
0.000135724
9.79198e-05
6.87484e-05
0.000156611
4.21575e-06
-2.85505e-06
2.0747e-05
4.05252e-05
3.64523e-05
9.46541e-05
4.81394e-05
0.000128206
5.68045e-05
0.00014574
6.40632e-05
0.000153839
7.10545e-05
0.000156394
7.80594e-05
0.000155177
8.67519e-05
0.000148574
9.50935e-05
0.00014312
0.000106375
0.000125971
0.000118231
0.000117379
0.000134858
9.18713e-05
0.000148765
8.40126e-05
4.63777e-05
0.000171136
2.4563e-06
-5.31134e-06
1.75215e-05
2.546e-05
3.53137e-05
7.68619e-05
4.93856e-05
0.000114134
5.98854e-05
0.00013524
6.8334e-05
0.000145391
7.63298e-05
0.000148398
8.38316e-05
0.000147675
9.33942e-05
0.000139012
0.000102662
0.000133852
0.000114713
0.000113919
0.00012677
0.000105323
0.000145543
7.30985e-05
0.000160734
6.8821e-05
2.2567e-05
0.000184545
1.07243e-06
-6.38377e-06
1.35295e-05
1.3003e-05
3.26936e-05
5.76977e-05
4.9083e-05
9.77444e-05
6.16995e-05
0.000122624
7.15271e-05
0.000135563
8.0668e-05
0.000139258
8.86891e-05
0.000139654
9.87701e-05
0.000128931
0.00010911
0.000123512
0.000122151
0.000100879
0.000134432
9.30421e-05
0.000154008
5.35221e-05
0.000170988
5.18407e-05
-2.38051e-06
0.000195936
2.5157e-07
-6.63535e-06
9.52211e-06
3.73243e-06
2.84335e-05
3.87863e-05
4.68611e-05
7.93168e-05
6.18865e-05
0.000107598
7.32726e-05
0.000124177
8.37507e-05
0.00012878
9.26512e-05
0.000130754
0.000102681
0.000118901
0.000113841
0.000112352
0.000127779
8.69406e-05
0.000141783
7.90382e-05
0.000159441
3.58639e-05
0.000179409
3.18732e-05
-2.81865e-05
0.000205215
-1.04417e-07
-6.53093e-06
6.14405e-06
-2.51603e-06
2.27532e-05
2.21771e-05
4.24602e-05
5.96098e-05
5.99742e-05
9.00844e-05
7.32574e-05
0.000110894
8.49403e-05
0.000117097
9.52912e-05
0.000120403
0.000105404
0.000108788
0.000117234
0.000100523
0.000129584
7.45906e-05
0.000147588
6.10337e-05
0.00016139
2.20623e-05
0.000186145
7.1183e-06
-5.13237e-05
0.000209282
-1.5569e-07
-6.37524e-06
3.78123e-06
-6.45295e-06
1.672e-05
9.23836e-06
3.60204e-05
4.03095e-05
5.54773e-05
7.06275e-05
7.09523e-05
9.54187e-05
8.39199e-05
0.000104129
9.56388e-05
0.000108684
0.000105871
9.85563e-05
0.000119754
8.6639e-05
0.000129369
6.49762e-05
0.00015048
3.99227e-05
0.000161974
1.05684e-05
0.00018826
-1.91678e-05
-6.89014e-05
0.000205837
2.67313e-08
-6.40197e-06
2.64e-06
-9.06623e-06
1.16815e-05
1.96832e-07
2.84164e-05
2.35746e-05
4.82807e-05
5.07632e-05
6.57668e-05
7.79326e-05
7.98679e-05
9.0028e-05
9.37781e-05
9.47737e-05
0.000103243
8.90916e-05
0.00011988
7.00016e-05
0.000127405
5.74512e-05
0.000151097
1.62312e-05
0.000158385
3.27971e-06
0.000188858
-4.96405e-05
-8.11049e-05
0.000201061
3.23091e-07
-6.72506e-06
2.41456e-06
-1.11577e-05
8.39755e-06
-5.78617e-06
2.12077e-05
1.07645e-05
3.91042e-05
3.28667e-05
5.75467e-05
5.949e-05
7.23895e-05
7.51852e-05
8.79604e-05
7.92028e-05
9.83068e-05
7.87453e-05
0.000114449
5.38592e-05
0.000124902
4.69986e-05
0.0001473
-6.16721e-06
0.000154628
-4.0483e-06
0.000188646
-8.36586e-05
-7.63845e-05
0.000183926
6.65593e-07
-7.39065e-06
2.58024e-06
-1.30723e-05
6.66921e-06
-9.87513e-06
1.55635e-05
1.87025e-06
2.95579e-05
1.88722e-05
4.67816e-05
4.22664e-05
6.19763e-05
5.99905e-05
7.71696e-05
6.40095e-05
8.97737e-05
6.61412e-05
0.000103604
4.00284e-05
0.000117032
3.35707e-05
0.00013248
-2.16152e-05
0.000144985
-1.65527e-05
0.000167532
-0.000106206
-7.86261e-05
0.000169774
9.05419e-07
-8.29607e-06
2.6426e-06
-1.48095e-05
5.56386e-06
-1.27964e-05
1.1346e-05
-3.91186e-06
2.0964e-05
9.25417e-06
3.47366e-05
2.84938e-05
4.89702e-05
4.57568e-05
6.25311e-05
5.04486e-05
7.53167e-05
5.33556e-05
8.79813e-05
2.73638e-05
0.000101669
1.98827e-05
0.000110035
-2.99806e-05
0.000127258
-3.37757e-05
0.000138777
-0.000117725
-0.000124418
0.000184569
9.10664e-07
-9.20674e-06
2.20346e-06
-1.61023e-05
4.08541e-06
-1.46783e-05
7.53898e-06
-7.36543e-06
1.33411e-05
3.45205e-06
2.27338e-05
1.91011e-05
3.42708e-05
3.42199e-05
4.52866e-05
3.94328e-05
5.66182e-05
4.20239e-05
6.75685e-05
1.64136e-05
8.08011e-05
6.64999e-06
8.91789e-05
-3.83583e-05
0.000119711
-6.43079e-05
0.000155774
-0.000153788
-0.000196312
0.000227668
6.0417e-07
-9.8109e-06
1.06901e-06
-1.65672e-05
1.69083e-06
-1.53002e-05
3.13871e-06
-8.81331e-06
5.84144e-06
7.4932e-07
1.11609e-05
1.37816e-05
1.88477e-05
2.65331e-05
2.6964e-05
3.13164e-05
3.59703e-05
3.30176e-05
4.39079e-05
8.47594e-06
6.04666e-05
-9.90864e-06
8.53513e-05
-6.3243e-05
0.000138694
-0.00011765
0.000192639
-0.000207734
-0.000257319
0.000253646
-1.29486e-08
-9.79796e-06
-7.21192e-07
-1.58589e-05
-1.63187e-06
-1.43895e-05
-2.19503e-06
-8.25015e-06
-2.21762e-06
7.71909e-07
-3.12437e-07
1.18765e-05
3.02945e-06
2.31912e-05
8.15997e-06
2.61859e-05
1.50752e-05
2.61024e-05
2.65798e-05
-3.0287e-06
5.9777e-05
-4.31058e-05
0.000108929
-0.000112395
0.000172369
-0.00018109
0.000218884
-0.000254248
-0.000300823
0.000262387
-8.55762e-07
-8.94219e-06
-2.92569e-06
-1.3789e-05
-5.51401e-06
-1.18012e-05
-8.1414e-06
-5.62275e-06
-1.06129e-05
3.24337e-06
-1.24401e-05
1.37037e-05
-1.26718e-05
2.34229e-05
-9.21402e-06
2.27281e-05
3.47559e-06
1.34128e-05
3.27032e-05
-3.22563e-05
8.56092e-05
-9.60117e-05
0.000142873
-0.000169658
0.000195724
-0.000233942
0.000232152
-0.000290676
-0.000333437
0.000264766
-1.76564e-06
-7.17656e-06
-5.19291e-06
-1.03617e-05
-9.38917e-06
-7.6049e-06
-1.39323e-05
-1.07959e-06
-1.85112e-05
7.82222e-06
-2.26227e-05
1.78152e-05
-2.4101e-05
2.49013e-05
-1.66345e-05
1.52616e-05
1.15651e-05
-1.47868e-05
6.04152e-05
-8.11064e-05
0.000118043
-0.000153639
0.000167487
-0.000219103
0.000207654
-0.00027411
0.00023713
-0.000320152
-0.000357226
0.00026092
-2.53677e-06
-4.63979e-06
-7.02658e-06
-5.8719e-06
-1.23902e-05
-2.24125e-06
-1.80612e-05
4.59134e-06
-2.34676e-05
1.32286e-05
-2.70823e-05
2.143e-05
-2.52511e-05
2.307e-05
-6.37651e-06
-3.61297e-06
3.72435e-05
-5.84069e-05
9.16921e-05
-0.000135555
0.00014152
-0.000203467
0.000181513
-0.000259095
0.000212737
-0.000305334
0.000235838
-0.000343253
-0.000376874
0.000255486
-2.98524e-06
-1.65455e-06
-8.00439e-06
-8.52754e-07
-1.3723e-05
3.47732e-06
-1.93612e-05
1.02296e-05
-2.38006e-05
1.7668e-05
-2.43091e-05
2.19385e-05
-1.51749e-05
1.39358e-05
1.69503e-05
-3.57382e-05
6.74255e-05
-0.000108882
0.000115889
-0.000184019
0.000156544
-0.000244122
0.000188597
-0.000291148
0.000212932
-0.00032967
0.000232146
-0.000362467
-0.000393169
0.000248441
-3.03246e-06
1.37791e-06
-7.97623e-06
4.09102e-06
-1.3264e-05
8.76506e-06
-1.77908e-05
1.47565e-05
-2.00128e-05
1.989e-05
-1.66075e-05
1.85332e-05
2.50628e-06
-5.17793e-06
4.37643e-05
-7.69963e-05
9.16002e-05
-0.000156718
0.000132729
-0.000225147
0.000165374
-0.000276767
0.000190739
-0.000316513
0.000210502
-0.000349433
0.000226262
-0.000378226
-0.000407252
0.000240345
-2.72478e-06
4.10269e-06
-7.10734e-06
8.47358e-06
-1.14145e-05
1.30722e-05
-1.42812e-05
1.76232e-05
-1.38001e-05
1.94089e-05
-6.16456e-06
1.08976e-05
2.27206e-05
-3.40631e-05
6.74836e-05
-0.000121759
0.000109438
-0.000198673
0.000143491
-0.0002592
0.000169561
-0.000302837
0.000189919
-0.000336871
0.000205895
-0.000365409
0.000219585
-0.000391916
-0.000420197
0.00023253
-2.18343e-06
6.28612e-06
-5.71538e-06
1.20055e-05
-8.8063e-06
1.61631e-05
-9.99708e-06
1.8814e-05
-7.47535e-06
1.68871e-05
6.92797e-06
-3.50574e-06
4.43833e-05
-7.15184e-05
8.61156e-05
-0.000163492
0.000121952
-0.000234509
0.000149658
-0.000286906
0.00017049
-0.000323668
0.000186818
-0.000353199
0.00020037
-0.000378962
0.000212555
-0.000404101
-0.000431578
0.000223936
-1.55165e-06
7.83777e-06
-4.13724e-06
1.45911e-05
-6.02772e-06
1.80536e-05
-5.69245e-06
1.84788e-05
-1.4296e-06
1.26243e-05
2.13874e-05
-2.63227e-05
6.36365e-05
-0.000113768
0.000100517
-0.000200372
0.000130077
-0.000264069
0.000152259
-0.000309088
0.000168934
-0.000340343
0.00018255
-0.000366816
0.000194155
-0.000390566
0.000205
-0.000414947
-0.000442307
0.00021573
-9.52832e-07
8.7906e-06
-2.64098e-06
1.62793e-05
-3.47458e-06
1.88872e-05
-2.22082e-06
1.7225e-05
6.44271e-06
3.96076e-06
3.7901e-05
-5.7781e-05
7.82156e-05
-0.000154082
0.000110547
-0.000232703
0.000134618
-0.00028814
0.000152278
-0.000326748
0.000165894
-0.000353959
0.00017732
-0.000378241
0.000187519
-0.000400765
0.000197615
-0.000425043
-0.000452008
0.000207316
-4.71752e-07
9.26235e-06
-1.39744e-06
1.7205e-05
-1.27548e-06
1.87652e-05
3.31065e-07
1.56185e-05
1.60482e-05
-1.17564e-05
5.40745e-05
-9.58073e-05
8.96803e-05
-0.000189688
0.000116935
-0.000259958
0.000136401
-0.000307606
0.000150516
-0.000340862
0.00016169
-0.000365134
0.000171598
-0.00038815
0.000180801
-0.000409967
0.000189935
-0.000434177
-0.000460944
0.000198871
-1.57565e-07
9.41992e-06
-4.25967e-07
1.74734e-05
2.65406e-07
1.80738e-05
3.83825e-06
1.20456e-05
2.75927e-05
-3.55109e-05
6.65283e-05
-0.000134743
9.78484e-05
-0.000221008
0.000120308
-0.000282418
0.000135983
-0.000323282
0.000147385
-0.000352264
0.000156862
-0.000374611
0.000165555
-0.000396843
0.000173819
-0.000418231
0.000182349
-0.000442707
-0.000469235
0.000190639
-2.47213e-08
9.44464e-06
2.39372e-07
1.72093e-05
9.82279e-07
1.73309e-05
9.28267e-06
3.74522e-06
4.07883e-05
-6.70165e-05
7.60351e-05
-0.00016999
0.000102977
-0.00024795
0.000121369
-0.00030081
0.000134001
-0.000335914
0.000143409
-0.000361672
0.000151538
-0.000382739
0.000159258
-0.000404563
0.00016689
-0.000425862
0.000174714
-0.000450531
-0.000476691
0.00018217
-1.48633e-08
9.4595e-06
4.89624e-07
1.67048e-05
1.24189e-06
1.65787e-05
1.59474e-05
-1.09603e-05
5.25049e-05
-0.000103574
8.32912e-05
-0.000200776
0.000105626
-0.000270285
0.000120565
-0.000315749
0.000130852
-0.000346201
0.000138746
-0.000369566
0.000145912
-0.000389905
0.000152888
-0.000411539
0.000159823
-0.000432797
0.000167013
-0.000457721
-0.000483649
0.000173972
-3.02285e-08
9.48973e-06
5.63474e-07
1.61111e-05
2.60339e-06
1.45388e-05
2.47166e-05
-3.30735e-05
6.07343e-05
-0.000139592
8.80029e-05
-0.000228045
0.000106377
-0.000288659
0.000118446
-0.000327818
0.000126905
-0.00035466
0.000133703
-0.000376365
0.000140091
-0.000396293
0.000146366
-0.000417814
0.000152772
-0.000439204
0.000159393
-0.000464342
-0.000489874
0.000165618
-3.41449e-08
9.52387e-06
1.30752e-07
1.59462e-05
6.17831e-06
8.4912e-06
3.49535e-05
-6.18487e-05
6.69548e-05
-0.000171593
9.04547e-05
-0.000251544
0.000105576
-0.00030378
0.000115344
-0.000337586
0.000122408
-0.000361723
0.000128341
-0.000382298
0.000134097
-0.000402049
0.000139833
-0.00042355
0.000145686
-0.000445057
0.000151655
-0.000470311
-0.000495601
0.000157382
-1.39341e-07
9.66321e-06
-3.70952e-07
1.61778e-05
1.07987e-05
-2.67842e-06
4.40103e-05
-9.50603e-05
7.15948e-05
-0.000199177
9.10952e-05
-0.000271045
0.000103508
-0.000316193
0.000111546
-0.000345624
0.000117544
-0.000367721
0.000122813
-0.000387567
0.000128038
-0.000407274
0.000133223
-0.000428736
0.000138571
-0.000450405
0.000144021
-0.000475761
-0.000500742
0.000149162
-2.20857e-07
9.88407e-06
-1.89736e-07
1.61467e-05
1.63224e-05
-1.91906e-05
5.00088e-05
-0.000128747
7.45251e-05
-0.000223694
9.05441e-05
-0.000287064
0.000100604
-0.000326253
0.000107252
-0.000352273
0.000112435
-0.000372903
0.000117148
-0.000392281
0.000121876
-0.000412002
0.000126604
-0.000433463
0.000131479
-0.00045528
0.00013632
-0.000480602
-0.000505348
0.000140926
-1.9408e-07
1.00782e-05
1.39815e-06
1.45544e-05
2.35918e-05
-4.13842e-05
5.38553e-05
-0.00015901
7.56398e-05
-0.000245478
8.89523e-05
-0.000300376
9.70779e-05
-0.000334378
0.000102629
-0.000357824
0.000107162
-0.000377436
0.000111406
-0.000396525
0.0001157
-0.000416295
0.000119959
-0.000437723
0.000124344
-0.000459664
0.000128684
-0.000484942
-0.00050948
0.000132816
-2.59485e-07
1.03376e-05
4.20403e-06
1.00909e-05
3.07154e-05
-6.78956e-05
5.68992e-05
-0.000185194
7.5326e-05
-0.000263905
8.64266e-05
-0.000311477
9.31147e-05
-0.000341066
9.78007e-05
-0.00036251
0.000101792
-0.000381427
0.000105612
-0.000400346
0.00010947
-0.000420153
0.000113299
-0.000441552
0.00011724
-0.000463605
0.000121042
-0.000488745
-0.000513092
0.000124654
-3.45765e-07
1.06834e-05
7.39605e-06
2.34912e-06
3.62811e-05
-9.67807e-05
5.88774e-05
-0.00020779
7.40879e-05
-0.000279115
8.32218e-05
-0.000320611
8.8795e-05
-0.00034664
9.28275e-05
-0.000366542
9.63635e-05
-0.000384963
9.97874e-05
-0.00040377
0.000103244
-0.000423609
0.000106646
-0.000444954
0.00011011
-0.00046707
0.000113426
-0.00049206
-0.000516301
0.000116636
-3.71328e-07
1.10547e-05
1.07713e-05
-8.79355e-06
3.96972e-05
-0.000125707
5.98046e-05
-0.000227898
7.22204e-05
-0.000291531
7.9604e-05
-0.000327994
8.42618e-05
-0.000351297
8.77676e-05
-0.000370048
9.0904e-05
-0.000388099
9.39538e-05
-0.00040682
9.70016e-05
-0.000426657
9.99844e-05
-0.000447937
0.000103014
-0.000470099
0.000105854
-0.0004949
-0.000519042
0.000108594
-4.60859e-07
1.15156e-05
1.48886e-05
-2.4143e-05
4.11724e-05
-0.00015199
5.94305e-05
-0.000246156
6.98243e-05
-0.000301925
7.57513e-05
-0.000333922
7.96094e-05
-0.000355156
8.26558e-05
-0.000373095
8.54301e-05
-0.000390873
8.81148e-05
-0.000409505
9.07735e-05
-0.000429316
9.33489e-05
-0.000450512
9.59218e-05
-0.000472672
9.82975e-05
-0.000497276
-0.000521407
0.000100663
-1.70269e-07
1.16859e-05
1.87669e-05
-4.30801e-05
4.21916e-05
-0.000175415
5.80608e-05
-0.000262025
6.68865e-05
-0.000310751
7.17274e-05
-0.000338762
7.49223e-05
-0.00035835
7.75422e-05
-0.000375715
7.99599e-05
-0.000393291
8.22877e-05
-0.000411832
8.45549e-05
-0.000431583
8.67188e-05
-0.000452676
8.8863e-05
-0.000474817
9.08039e-05
-0.000499217
-0.000523332
9.27292e-05
4.89543e-07
1.11963e-05
2.2055e-05
-6.46457e-05
4.26294e-05
-0.000195989
5.61233e-05
-0.000275519
6.35317e-05
-0.000318159
6.75569e-05
-0.000342788
7.0222e-05
-0.000361015
7.2445e-05
-0.000377937
7.45097e-05
-0.000395356
7.64764e-05
-0.000413799
7.83592e-05
-0.000433465
8.01246e-05
-0.000454441
8.18314e-05
-0.000476523
8.33322e-05
-0.000500717
-0.000524859
8.48593e-05
1.49277e-06
9.70355e-06
2.45144e-05
-8.76673e-05
4.25402e-05
-0.000214015
5.38224e-05
-0.000286801
5.99257e-05
-0.000324262
6.32806e-05
-0.000346143
6.55217e-05
-0.000363257
6.7383e-05
-0.000379799
6.90917e-05
-0.000397065
7.06948e-05
-0.000415402
7.21916e-05
-0.000434962
7.3552e-05
-0.000455802
7.48344e-05
-0.000477806
7.5916e-05
-0.000501799
-0.000525946
7.70022e-05
2.997e-06
6.70655e-06
2.60586e-05
-0.000110729
4.20287e-05
-0.000229985
5.131e-05
-0.000296082
5.62183e-05
-0.000329171
5.89637e-05
-0.000348888
6.08271e-05
-0.00036512
6.23508e-05
-0.000381322
6.37117e-05
-0.000398426
6.4948e-05
-0.000416638
6.6059e-05
-0.000436073
6.70231e-05
-0.000456766
6.78785e-05
-0.000478661
6.85178e-05
-0.000502438
-0.000526572
6.91442e-05
4.94197e-06
1.76458e-06
2.67498e-05
-0.000132537
4.10835e-05
-0.000244319
4.86512e-05
-0.00030365
5.24855e-05
-0.000333005
5.46554e-05
-0.000351058
5.61579e-05
-0.000366623
5.73568e-05
-0.000382521
5.83733e-05
-0.000399442
5.92435e-05
-0.000417509
5.99689e-05
-0.000436799
6.05309e-05
-0.000457328
6.09621e-05
-0.000479092
6.11709e-05
-0.000502647
-0.000526728
6.13273e-05
7.10729e-06
-5.34271e-06
2.66338e-05
-0.000152063
3.95781e-05
-0.000257263
4.58533e-05
-0.000309925
4.87692e-05
-0.000335921
5.03957e-05
-0.000352684
5.15305e-05
-0.000367757
5.24018e-05
-0.000383393
5.30788e-05
-0.000400119
5.35853e-05
-0.000418015
5.39247e-05
-0.000437138
5.40881e-05
-0.000457491
5.40963e-05
-0.000479101
5.38643e-05
-0.000502415
-0.000526411
5.3547e-05
9.37146e-06
-1.47142e-05
2.6604e-05
-0.000169296
3.76936e-05
-0.000268353
4.28698e-05
-0.000315102
4.5059e-05
-0.00033811
4.61955e-05
-0.000353821
4.6961e-05
-0.000368523
4.74989e-05
-0.00038393
4.78344e-05
-0.000400455
4.79785e-05
-0.000418159
4.79335e-05
-0.000437093
4.76928e-05
-0.000457251
4.72764e-05
-0.000478684
4.66193e-05
-0.000501758
-0.000525622
4.58298e-05
1.10221e-05
-2.57363e-05
2.63175e-05
-0.000184591
3.55937e-05
-0.000277629
3.97239e-05
-0.000319232
4.13297e-05
-0.000339716
4.20506e-05
-0.000354542
4.24566e-05
-0.000368929
4.26535e-05
-0.000384127
4.26455e-05
-0.000400447
4.24289e-05
-0.000417943
4.2e-05
-0.000436664
4.1355e-05
-0.000456606
4.05125e-05
-0.000477842
3.94284e-05
-0.000500674
-0.000524358
3.81644e-05
1.20386e-05
-3.77749e-05
2.56353e-05
-0.000198188
3.33148e-05
-0.000285309
3.64923e-05
-0.000322409
3.75939e-05
-0.000340817
3.79536e-05
-0.000354901
3.80193e-05
-0.000368995
3.78755e-05
-0.000383984
3.752e-05
-0.000400091
3.69422e-05
-0.000417365
3.61328e-05
-0.000435855
3.50828e-05
-0.000455556
3.3807e-05
-0.000476566
3.22941e-05
-0.000499161
-0.000522637
3.05731e-05
1.24648e-05
-5.02397e-05
2.4605e-05
-0.000210328
3.09038e-05
-0.000291608
3.3237e-05
-0.000324742
3.38817e-05
-0.000341462
3.39089e-05
-0.000354929
3.36488e-05
-0.000368735
3.31664e-05
-0.000383501
3.24629e-05
-0.000399388
3.15247e-05
-0.000416426
3.03379e-05
-0.000434668
2.8891e-05
-0.000454109
2.71856e-05
-0.000474861
2.52088e-05
-0.000497184
-0.000520467
2.30392e-05
1.24284e-05
-6.26682e-05
2.32677e-05
-0.000221167
2.83871e-05
-0.000296727
2.99936e-05
-0.000326349
3.0217e-05
-0.000341686
2.99238e-05
-0.000354635
2.93469e-05
-0.000368158
2.85314e-05
-0.000382686
2.748e-05
-0.000398336
2.61809e-05
-0.000415127
2.46204e-05
-0.000433108
2.27875e-05
-0.000452276
2.0673e-05
-0.000472746
1.81913e-05
-0.000494702
-0.000517841
1.5565e-05
1.2074e-05
-7.47422e-05
2.1709e-05
-0.000230802
2.58071e-05
-0.000300825
2.67847e-05
-0.000327327
2.66173e-05
-0.000341518
2.60088e-05
-0.000354027
2.51176e-05
-0.000367266
2.39717e-05
-0.00038154
2.25747e-05
-0.000396939
2.09164e-05
-0.000413469
1.89832e-05
-0.000431174
1.67691e-05
-0.000450062
1.42774e-05
-0.000470254
1.1309e-05
-0.000491734
-0.000514646
8.11399e-06
1.15005e-05
-8.62427e-05
1.99913e-05
-0.000239293
2.31938e-05
-0.000304027
2.36262e-05
-0.000327759
2.30945e-05
-0.000340986
2.21717e-05
-0.000353104
2.0966e-05
-0.000366061
1.94921e-05
-0.000380066
1.77516e-05
-0.000395199
1.57349e-05
-0.000411452
1.34303e-05
-0.00042887
1.08347e-05
-0.000447466
7.9547e-06
-0.000467374
4.68543e-06
-0.000488465
-0.000510447
4.86272e-07
1.07739e-05
-9.70166e-05
1.81759e-05
-0.000246695
2.05853e-05
-0.000306437
2.0534e-05
-0.000327708
1.96573e-05
-0.00034011
1.84199e-05
-0.000351867
1.6897e-05
-0.000364538
1.50947e-05
-0.000378264
1.30123e-05
-0.000393116
1.06403e-05
-0.00040908
7.96534e-06
-0.000426195
4.99199e-06
-0.000444493
1.61281e-06
-0.000463995
-1.73531e-06
-0.000485117
-0.00050596
-6.22201e-06
9.90263e-06
-0.000106919
1.63072e-05
-0.0002531
1.80115e-05
-0.000308141
1.75227e-05
-0.000327219
1.6312e-05
-0.000338899
1.47578e-05
-0.000350313
1.29147e-05
-0.000362695
1.07824e-05
-0.000376131
8.35806e-06
-0.000390692
5.63222e-06
-0.000406355
2.58952e-06
-0.000423152
-7.93074e-07
-0.00044111
-4.38718e-06
-0.000460401
-8.46849e-06
-0.000481035
-0.000501457
-1.29716e-05
8.96004e-06
-0.000115879
1.44334e-05
-0.000258573
1.54981e-05
-0.000309206
1.46031e-05
-0.000326324
1.30618e-05
-0.000337358
1.11885e-05
-0.000348439
9.02125e-06
-0.000360527
6.55385e-06
-0.000373664
3.7838e-06
-0.000387922
6.96026e-07
-0.000403267
-2.6722e-06
-0.000419784
-6.33925e-06
-0.000437443
-1.03039e-05
-0.000456436
-1.49093e-05
-0.00047643
-0.000496701
-1.96656e-05
8.08038e-06
-0.00012396
1.25961e-05
-0.000263089
1.30565e-05
-0.000309666
1.17739e-05
-0.000325041
9.90745e-06
-0.000335491
7.71269e-06
-0.000346244
5.21474e-06
-0.00035803
2.40174e-06
-0.000370851
-7.15218e-07
-0.000384805
-4.09524e-06
-0.000399887
-7.81089e-06
-0.000416068
-1.18222e-05
-0.000433432
-1.61936e-05
-0.000452065
-2.11743e-05
-0.000471449
-0.000491603
-2.62722e-05
7.21878e-06
-0.000131178
1.08184e-05
-0.000266688
1.06985e-05
-0.000309546
9.03734e-06
-0.00032338
6.84838e-06
-0.000333302
4.32625e-06
-0.000343722
1.48041e-06
-0.000355184
-1.64215e-06
-0.000367728
-5.04766e-06
-0.000381399
-8.79299e-06
-0.000396141
-1.28497e-05
-0.000412011
-1.72233e-05
-0.000429058
-2.20136e-05
-0.000447275
-2.72982e-05
-0.000466165
-0.000486127
-3.27739e-05
6.37464e-06
-0.000137553
9.10996e-06
-0.000269424
8.4284e-06
-0.000308865
6.3971e-06
-0.000321349
3.8809e-06
-0.000330786
1.00815e-06
-0.00034085
-2.1218e-06
-0.000352054
-5.55122e-06
-0.000364299
-9.30776e-06
-0.000377643
-1.33915e-05
-0.000392058
-1.77902e-05
-0.000407613
-2.25331e-05
-0.000424315
-2.77332e-05
-0.000442075
-3.33064e-05
-0.000460592