/*--------------------------------*- C++ -*----------------------------------*\
  =========                 |
  \\      /  F ield         | OpenFOAM: The Open Source CFD Toolbox
   \\    /   O peration     | Website:  https://openfoam.org
    \\  /    A nd           | Version:  7
     \\/     M anipulation  |
\*---------------------------------------------------------------------------*/
FoamFile
{
    version     2.0;
    format      ascii;
    class       volVectorField;
    location    "23.001";
    object      U;
}
// * * * * * * * * * * * * * * * * * * * * * * * * * * * * * * * * * * * * * //

dimensions      [0 1 -1 0 0 0 0];

internalField   nonuniform List<vector> 
18750
(
(-0.038101 0.0233499 -7.04158e-21)
(-0.134024 0.028543 2.49481e-21)
(-0.237258 0.0268183 2.88147e-20)
(-0.327717 0.0254761 6.82747e-21)
(-0.417177 0.0242182 -1.70056e-20)
(-0.50041 0.0230547 -4.16614e-20)
(-0.580836 0.0219206 4.35537e-20)
(-0.656215 0.0208216 2.89951e-20)
(-0.728305 0.0197522 -2.18593e-20)
(-0.796031 0.0187394 -5.89348e-20)
(-0.860606 0.017791 2.25325e-19)
(-0.921331 0.0169088 -1.86242e-19)
(-0.978974 0.0160788 1.11163e-19)
(-1.03296 0.0153242 -2.18577e-19)
(-1.08388 0.0147096 5.08845e-20)
(-0.0397033 0.0708565 4.17814e-21)
(-0.135272 0.0866113 7.83788e-21)
(-0.237412 0.0812852 4.46643e-21)
(-0.326829 0.0770833 4.65167e-20)
(-0.415219 0.0731314 9.74181e-20)
(-0.49735 0.0694519 1.31792e-19)
(-0.576588 0.0658519 -1.13559e-19)
(-0.650669 0.0623483 1.87212e-19)
(-0.721309 0.0589251 1.75706e-19)
(-0.787422 0.0556679 -5.67187e-20)
(-0.85021 0.0526046 -2.38983e-19)
(-0.90897 0.0497483 1.18158e-20)
(-0.964422 0.047063 5.39694e-20)
(-1.01591 0.0446129 1.42534e-19)
(-1.06396 0.0425762 -2.1843e-19)
(-0.0428561 0.117228 1.38923e-20)
(-0.137733 0.143713 2.27307e-20)
(-0.237709 0.134974 -7.25708e-20)
(-0.325061 0.127986 5.89801e-21)
(-0.411339 0.121401 -1.80674e-19)
(-0.491307 0.11524 6.03037e-20)
(-0.568224 0.109191 -1.72935e-19)
(-0.63979 0.103284 -1.99646e-20)
(-0.707644 0.0974968 -1.3473e-19)
(-0.770681 0.0919718 4.06729e-19)
(-0.830098 0.0867662 5.41561e-19)
(-0.885193 0.0819216 4.78938e-19)
(-0.93662 0.0773913 2.82299e-19)
(-0.983588 0.0732603 1.91764e-19)
(-1.02651 0.0697679 -3.57121e-19)
(-0.0474412 0.161733 -7.79294e-20)
(-0.141331 0.199221 9.45441e-20)
(-0.238137 0.187379 -7.23297e-20)
(-0.322457 0.177736 -1.55106e-19)
(-0.405657 0.168625 2.72721e-19)
(-0.482495 0.160043 -2.55789e-19)
(-0.556083 0.15158 3.82688e-19)
(-0.62408 0.143283 -3.26559e-19)
(-0.68803 0.135127 2.3167e-19)
(-0.746814 0.127313 -5.69844e-19)
(-0.801629 0.11994 -8.21023e-19)
(-0.85181 0.113099 4.52586e-20)
(-0.897959 0.106752 -1.5723e-19)
(-0.93914 0.100981 -3.432e-19)
(-0.975626 0.0960216 1.31082e-18)
(-0.0532865 0.203677 -6.17479e-20)
(-0.145946 0.252525 1.40872e-19)
(-0.23867 0.238025 3.16706e-20)
(-0.319071 0.225919 1.21877e-19)
(-0.398329 0.214436 -1.66405e-19)
(-0.471196 0.20353 7.22587e-20)
(-0.540607 0.192713 9.07854e-19)
(-0.604188 0.182059 1.42518e-19)
(-0.66338 0.171548 2.54488e-19)
(-0.717061 0.161442 -8.9946e-20)
(-0.76645 0.151891 7.69348e-20)
(-0.810956 0.143062 -3.19809e-20)
(-0.851179 0.134945 -8.9273e-19)
(-0.886065 0.127606 -5.01628e-19)
(-0.915728 0.121217 -1.4851e-18)
(-0.060201 0.242457 1.39472e-19)
(-0.151444 0.303038 4.9452e-20)
(-0.239265 0.286466 -6.82351e-20)
(-0.314954 0.272166 -5.05516e-20)
(-0.389534 0.258515 5.73734e-20)
(-0.457732 0.245421 -7.69561e-19)
(-0.52229 0.232344 -9.86598e-20)
(-0.580823 0.219397 4.93094e-20)
(-0.634668 0.206575 -3.75021e-19)
(-0.682721 0.194204 -5.17523e-19)
(-0.72623 0.182498 3.79578e-19)
(-0.764731 0.171719 -3.77162e-19)
(-0.798879 0.161907 1.17302e-18)
(-0.827553 0.153111 -9.19725e-19)
(-0.850687 0.145397 2.02514e-18)
(-0.0679638 0.277487 -1.27465e-19)
(-0.157636 0.350194 -2.16227e-19)
(-0.239831 0.332323 8.97997e-20)
(-0.31015 0.316164 6.79434e-19)
(-0.379453 0.300598 6.96133e-19)
(-0.442433 0.285493 -2.4544e-19)
(-0.501635 0.27029 1.26136e-19)
(-0.554688 0.255148 8.25664e-20)
(-0.602838 0.240098 8.1014e-19)
(-0.645009 0.225531 1.12513e-18)
(-0.682489 0.211735 -5.48013e-19)
(-0.714972 0.199077 -1.05832e-18)
(-0.743229 0.187671 -1.97362e-18)
(-0.76613 0.177567 3.42196e-19)
(-0.783404 0.168694 -2.4767e-18)
(-0.0763086 0.308163 -1.14908e-19)
(-0.164301 0.393521 -1.35313e-19)
(-0.240248 0.37529 -9.8388e-19)
(-0.304687 0.357659 3.5443e-19)
(-0.368258 0.340473 -4.16179e-19)
(-0.425615 0.323579 2.8804e-19)
(-0.479117 0.306426 3.11176e-19)
(-0.526431 0.28923 -1.35902e-18)
(-0.568728 0.272074 -9.10592e-19)
(-0.604977 0.255426 -1.54627e-18)
(-0.636495 0.239647 -2.57609e-19)
(-0.663145 0.225216 1.12482e-18)
(-0.685857 0.212343 4.4206e-18)
(-0.703551 0.201102 -6.79452e-19)
(-0.715716 0.191278 1.21448e-18)
(-0.0848973 0.333895 6.17726e-19)
(-0.17117 0.432603 2.49622e-19)
(-0.240386 0.415134 1.08246e-18)
(-0.298587 0.396459 -7.99222e-19)
(-0.356102 0.377981 3.83175e-19)
(-0.407563 0.359563 -6.44746e-19)
(-0.455155 0.340676 -1.49442e-18)
(-0.496615 0.321608 1.33531e-18)
(-0.533049 0.302509 1.60937e-19)
(-0.56348 0.283934 2.31076e-18)
(-0.589234 0.26632 -7.55979e-19)
(-0.610327 0.250253 -3.43105e-18)
(-0.627856 0.236049 -2.10093e-18)
(-0.640844 0.223844 2.20391e-19)
(-0.648527 0.213282 -1.02724e-18)
(-0.0933378 0.354198 -5.15833e-19)
(-0.177933 0.467129 -2.93188e-19)
(-0.24011 0.451684 3.81045e-19)
(-0.291858 0.432421 5.91275e-20)
(-0.343111 0.413009 -1.50712e-19)
(-0.388522 0.393374 -1.75243e-19)
(-0.430113 0.373013 6.81664e-19)
(-0.46571 0.352291 -8.17265e-19)
(-0.496364 0.331447 8.0758e-19)
(-0.521161 0.311131 1.01651e-18)
(-0.541411 0.291861 -1.80776e-18)
(-0.557233 0.274315 3.43315e-18)
(-0.569863 0.258919 4.02485e-19)
(-0.578482 0.245897 5.51925e-19)
(-0.582095 0.234792 1.27112e-18)
(-0.101167 0.368592 9.75453e-19)
(-0.184216 0.496771 -3.20256e-19)
(-0.23926 0.484821 -1.42508e-18)
(-0.284496 0.465447 5.69302e-19)
(-0.32939 0.445491 -3.29763e-19)
(-0.368691 0.42498 3.88397e-19)
(-0.404282 0.403435 2.91423e-18)
(-0.434083 0.381309 1.41459e-18)
(-0.4591 0.358944 9.43037e-19)
(-0.478485 0.337099 -3.16579e-18)
(-0.493501 0.316373 3.47068e-18)
(-0.504309 0.297519 1.27519e-18)
(-0.512218 0.281054 -2.059e-18)
(-0.516593 0.267318 2.49879e-18)
(-0.516311 0.255808 -8.58498e-20)
(-0.107889 0.3768 2.0306e-19)
(-0.189665 0.521452 4.94204e-20)
(-0.237701 0.514444 -9.91457e-20)
(-0.276491 0.49548 -1.01795e-18)
(-0.315004 0.475394 2.04144e-18)
(-0.34823 0.454377 -1.04682e-18)
(-0.377897 0.431969 -3.09304e-18)
(-0.402027 0.40872 9.59133e-19)
(-0.421575 0.385081 -1.5295e-18)
(-0.435763 0.361924 2.37983e-18)
(-0.445788 0.339945 -4.3022e-18)
(-0.451795 0.319959 3.3864e-19)
(-0.455061 0.302537 1.83878e-18)
(-0.455123 0.288126 -3.86514e-18)
(-0.450975 0.276265 -9.09623e-19)
(-0.112825 0.378274 -6.48049e-19)
(-0.193843 0.540922 1.86076e-19)
(-0.235278 0.540455 5.76893e-19)
(-0.267804 0.522489 -2.78076e-20)
(-0.300011 0.502726 -2.78842e-18)
(-0.327262 0.481589 2.678e-19)
(-0.351135 0.458647 1.00733e-18)
(-0.369746 0.434568 -2.75153e-18)
(-0.384003 0.409913 2.0794e-18)
(-0.393194 0.385673 -1.91742e-18)
(-0.39843 0.36264 5.25935e-18)
(-0.399812 0.341695 -2.19289e-18)
(-0.398477 0.323415 2.67485e-18)
(-0.394051 0.308312 5.43338e-18)
(-0.385907 0.296068 2.35369e-18)
(-0.115434 0.373424 -2.58503e-19)
(-0.196439 0.555335 -6.54785e-21)
(-0.231933 0.562692 -2.13589e-20)
(-0.258399 0.546501 -6.61217e-20)
(-0.284429 0.527516 -1.36543e-18)
(-0.305882 0.506644 -6.10859e-19)
(-0.324132 0.483518 9.89757e-19)
(-0.337408 0.458926 6.04978e-19)
(-0.346555 0.433527 -3.51833e-18)
(-0.35091 0.408416 -1.98822e-19)
(-0.351502 0.384506 -1.03205e-18)
(-0.348389 0.362757 2.11168e-18)
(-0.342528 0.343742 -2.95393e-18)
(-0.333384 0.327917 -4.14428e-19)
(-0.320859 0.314995 -2.66214e-18)
(-0.115347 0.36244 1.15666e-18)
(-0.197012 0.5642 -1.03057e-18)
(-0.227503 0.581084 -1.40204e-18)
(-0.248183 0.567556 2.50698e-18)
(-0.268298 0.549822 2.21883e-18)
(-0.284166 0.52959 2.85851e-18)
(-0.296993 0.506618 1.24384e-19)
(-0.305112 0.481817 1.97727e-18)
(-0.309321 0.455941 2.66414e-18)
(-0.308996 0.430187 3.99702e-18)
(-0.305041 0.405569 -1.85526e-18)
(-0.297511 0.383148 3.91666e-18)
(-0.287237 0.363518 -2.03501e-20)
(-0.273376 0.346948 -1.98958e-18)
(-0.25559 0.333029 -4.9613e-18)
(-0.112334 0.34529 -7.33649e-19)
(-0.195233 0.567212 1.14092e-18)
(-0.221856 0.595668 7.62057e-19)
(-0.237138 0.585754 -2.36605e-18)
(-0.251618 0.569697 -1.10727e-18)
(-0.262178 0.550454 -2.04744e-19)
(-0.269806 0.527991 -1.51763e-18)
(-0.272971 0.503315 -2.61348e-18)
(-0.272408 0.477229 -4.48404e-18)
(-0.26752 0.451034 -1.9556e-18)
(-0.25909 0.425856 2.75694e-18)
(-0.24713 0.402847 -5.77116e-18)
(-0.232557 0.382694 2.0388e-19)
(-0.214352 0.365541 3.69156e-18)
(-0.189846 0.350449 5.32379e-18)
(-0.106212 0.321951 -1.7691e-18)
(-0.190887 0.564233 1.37188e-18)
(-0.214812 0.606375 -2.36967e-18)
(-0.225297 0.601208 -1.14571e-18)
(-0.234472 0.587226 -6.4807e-20)
(-0.239983 0.569298 1.59102e-18)
(-0.24265 0.547675 2.59195e-18)
(-0.241031 0.523379 8.64417e-19)
(-0.235861 0.497352 1.2621e-18)
(-0.22653 0.470933 -3.57687e-18)
(-0.213702 0.44537 1.02212e-19)
(-0.19728 0.421854 -2.77789e-18)
(-0.178292 0.401211 -2.0571e-18)
(-0.156428 0.383518 -5.91077e-18)
(-0.12472 0.367844 -7.19772e-20)
(-0.0969301 0.292613 1.55659e-18)
(-0.183879 0.555135 2.47391e-19)
(-0.206285 0.613031 3.66606e-19)
(-0.212639 0.613871 2.8382e-18)
(-0.216921 0.602479 1.20429e-18)
(-0.217676 0.586195 -1.48341e-18)
(-0.215641 0.565722 1.17413e-18)
(-0.209437 0.542085 -6.87061e-19)
(-0.199754 0.516334 -1.38419e-18)
(-0.186076 0.489899 1.57009e-18)
(-0.168933 0.464121 -5.34353e-18)
(-0.14804 0.440182 -2.24817e-19)
(-0.124472 0.419058 -3.05404e-18)
(-0.0993916 0.400887 4.72477e-18)
(-0.0601889 0.385743 4.40663e-19)
(-0.0847157 0.257727 -5.96345e-19)
(-0.174238 0.539687 -1.66938e-18)
(-0.196291 0.615342 4.39646e-19)
(-0.199193 0.623653 -3.2743e-18)
(-0.199013 0.615447 -2.24088e-18)
(-0.195319 0.601135 -1.26973e-18)
(-0.188844 0.582081 -2.23589e-18)
(-0.178287 0.55939 2.17257e-18)
(-0.164219 0.534151 3.07889e-18)
(-0.14624 0.507923 6.04135e-18)
(-0.124859 0.48209 -2.78129e-19)
(-0.0995612 0.457864 6.86268e-18)
(-0.0709709 0.436234 2.7041e-18)
(-0.0435247 0.417592 2.13035e-18)
(0.00449241 0.40412 -4.70909e-18)
(-0.07025 0.218002 1.02641e-18)
(-0.162141 0.517493 2.5411e-18)
(-0.184905 0.61282 1.74176e-18)
(-0.185047 0.63037 2.28221e-18)
(-0.180822 0.626108 8.22142e-21)
(-0.173014 0.614091 9.05711e-19)
(-0.16234 0.596706 2.2825e-20)
(-0.147657 0.57523 -1.67834e-18)
(-0.129371 0.550762 2.63784e-18)
(-0.107125 0.524918 -9.23753e-18)
(-0.0815532 0.499202 2.71465e-18)
(-0.0520875 0.47486 -1.79759e-18)
(-0.0176741 0.452733 3.53063e-19)
(0.0107882 0.433535 -2.69931e-18)
(0.0697671 0.423205 -3.05092e-18)
(-0.0548905 0.174449 -1.675e-18)
(-0.14793 0.487949 2.22816e-18)
(-0.172216 0.604736 -5.58962e-19)
(-0.170301 0.633697 -9.66476e-19)
(-0.162478 0.634376 2.02762e-18)
(-0.150864 0.625038 2.16427e-19)
(-0.136274 0.609557 -6.08149e-19)
(-0.117648 0.589495 -7.1724e-20)
(-0.0953377 0.56605 -1.70271e-18)
(-0.0688681 0.540785 4.43284e-18)
(-0.0390105 0.51531 2.73078e-18)
(-0.00600199 0.491155 1.4527e-18)
(0.0356583 0.468601 -1.36184e-19)
(0.0629961 0.447703 3.48068e-18)
(0.135745 0.443527 -3.13774e-19)
(-0.0407075 0.128747 4.90006e-19)
(-0.132083 0.450235 -5.33123e-19)
(-0.158278 0.590133 4.16261e-19)
(-0.155057 0.633099 1.78914e-18)
(-0.144111 0.640074 -1.14615e-18)
(-0.12904 0.633888 -7.50429e-19)
(-0.110773 0.620564 -1.41676e-18)
(-0.0884296 0.602135 1.12335e-18)
(-0.0622702 0.579872 -1.17599e-18)
(-0.0317035 0.55534 -1.36397e-18)
(0.00284853 0.53017 -2.35769e-18)
(0.0382164 0.506464 -1.3721e-18)
(0.0891997 0.484238 5.03354e-18)
(0.112606 0.459362 -6.92663e-18)
(0.20241 0.464546 -1.8487e-19)
(-0.029472 0.0838312 2.09395e-18)
(-0.115112 0.403432 -8.13626e-19)
(-0.143094 0.567928 -2.11347e-18)
(-0.139378 0.627801 -5.67149e-19)
(-0.125887 0.642803 3.00224e-18)
(-0.107666 0.640512 -6.11099e-20)
(-0.0860595 0.629625 1.47245e-18)
(-0.0601543 0.612961 -8.10203e-19)
(-0.0303506 0.592068 -3.18278e-18)
(0.00394755 0.568504 7.4125e-18)
(0.0442272 0.543534 -5.47806e-18)
(0.0799825 0.520378 1.62986e-18)
(0.143332 0.500175 -7.16929e-18)
(0.158697 0.467085 2.53532e-18)
(0.268924 0.485207 2.08657e-18)
(-0.0209338 0.043697 -7.46807e-19)
(-0.0972959 0.346856 -2.39745e-18)
(-0.126613 0.537043 1.08349e-18)
(-0.123322 0.616702 1.91716e-19)
(-0.107917 0.641952 -2.69889e-18)
(-0.0869713 0.6446 1.67712e-18)
(-0.0622687 0.63661 8.81176e-20)
(-0.0331139 0.621911 -4.13371e-19)
(0.000375579 0.602339 -3.25675e-18)
(0.037423 0.58001 -3.77852e-19)
(0.0852758 0.555215 4.37083e-18)
(0.118568 0.531703 3.69797e-19)
(0.198541 0.518242 1.04042e-18)
(0.201964 0.471791 2.99302e-18)
(0.332909 0.500233 -7.62335e-18)
(-0.0129735 0.0119288 -1.13261e-18)
(-0.0788762 0.280889 3.70997e-20)
(-0.108811 0.496483 -1.37532e-18)
(-0.106922 0.598357 1.11614e-18)
(-0.0903694 0.636534 1.52539e-18)
(-0.0670512 0.645771 -1.14851e-18)
(-0.0397355 0.641241 -2.00582e-19)
(-0.00758951 0.628699 -9.7073e-19)
(0.029919 0.610512 2.43588e-18)
(0.0680145 0.589647 4.69401e-19)
(0.126223 0.56554 -6.33371e-18)
(0.152878 0.538211 1.73144e-18)
(0.254084 0.537032 1.07534e-18)
(0.244826 0.479931 -4.8409e-18)
(0.394085 0.508788 1.09505e-18)
(-0.00420577 -0.00952297 2.5559e-19)
(-0.060816 0.208534 6.88396e-19)
(-0.0899214 0.44524 1.28232e-18)
(-0.0902297 0.570995 -1.08923e-18)
(-0.0733322 0.625276 -4.62848e-20)
(-0.0482553 0.643227 2.77026e-18)
(-0.0184548 0.643257 -1.30771e-19)
(0.0156709 0.633256 -5.69419e-21)
(0.0585269 0.615979 3.95015e-18)
(0.0948306 0.596501 -2.27111e-18)
(0.167264 0.575874 1.62892e-18)
(0.182938 0.539294 -4.60451e-18)
(0.307434 0.550873 3.96568e-19)
(0.287605 0.491764 -1.22474e-18)
(0.453128 0.516937 2.10589e-18)
(0.00433938 -0.0210671 -1.91737e-19)
(-0.0442974 0.136834 8.56329e-19)
(-0.0706789 0.382562 -1.14166e-18)
(-0.0733435 0.532636 2.39968e-18)
(-0.0570042 0.606418 -2.02719e-18)
(-0.0307457 0.636018 -1.82204e-18)
(0.00116018 0.641762 -1.13561e-18)
(0.0362067 0.635182 -2.46625e-18)
(0.0860757 0.619232 -4.81091e-18)
(0.117394 0.598815 7.36351e-19)
(0.207581 0.586545 3.80773e-18)
(0.210076 0.5382 3.05822e-18)
(0.357408 0.555429 5.1808e-19)
(0.328732 0.501748 -2.5545e-18)
(0.508902 0.522073 -1.28442e-18)
(0.01086 -0.0253688 4.57876e-19)
(-0.0286244 0.0754355 8.02227e-19)
(-0.0517659 0.308745 -3.42434e-18)
(-0.056551 0.481589 -2.37032e-18)
(-0.041519 0.577853 -6.98893e-20)
(-0.0152526 0.622366 1.9067e-18)
(0.0194931 0.636137 -7.05198e-19)
(0.0526809 0.63347 5.48334e-18)
(0.112586 0.619999 4.58431e-19)
(0.135228 0.595408 -3.10308e-18)
(0.245705 0.5951 -2.9306e-18)
(0.235649 0.539426 -4.6906e-18)
(0.4017 0.552912 5.17731e-18)
(0.3696 0.507274 3.4383e-18)
(0.55835 0.52053 -1.16033e-20)
(0.0147471 -0.0256655 -1.27548e-18)
(-0.0125019 0.0308517 -2.36258e-18)
(-0.0338957 0.226343 1.7036e-18)
(-0.0403337 0.416724 2.08588e-18)
(-0.0271164 0.537094 1.29989e-18)
(-0.00226946 0.600155 -1.32932e-18)
(0.0356039 0.624161 3.4008e-18)
(0.0655969 0.627255 -4.88818e-18)
(0.136264 0.619762 5.46106e-18)
(0.149465 0.584809 3.51981e-18)
(0.277017 0.595584 -1.10102e-18)
(0.263698 0.541781 -1.54706e-18)
(0.434121 0.546156 -2.07443e-18)
(0.411272 0.509798 -4.13554e-18)
(0.600187 0.509919 4.96244e-18)
(0.0165873 -0.0242657 3.59092e-18)
(0.0029905 0.00284807 2.75347e-18)
(-0.0178973 0.144887 6.24484e-19)
(-0.0256418 0.338738 -3.67199e-20)
(-0.0140641 0.481511 -4.52127e-19)
(0.00723005 0.566458 -5.31329e-19)
(0.0495452 0.604585 -2.65628e-18)
(0.0728274 0.611668 4.64283e-18)
(0.156741 0.617733 -3.64943e-18)
(0.162457 0.574352 -3.44138e-20)
(0.29491 0.581369 3.55512e-18)
(0.294475 0.54096 2.50684e-18)
(0.452732 0.531547 2.49938e-18)
(0.449968 0.510912 -2.50747e-20)
(0.636406 0.486451 -2.95848e-18)
(0.0174718 -0.0223948 -2.15526e-18)
(0.0159316 -0.0126244 -2.23488e-18)
(-0.00255458 0.0792542 6.92474e-19)
(-0.0130368 0.252502 -1.12056e-18)
(-0.00266052 0.409853 -5.30646e-19)
(0.0126957 0.517533 1.91608e-18)
(0.059084 0.574721 -5.06178e-19)
(0.0774791 0.58694 -4.75773e-19)
(0.164258 0.602999 -1.46821e-18)
(0.183071 0.56574 -3.40734e-18)
(0.294247 0.564811 1.58924e-18)
(0.330364 0.524576 -1.88749e-18)
(0.45264 0.522893 -2.90717e-18)
(0.500544 0.48956 -1.31379e-18)
(0.623396 0.468191 5.27847e-18)
(0.0186248 -0.0205844 2.42992e-18)
(0.0264352 -0.0200508 -1.90806e-18)
(0.0135073 0.0365904 -3.13269e-18)
(-0.00136447 0.169496 3.20838e-19)
(0.00685229 0.324891 7.52744e-19)
(0.0144472 0.45106 -5.34163e-19)
(0.0617788 0.529947 1.4544e-18)
(0.0789769 0.550433 3.04021e-19)
(0.161251 0.578354 -2.16526e-19)
(0.196004 0.538246 1.15095e-19)
(0.293851 0.555626 -1.65058e-18)
(0.350194 0.487885 2.1159e-19)
(0.467289 0.524968 9.3219e-19)
(0.497187 0.434909 -7.34953e-19)
(0.688097 0.495077 5.00953e-18)
(0.0207984 -0.0191982 5.10069e-19)
(0.0358734 -0.0231939 -1.09551e-18)
(0.0290856 0.0129192 3.04854e-18)
(0.0113419 0.103878 2.35729e-18)
(0.0145195 0.237156 -2.36498e-18)
(0.0134096 0.368476 -1.61521e-19)
(0.0560025 0.468282 -1.09561e-18)
(0.0769761 0.496501 -4.24226e-19)
(0.143691 0.538799 3.04063e-18)
(0.21227 0.503925 1.5519e-18)
(0.262463 0.51436 2.14672e-18)
(0.404921 0.476472 -1.71664e-18)
(0.416886 0.477197 1.16188e-18)
(0.577542 0.426696 -6.59711e-19)
(0.653943 0.465947 -6.39072e-18)
(0.0241485 -0.0186007 4.07359e-19)
(0.0448458 -0.0248453 6.52493e-19)
(0.0422993 0.000294791 -1.67926e-18)
(0.0246663 0.0609945 -1.91367e-18)
(0.0201309 0.160956 -1.7582e-18)
(0.011363 0.279176 1.50896e-19)
(0.0410203 0.389354 1.27895e-18)
(0.071444 0.428788 -2.31998e-18)
(0.111717 0.47092 -1.22463e-18)
(0.21974 0.466017 6.77733e-19)
(0.219282 0.440438 -1.96599e-18)
(0.432536 0.455818 2.01008e-19)
(0.337101 0.379315 1.37117e-18)
(0.653023 0.425717 -1.86279e-18)
(0.479606 0.334205 1.5121e-18)
(0.0283705 -0.0189721 -9.17404e-19)
(0.0527705 -0.0268317 2.08096e-18)
(0.0518126 -0.0082604 1.37514e-18)
(0.0351364 0.0341736 9.20401e-19)
(0.0229883 0.103361 1.50331e-18)
(0.00726683 0.195905 -1.51372e-19)
(0.0216519 0.300159 -1.18191e-18)
(0.0536366 0.347687 2.59498e-19)
(0.0814419 0.38741 1.61755e-18)
(0.189194 0.390834 -2.56387e-18)
(0.201018 0.371277 -1.19741e-18)
(0.377969 0.374391 1.08658e-19)
(0.308118 0.298125 -3.88086e-19)
(0.605843 0.362477 2.21504e-18)
(0.415875 0.236601 -2.11956e-18)
(0.0326562 -0.0201467 1.0021e-18)
(0.0582361 -0.0300338 6.70081e-19)
(0.0561856 -0.0171949 -7.87181e-20)
(0.0389738 0.0133873 -5.97065e-19)
(0.0207495 0.0603316 1.33735e-19)
(-0.00185109 0.125351 -1.7594e-18)
(0.00082048 0.211722 3.89235e-19)
(0.0223699 0.255372 -7.66342e-19)
(0.0514012 0.299918 -7.7399e-19)
(0.137877 0.285443 1.74988e-18)
(0.177867 0.293469 2.53723e-18)
(0.302074 0.270011 1.20668e-18)
(0.316866 0.247736 1.27018e-18)
(0.598317 0.311876 -1.66119e-18)
(0.678804 0.324775 -1.74865e-18)
(0.0358462 -0.0216602 8.30143e-19)
(0.0596285 -0.0344172 -1.57542e-18)
(0.0540368 -0.0281309 -7.61049e-19)
(0.0340584 -0.00753444 -1.70286e-18)
(0.0104417 0.0235787 7.65147e-19)
(-0.0178506 0.0656462 1.85723e-18)
(-0.0243169 0.12939 -2.118e-18)
(-0.0165967 0.159952 7.4026e-19)
(0.0140883 0.205867 1.39656e-18)
(0.0844302 0.177759 3.70885e-19)
(0.132467 0.190656 -1.61614e-18)
(0.276154 0.194001 -6.95762e-19)
(0.423742 0.243661 -3.02594e-21)
(0.742517 0.341267 9.73768e-19)
(0.922129 0.414961 3.87126e-18)
(0.0367272 -0.0228801 -1.34347e-18)
(0.0557696 -0.0392741 -1.34715e-18)
(0.0446993 -0.0407183 7.53801e-19)
(0.0201625 -0.0302918 3.02569e-18)
(-0.00913177 -0.0123241 -1.96446e-18)
(-0.0416038 0.0112587 5.52128e-19)
(-0.0576852 0.0525693 8.22146e-19)
(-0.0589737 0.067321 -6.80488e-20)
(-0.0313455 0.106842 1.76614e-19)
(0.034715 0.0801325 7.49309e-19)
(0.142006 0.115897 -6.78319e-19)
(0.379917 0.190944 -1.46106e-18)
(0.638307 0.298229 -1.38391e-18)
(0.9076 0.394372 1.15915e-18)
(1.03936 0.44703 3.75847e-19)
(0.03437 -0.0231489 -3.31729e-19)
(0.0463251 -0.0434765 2.67178e-18)
(0.0286748 -0.0533406 5.61532e-19)
(-0.00139813 -0.0534688 7.99034e-19)
(-0.0368307 -0.0481178 7.27089e-19)
(-0.0740064 -0.0393105 6.95559e-19)
(-0.0995403 -0.018581 -2.47224e-19)
(-0.10262 -0.0168053 4.46218e-19)
(-0.067656 0.0181314 2.11631e-19)
(0.0601038 0.0342656 9.33217e-19)
(0.28986 0.12807 5.66889e-20)
(0.581787 0.249285 1.01677e-18)
(0.827657 0.355824 -8.76109e-19)
(1.00626 0.420598 -8.95708e-19)
(1.11452 0.462805 6.23595e-19)
(0.0284202 -0.0219235 1.19832e-18)
(0.0318948 -0.0456573 -1.09628e-18)
(0.00759912 -0.0634931 1.14713e-19)
(-0.027952 -0.0734548 -1.62951e-18)
(-0.0691811 -0.0789278 -1.35155e-18)
(-0.110857 -0.0810488 2.32752e-18)
(-0.138624 -0.0754611 6.58878e-19)
(-0.12123 -0.0751636 -9.33692e-19)
(-0.0307438 -0.0269772 2.50522e-19)
(0.213722 0.0655967 -2.53252e-18)
(0.508364 0.194497 8.89073e-19)
(0.765112 0.309184 -1.08792e-18)
(0.945818 0.385998 1.38125e-18)
(1.07686 0.435649 -1.40554e-19)
(1.15341 0.463225 -9.01858e-19)
(0.0192964 -0.0189075 -1.87172e-18)
(0.0140516 -0.0444977 -1.90718e-18)
(-0.0156979 -0.0682709 -1.95664e-18)
(-0.0549976 -0.0849292 -1.47411e-18)
(-0.0981727 -0.0966481 9.86457e-19)
(-0.136739 -0.103074 -3.99238e-18)
(-0.149659 -0.100634 3.62516e-19)
(-0.078177 -0.0854845 3.47675e-19)
(0.114468 0.000856045 1.81342e-19)
(0.4283 0.136837 1.18233e-18)
(0.69677 0.256685 -9.81787e-19)
(0.891674 0.345359 2.40809e-18)
(1.02955 0.404539 -5.28568e-19)
(1.11706 0.438425 -1.07676e-18)
(1.17154 0.457082 6.14592e-19)
(0.00812917 -0.0142115 3.30727e-19)
(-0.00492517 -0.0392962 1.54782e-18)
(-0.0375299 -0.0655699 2.21325e-18)
(-0.0766802 -0.0844338 3.589e-19)
(-0.1148 -0.0964049 1.77078e-18)
(-0.138608 -0.0990487 9.81761e-19)
(-0.120169 -0.090145 3.07367e-19)
(0.0342234 -0.0455902 -1.50087e-18)
(0.322554 0.0805125 -8.6362e-20)
(0.617583 0.204248 6.33539e-19)
(0.834579 0.300259 2.43097e-18)
(0.985344 0.370662 -3.15498e-19)
(1.08078 0.411907 9.08436e-19)
(1.14196 0.436945 8.82e-19)
(1.18476 0.450594 1.468e-18)
(-0.00360335 -0.00839445 6.10193e-19)
(-0.0228237 -0.0304978 -2.04404e-18)
(-0.0550703 -0.0558913 -4.38618e-19)
(-0.0892877 -0.0729698 1.78935e-20)
(-0.116027 -0.0805847 -3.3179e-18)
(-0.116585 -0.0757955 8.67822e-19)
(-0.0534812 -0.0618043 -4.31347e-19)
(0.203887 0.0289313 5.04363e-19)
(0.516288 0.155396 1.62852e-18)
(0.767301 0.25525 -5.50017e-19)
(0.939599 0.333114 -1.9075e-18)
(1.04743 0.384683 -2.71125e-19)
(1.11533 0.414893 -3.09094e-19)
(1.15792 0.433185 -6.77627e-19)
(1.18676 0.440375 -1.57983e-18)
(-0.0145178 -0.00230391 1.27011e-19)
(-0.0381536 -0.0195271 5.52961e-19)
(-0.0672253 -0.0415369 -1.43608e-18)
(-0.0929115 -0.0544126 5.99007e-19)
(-0.104616 -0.0562184 1.38008e-18)
(-0.0793973 -0.046561 -5.90209e-19)
(0.0504929 -0.0182421 -1.28825e-19)
(0.388054 0.105368 -1.35956e-18)
(0.676829 0.214114 2.77948e-19)
(0.884424 0.295382 -9.44039e-19)
(1.01286 0.355641 9.25287e-19)
(1.09097 0.393782 -7.8287e-19)
(1.13664 0.414552 1.41255e-18)
(1.1646 0.427006 -5.50506e-19)
(1.18965 0.432327 -1.16548e-18)
(-0.0236312 0.00323538 6.547e-19)
(-0.0502302 -0.00810733 4.10099e-19)
(-0.0743063 -0.025431 3.69962e-19)
(-0.0895207 -0.0334759 8.67099e-20)
(-0.0849344 -0.030398 6.41548e-19)
(-0.0291977 -0.023916 -1.55036e-18)
(0.199214 0.0486126 8.45222e-19)
(0.550981 0.168435 1.9632e-18)
(0.806913 0.262485 -1.87973e-19)
(0.971138 0.325714 1.44404e-18)
(1.06599 0.372314 8.86768e-19)
(1.11888 0.397902 1.45539e-19)
(1.14904 0.412176 3.01523e-19)
(1.17054 0.42198 5.84851e-19)
(1.18923 0.423836 1.36482e-18)
(-0.0304768 0.00762458 1.00154e-18)
(-0.0590087 0.00222431 1.42933e-18)
(-0.0772376 -0.0101015 -1.29278e-18)
(-0.0814246 -0.013534 1.17568e-18)
(-0.0619461 -0.00950847 -2.75274e-18)
(0.0438802 -0.00225809 6.68091e-19)
(0.37236 0.117054 -2.39684e-19)
(0.694251 0.222864 -1.22938e-18)
(0.90827 0.300489 -2.15895e-18)
(1.03522 0.348851 -8.16785e-19)
(1.10104 0.383033 -2.04457e-18)
(1.1369 0.399632 1.29257e-18)
(1.15757 0.410127 -1.77612e-18)
(1.17181 0.415988 1.23369e-18)
(1.18741 0.415994 8.57976e-19)
(-0.0350384 0.010575 -2.37444e-18)
(-0.0648467 0.0104071 8.46688e-20)
(-0.0770841 0.00275257 1.69044e-19)
(-0.0707921 0.00385922 3.30662e-19)
(-0.0347136 0.00173909 1.80737e-19)
(0.158021 0.0444821 1.31229e-18)
(0.528541 0.17493 7.23811e-19)
(0.811471 0.267155 -1.99231e-19)
(0.985095 0.330125 9.76957e-19)
(1.07936 0.365472 6.32165e-19)
(1.12485 0.39058 2.95978e-19)
(1.14862 0.400076 -7.34012e-19)
(1.16118 0.40711 2.45483e-18)
(1.17301 0.410921 4.33926e-19)
(1.1867 0.409773 -9.16276e-19)
(-0.0376507 0.0120875 2.18763e-18)
(-0.0682726 0.0158993 -1.56798e-18)
(-0.0745782 0.012494 5.00685e-19)
(-0.0601145 0.0164846 -5.35135e-20)
(0.00907697 0.0042463 2.64295e-18)
(0.31191 0.10738 -2.18744e-19)
(0.665267 0.225351 -8.67486e-19)
(0.905705 0.303552 2.10892e-18)
(1.04152 0.352642 1.94391e-19)
(1.11023 0.377859 8.43566e-19)
(1.13986 0.395304 -1.68002e-18)
(1.15498 0.3993 3.6889e-20)
(1.16394 0.405109 -7.74842e-19)
(1.17293 0.4062 -1.62264e-19)
(1.18327 0.403344 -5.41065e-19)
(-0.0388824 0.0123426 -5.85301e-19)
(-0.069736 0.0185345 1.63897e-18)
(-0.0704146 0.0196575 9.93352e-19)
(-0.0495677 0.020683 7.99866e-19)
(0.0838313 0.0230379 -4.38189e-19)
(0.464646 0.16364 -1.75841e-19)
(0.781351 0.267396 1.14105e-18)
(0.978293 0.331972 -8.9343e-19)
(1.08199 0.369511 2.73651e-19)
(1.12996 0.386419 -1.4149e-18)
(1.14886 0.398217 9.61518e-20)
(1.15922 0.398756 2.20128e-19)
(1.16434 0.402911 -3.22696e-19)
(1.17175 0.401553 -1.94124e-18)
(1.18152 0.398686 8.22462e-19)
(-0.0394306 0.0115286 -1.03177e-18)
(-0.0695467 0.0186371 -1.29381e-18)
(-0.0662064 0.024207 6.81453e-19)
(-0.0310878 0.0140317 -9.00571e-20)
(0.201974 0.073105 -1.07542e-18)
(0.597833 0.21258 -4.26992e-20)
(0.874716 0.302498 -8.02586e-19)
(1.033 0.354598 -1.57433e-18)
(1.10981 0.381947 -6.33786e-19)
(1.14271 0.392673 5.86254e-19)
(1.15427 0.400153 5.39905e-19)
(1.16057 0.397703 -5.37831e-20)
(1.16415 0.401239 -8.70206e-19)
(1.1709 0.397854 1.59819e-18)
(1.17795 0.394199 5.02691e-19)
(-0.0398888 0.00981892 1.01553e-18)
(-0.0681131 0.0174236 1.32473e-21)
(-0.0632677 0.0242325 -1.67315e-18)
(0.00825299 0.00401155 -3.84745e-20)
(0.350587 0.130309 2.58196e-19)
(0.716365 0.254263 4.74362e-19)
(0.949764 0.330722 -8.48843e-19)
(1.07316 0.371659 4.35826e-19)
(1.12862 0.390985 -1.97903e-20)
(1.1501 0.397017 4.8058e-19)
(1.15651 0.401081 -4.32111e-19)
(1.16114 0.397138 -1.21958e-18)
(1.16318 0.399836 -6.05483e-20)
(1.1686 0.393979 -7.75118e-19)
(1.17482 0.390682 -6.76013e-19)
(-0.0404432 0.00749366 4.13256e-19)
(-0.0659979 0.0165174 -8.44059e-19)
(-0.0598111 0.0187348 8.50561e-19)
(0.0778573 0.016841 -2.69511e-19)
(0.489863 0.179837 -1.48437e-19)
(0.814884 0.289559 -4.25054e-19)
(1.00674 0.353383 6.70594e-19)
(1.10143 0.384869 4.31435e-19)
(1.14038 0.397646 -2.56391e-19)
(1.15397 0.400214 -7.26191e-19)
(1.1575 0.401892 -2.63164e-19)
(1.16029 0.39654 1.25131e-18)
(1.16135 0.398458 7.68612e-19)
(1.16677 0.390997 7.62662e-19)
(1.17132 0.38795 -2.37273e-19)
(-0.0410075 0.00500358 -2.60078e-19)
(-0.064632 0.016149 9.3475e-20)
(-0.0482898 0.00666192 -3.50805e-19)
(0.184318 0.0634342 -3.36522e-21)
(0.609939 0.223886 -2.74955e-19)
(0.895579 0.319564 -4.11913e-19)
(1.05069 0.371481 1.44998e-19)
(1.12122 0.394676 -8.56016e-19)
(1.14761 0.402466 7.58564e-19)
(1.1556 0.402621 9.64844e-19)
(1.15681 0.402227 1.24082e-19)
(1.15887 0.396243 -1.08951e-18)
(1.15945 0.39749 -1.06494e-18)
(1.16389 0.388082 -8.08616e-19)
(1.16713 0.385471 3.27974e-19)
(-0.0416122 0.00352607 -8.36312e-19)
(-0.0653429 0.0138859 2.29418e-19)
(-0.0179019 -0.00752452 -1.67513e-19)
(0.320687 0.120074 -1.32912e-21)
(0.716833 0.2609 -6.78051e-20)
(0.960286 0.343778 -1.55299e-19)
(1.08264 0.385587 2.92595e-19)
(1.134 0.402211 -1.67203e-19)
(1.15122 0.406215 -2.17438e-19)
(1.15542 0.404521 -4.20732e-19)
(1.15564 0.402727 -3.73168e-19)
(1.15687 0.396169 -1.72227e-19)
(1.15669 0.396388 6.61404e-19)
(1.16104 0.385758 -2.65107e-20)
(1.16337 0.383967 5.25429e-19)
(-0.0422831 0.00440592 3.47752e-19)
(-0.0666635 0.00856066 5.78214e-19)
(0.036116 -0.00751191 9.72573e-20)
(0.456261 0.16874 3.5897e-19)
(0.807915 0.292909 7.92117e-19)
(1.01057 0.363865 2.94346e-19)
(1.10583 0.396855 1.08209e-18)
(1.14223 0.407999 5.70068e-19)
(1.15273 0.409111 3.6095e-19)
(1.15441 0.406185 8.26222e-19)
(1.15361 0.40309 2.55558e-19)
(1.15428 0.396196 4.68329e-19)
(1.154 0.395644 2.32722e-19)
(1.1577 0.383815 1.09642e-19)
(1.15859 0.382434 3.63508e-19)
(-0.0428879 0.00786416 4.8375e-19)
(-0.0648656 0.000402285 -8.22146e-19)
(0.113353 0.0193334 -1.5738e-19)
(0.570287 0.21087 3.7689e-19)
(0.883666 0.321641 -7.98369e-19)
(1.04991 0.380551 -3.27569e-19)
(1.12193 0.405652 -6.67569e-19)
(1.14668 0.412567 -2.21518e-20)
(1.15246 0.411633 -1.78966e-19)
(1.15238 0.407682 -6.96493e-19)
(1.15122 0.403652 5.29762e-19)
(1.15148 0.396522 4.04444e-20)
(1.15064 0.394851 -2.25832e-20)
(1.15397 0.382209 1.92971e-19)
(1.15431 0.381643 -4.45813e-19)
(-0.043681 0.0120733 -3.55318e-20)
(-0.0542167 -0.00986674 3.60474e-19)
(0.215964 0.0680587 9.95976e-20)
(0.669231 0.248045 -5.27612e-19)
(0.945318 0.346083 3.5347e-19)
(1.07949 0.394428 1.13139e-19)
(1.13277 0.412888 -2.969e-19)
(1.14884 0.416405 -1.40847e-19)
(1.15125 0.413852 -4.27328e-19)
(1.15006 0.409183 7.56275e-20)
(1.14839 0.404272 -5.1342e-19)
(1.14812 0.396863 -3.64168e-19)
(1.14722 0.394312 9.76572e-20)
(1.15012 0.381124 1.01262e-19)
(1.14928 0.380822 -1.76072e-19)
(-0.0451325 0.0136142 -1.79363e-19)
(-0.0300323 -0.0174832 -1.14225e-19)
(0.334439 0.12016 2.45616e-19)
(0.755441 0.279548 4.53061e-19)
(0.994258 0.36661 8.82543e-20)
(1.10147 0.405961 -2.43859e-19)
(1.13971 0.418867 3.07464e-19)
(1.14913 0.419738 2.67961e-19)
(1.14915 0.416038 1.3923e-19)
(1.14708 0.410696 2.64037e-20)
(1.14518 0.405061 1.65378e-19)
(1.14464 0.397478 7.3055e-20)
(1.14336 0.393862 -5.14015e-20)
(1.14572 0.380227 -6.49549e-20)
(1.14451 0.380357 5.75875e-20)
(-0.0472135 0.00970106 -8.34241e-20)
(0.00859887 -0.0166898 -9.79721e-20)
(0.450993 0.166795 8.07542e-20)
(0.830765 0.308046 -1.06833e-19)
(1.03305 0.38386 -2.29854e-19)
(1.11705 0.415505 1.78134e-20)
(1.14359 0.42408 1.41786e-19)
(1.14826 0.422924 -1.28149e-19)
(1.14658 0.418226 8.47825e-20)
(1.14393 0.412316 1.70908e-19)
(1.14172 0.406004 2.72692e-20)
(1.14067 0.398108 6.82375e-20)