/*--------------------------------*- C++ -*----------------------------------*\
  =========                 |
  \\      /  F ield         | OpenFOAM: The Open Source CFD Toolbox
   \\    /   O peration     | Website:  https://openfoam.org
    \\  /    A nd           | Version:  7
     \\/     M anipulation  |
\*---------------------------------------------------------------------------*/
FoamFile
{
    version     2.0;
    format      ascii;
    class       volScalarField;
    location    "38.9994";
    object      p;
}
// * * * * * * * * * * * * * * * * * * * * * * * * * * * * * * * * * * * * * //

dimensions      [0 2 -2 0 0 0 0];

internalField   nonuniform List<scalar> 
18750
(
-0.474202
-0.463477
-0.45829
-0.459481
-0.465996
-0.47704
-0.491723
-0.509308
-0.529146
-0.5507
-0.573569
-0.597555
-0.622626
-0.648464
-0.673928
-0.494496
-0.483499
-0.478196
-0.479298
-0.485853
-0.49702
-0.51186
-0.529604
-0.549577
-0.57122
-0.594114
-0.618045
-0.642876
-0.668208
-0.692706
-0.513211
-0.502414
-0.496956
-0.497993
-0.50461
-0.515894
-0.530867
-0.548735
-0.568802
-0.590492
-0.613366
-0.637172
-0.661735
-0.686567
-0.710269
-0.530248
-0.519981
-0.514347
-0.515416
-0.522137
-0.533544
-0.548642
-0.566611
-0.586742
-0.608448
-0.63127
-0.65492
-0.679184
-0.703535
-0.726586
-0.545535
-0.535945
-0.530158
-0.531439
-0.538315
-0.549866
-0.565094
-0.583152
-0.603327
-0.625026
-0.647774
-0.671248
-0.695194
-0.719088
-0.741596
-0.55895
-0.54985
-0.544566
-0.545968
-0.553039
-0.564762
-0.580144
-0.598284
-0.61849
-0.640168
-0.662829
-0.686115
-0.70974
-0.733192
-0.755229
-0.57039
-0.561944
-0.557235
-0.558867
-0.566221
-0.57814
-0.593731
-0.611943
-0.632171
-0.65382
-0.676386
-0.699479
-0.722783
-0.745802
-0.767408
-0.579781
-0.572139
-0.568103
-0.57016
-0.577778
-0.589917
-0.605812
-0.62407
-0.644317
-0.665929
-0.688398
-0.711298
-0.734288
-0.756882
-0.778051
-0.587115
-0.580394
-0.577145
-0.579766
-0.587767
-0.599987
-0.616388
-0.634604
-0.654878
-0.676449
-0.698822
-0.721528
-0.744213
-0.766409
-0.787226
-0.592447
-0.586736
-0.58435
-0.587647
-0.596135
-0.608806
-0.625027
-0.64346
-0.663815
-0.685334
-0.70762
-0.730127
-0.752511
-0.77434
-0.794617
-0.595903
-0.591237
-0.589753
-0.593781
-0.602815
-0.61586
-0.632152
-0.650733
-0.671078
-0.69254
-0.714762
-0.737063
-0.759144
-0.780666
-0.800321
-0.597669
-0.594011
-0.593427
-0.598194
-0.607792
-0.621207
-0.63766
-0.656347
-0.676696
-0.69812
-0.720171
-0.742301
-0.764103
-0.785341
-0.8043
-0.597984
-0.59521
-0.595461
-0.600941
-0.611094
-0.62488
-0.641511
-0.660289
-0.680629
-0.701984
-0.723882
-0.745825
-0.76732
-0.788166
-0.806746
-0.59712
-0.595008
-0.595959
-0.602092
-0.612775
-0.626907
-0.643711
-0.662551
-0.682861
-0.704123
-0.725863
-0.747621
-0.768799
-0.789366
-0.807633
-0.595354
-0.593583
-0.59504
-0.601732
-0.612895
-0.627335
-0.644278
-0.663141
-0.683391
-0.704532
-0.726093
-0.747678
-0.768529
-0.788903
-0.806821
-0.592925
-0.591087
-0.592832
-0.59997
-0.611533
-0.626214
-0.643243
-0.662078
-0.682222
-0.703208
-0.724557
-0.745993
-0.766495
-0.786741
-0.804254
-0.589996
-0.587635
-0.589477
-0.596937
-0.608783
-0.623609
-0.640647
-0.659385
-0.679364
-0.700158
-0.721242
-0.742563
-0.762688
-0.782866
-0.799944
-0.58662
-0.583308
-0.585151
-0.592791
-0.604751
-0.619595
-0.636544
-0.655098
-0.674831
-0.695395
-0.716138
-0.737384
-0.757105
-0.777291
-0.793907
-0.582754
-0.578208
-0.580093
-0.587719
-0.599565
-0.614263
-0.631
-0.649263
-0.66864
-0.68894
-0.709238
-0.730448
-0.74974
-0.770035
-0.786185
-0.578336
-0.57255
-0.574594
-0.581921
-0.593374
-0.60773
-0.624098
-0.641939
-0.660812
-0.680812
-0.700555
-0.72175
-0.740586
-0.761079
-0.776894
-0.573386
-0.56675
-0.568946
-0.575609
-0.58636
-0.600146
-0.615943
-0.633204
-0.651378
-0.671022
-0.690118
-0.711293
-0.729664
-0.750358
-0.766085
-0.568062
-0.561355
-0.563378
-0.569009
-0.578761
-0.591706
-0.606661
-0.623153
-0.640394
-0.659565
-0.677974
-0.699063
-0.717081
-0.737839
-0.753735
-0.562685
-0.556786
-0.558048
-0.562391
-0.570872
-0.582652
-0.596414
-0.611894
-0.627961
-0.646431
-0.6642
-0.684982
-0.702999
-0.723671
-0.739879
-0.557595
-0.553103
-0.55309
-0.556082
-0.563044
-0.573279
-0.585416
-0.599549
-0.614243
-0.631618
-0.648946
-0.668935
-0.68749
-0.708027
-0.724671
-0.553083
-0.550049
-0.548694
-0.550437
-0.555647
-0.56392
-0.57396
-0.586256
-0.599482
-0.615151
-0.632452
-0.65095
-0.67059
-0.690976
-0.708299
-0.549273
-0.547342
-0.54508
-0.545739
-0.549025
-0.554938
-0.562436
-0.572207
-0.583987
-0.597131
-0.615009
-0.631206
-0.652463
-0.672512
-0.690818
-0.546121
-0.544826
-0.542399
-0.542094
-0.543452
-0.546693
-0.551336
-0.557709
-0.568097
-0.577865
-0.596749
-0.609986
-0.633538
-0.652638
-0.672365
-0.543505
-0.542527
-0.540509
-0.539431
-0.53909
-0.539526
-0.541178
-0.543321
-0.551918
-0.5582
-0.577298
-0.589202
-0.614528
-0.632019
-0.654092
-0.541287
-0.540515
-0.53907
-0.537604
-0.535956
-0.533715
-0.532313
-0.529956
-0.535521
-0.53937
-0.556253
-0.569539
-0.596125
-0.613237
-0.638866
-0.539351
-0.538782
-0.537813
-0.536418
-0.53389
-0.529435
-0.52489
-0.518553
-0.519551
-0.522388
-0.534304
-0.551058
-0.577791
-0.597871
-0.626968
-0.537593
-0.537247
-0.536648
-0.535614
-0.532602
-0.52665
-0.519037
-0.50956
-0.505573
-0.507697
-0.51606
-0.534486
-0.558944
-0.584816
-0.613493
-0.535926
-0.535811
-0.535516
-0.534928
-0.531787
-0.52506
-0.514863
-0.502972
-0.494887
-0.495394
-0.502272
-0.521076
-0.542912
-0.572677
-0.593237
-0.534288
-0.5344
-0.534363
-0.534155
-0.531181
-0.524226
-0.512283
-0.498654
-0.487671
-0.486122
-0.492578
-0.510491
-0.531906
-0.557866
-0.577034
-0.532653
-0.532977
-0.533176
-0.533188
-0.530542
-0.523749
-0.511059
-0.496381
-0.483667
-0.480654
-0.486267
-0.502924
-0.522714
-0.544484
-0.562962
-0.531037
-0.53155
-0.531919
-0.53207
-0.529784
-0.523349
-0.510946
-0.495998
-0.482535
-0.47827
-0.48352
-0.497406
-0.515196
-0.533214
-0.549747
-0.529508
-0.530174
-0.530629
-0.530854
-0.528918
-0.523096
-0.511884
-0.497557
-0.484292
-0.478596
-0.483147
-0.494096
-0.50888
-0.523426
-0.538144
-0.528176
-0.528955
-0.529432
-0.52968
-0.528116
-0.523269
-0.514156
-0.501431
-0.487789
-0.48157
-0.484125
-0.492115
-0.503456
-0.515188
-0.527394
-0.527182
-0.528039
-0.528515
-0.528811
-0.527724
-0.524229
-0.518018
-0.506609
-0.493253
-0.485753
-0.48575
-0.490662
-0.498899
-0.507696
-0.517555
-0.526652
-0.527561
-0.528056
-0.528515
-0.52804
-0.526076
-0.523159
-0.511393
-0.499313
-0.490085
-0.487399
-0.48945
-0.494676
-0.500847
-0.508485
-0.526658
-0.527603
-0.528179
-0.528865
-0.529115
-0.528812
-0.526494
-0.516846
-0.50431
-0.493749
-0.488781
-0.48806
-0.490681
-0.494422
-0.499823
-0.527189
-0.528146
-0.528831
-0.529752
-0.530633
-0.532329
-0.527324
-0.520765
-0.507879
-0.496403
-0.489474
-0.486421
-0.486716
-0.488175
-0.49168
-0.528154
-0.529086
-0.529849
-0.530929
-0.532395
-0.534874
-0.528902
-0.522196
-0.509729
-0.497789
-0.489419
-0.484408
-0.482643
-0.482125
-0.483818
-0.529417
-0.530277
-0.531026
-0.532057
-0.53464
-0.533595
-0.530637
-0.522435
-0.510034
-0.497969
-0.488519
-0.48195
-0.478446
-0.476105
-0.47624
-0.53084
-0.531583
-0.53218
-0.532952
-0.537052
-0.532026
-0.530443
-0.521566
-0.50915
-0.497006
-0.486808
-0.479065
-0.47402
-0.470111
-0.46887
-0.532314
-0.532918
-0.533113
-0.534248
-0.536424
-0.532956
-0.529091
-0.519706
-0.507316
-0.495134
-0.484386
-0.47571
-0.469378
-0.464094
-0.461567
-0.533781
-0.53425
-0.533716
-0.536491
-0.532579
-0.533561
-0.527553
-0.517219
-0.504768
-0.492512
-0.481327
-0.471952
-0.464504
-0.458017
-0.454313
-0.535242
-0.535482
-0.534345
-0.538728
-0.530315
-0.532033
-0.52531
-0.51431
-0.501693
-0.489309
-0.477772
-0.467805
-0.459404
-0.451912
-0.447072
-0.536752
-0.53645
-0.536036
-0.537967
-0.532686
-0.530285
-0.522514
-0.511057
-0.498241
-0.485665
-0.473782
-0.463321
-0.454106
-0.445757
-0.439901
-0.538384
-0.537236
-0.539153
-0.534044
-0.535085
-0.529133
-0.519517
-0.507504
-0.494472
-0.481661
-0.469457
-0.458537
-0.4486
-0.439564
-0.432833
-0.540099
-0.538104
-0.542728
-0.53035
-0.534247
-0.527493
-0.516532
-0.50383
-0.490476
-0.477381
-0.464835
-0.453477
-0.442917
-0.433309
-0.425814
-0.541787
-0.539753
-0.544307
-0.532625
-0.532598
-0.525247
-0.513447
-0.500057
-0.486292
-0.472854
-0.459965
-0.448179
-0.437051
-0.426973
-0.418802
-0.543473
-0.542986
-0.542931
-0.539387
-0.532732
-0.522867
-0.510155
-0.49617
-0.48196
-0.468133
-0.454872
-0.442653
-0.431024
-0.420536
-0.411713
-0.545224
-0.547891
-0.539034
-0.543424
-0.533562
-0.520807
-0.506822
-0.492173
-0.477483
-0.463226
-0.449572
-0.436925
-0.42483
-0.413963
-0.404517
-0.547125
-0.553334
-0.53594
-0.542848
-0.533315
-0.518909
-0.503582
-0.488128
-0.472883
-0.458155
-0.444082
-0.430997
-0.418472
-0.407242
-0.397174
-0.549501
-0.557419
-0.53852
-0.540611
-0.531675
-0.516746
-0.500395
-0.484071
-0.468178
-0.45292
-0.4384
-0.424875
-0.411941
-0.400347
-0.389675
-0.55274
-0.559054
-0.546647
-0.540316
-0.529507
-0.514148
-0.497083
-0.479958
-0.463368
-0.447532
-0.432533
-0.418558
-0.405227
-0.393272
-0.382025
-0.557202
-0.558116
-0.555587
-0.542745
-0.527974
-0.511322
-0.493547
-0.475703
-0.458419
-0.441974
-0.426469
-0.412039
-0.398323
-0.386009
-0.374239
-0.563562
-0.555654
-0.562195
-0.546239
-0.527443
-0.508632
-0.489816
-0.471232
-0.453274
-0.43622
-0.420202
-0.405312
-0.391219
-0.378562
-0.366346
-0.572412
-0.555107
-0.565669
-0.549329
-0.527512
-0.506237
-0.48599
-0.466525
-0.447881
-0.430232
-0.413702
-0.398359
-0.383907
-0.370936
-0.358364
-0.583217
-0.56038
-0.567311
-0.551248
-0.52752
-0.503998
-0.482103
-0.461585
-0.442206
-0.423968
-0.406945
-0.391167
-0.376377
-0.363132
-0.350296
-0.59511
-0.572204
-0.569348
-0.551904
-0.526895
-0.501583
-0.47808
-0.456408
-0.436231
-0.4174
-0.3999
-0.383712
-0.368618
-0.355141
-0.342108
-0.606543
-0.587673
-0.57304
-0.55171
-0.525339
-0.49866
-0.473765
-0.450947
-0.429936
-0.410503
-0.392543
-0.375975
-0.360611
-0.346942
-0.333747
-0.615562
-0.601891
-0.57784
-0.551128
-0.52285
-0.495017
-0.468992
-0.445133
-0.423299
-0.40326
-0.384851
-0.367931
-0.352333
-0.338507
-0.32517
-0.620704
-0.611801
-0.581746
-0.550171
-0.519597
-0.490611
-0.463643
-0.438884
-0.41628
-0.395652
-0.376805
-0.359555
-0.343754
-0.329804
-0.316355
-0.62177
-0.616789
-0.583649
-0.548546
-0.515721
-0.485504
-0.457674
-0.432138
-0.408841
-0.387654
-0.368386
-0.350822
-0.334837
-0.320798
-0.307291
-0.620282
-0.617677
-0.583364
-0.545996
-0.511253
-0.479775
-0.451092
-0.424855
-0.40094
-0.379241
-0.359573
-0.341711
-0.325552
-0.311448
-0.297952
-0.617834
-0.61587
-0.581154
-0.54241
-0.506153
-0.473464
-0.443919
-0.417018
-0.392548
-0.370386
-0.350348
-0.332201
-0.315873
-0.301713
-0.288267
-0.615647
-0.612682
-0.577465
-0.537804
-0.500365
-0.466568
-0.436166
-0.408622
-0.383641
-0.361064
-0.340689
-0.322283
-0.305801
-0.291581
-0.278107
-0.614319
-0.608919
-0.572694
-0.532255
-0.493848
-0.459057
-0.427828
-0.399658
-0.374202
-0.35125
-0.330575
-0.311944
-0.295351
-0.28109
-0.267314
-0.613922
-0.604987
-0.567141
-0.525852
-0.486578
-0.450893
-0.418881
-0.39011
-0.36421
-0.340924
-0.319985
-0.301174
-0.28454
-0.270329
-0.255781
-0.614188
-0.60104
-0.56099
-0.518657
-0.478535
-0.442028
-0.40929
-0.379954
-0.353647
-0.330069
-0.308913
-0.289972
-0.273375
-0.259353
-0.243591
-0.614633
-0.597091
-0.554322
-0.510699
-0.469686
-0.43241
-0.399008
-0.36916
-0.342495
-0.318679
-0.297361
-0.278361
-0.26187
-0.248054
-0.231095
-0.614697
-0.592973
-0.547106
-0.501955
-0.45999
-0.421983
-0.387988
-0.357698
-0.330746
-0.306757
-0.285345
-0.266379
-0.250067
-0.236148
-0.218666
-0.613919
-0.588228
-0.539194
-0.492366
-0.449396
-0.410698
-0.376191
-0.345551
-0.3184
-0.294316
-0.272883
-0.254059
-0.23797
-0.223605
-0.206288
-0.61189
-0.582358
-0.530372
-0.481836
-0.437853
-0.398513
-0.363591
-0.332719
-0.305471
-0.281365
-0.259999
-0.24137
-0.225468
-0.210596
-0.193841
-0.608259
-0.575017
-0.520415
-0.470254
-0.425305
-0.385407
-0.350192
-0.319223
-0.291965
-0.267886
-0.246667
-0.228288
-0.212502
-0.197277
-0.181227
-0.602738
-0.565967
-0.509128
-0.457514
-0.411706
-0.371386
-0.336025
-0.305076
-0.277833
-0.253865
-0.232878
-0.214784
-0.199071
-0.183726
-0.168408
-0.59511
-0.55505
-0.496354
-0.443527
-0.397038
-0.356486
-0.321123
-0.290193
-0.263065
-0.239305
-0.218627
-0.200845
-0.185216
-0.16996
-0.155384
-0.585231
-0.542174
-0.481974
-0.428237
-0.381323
-0.340728
-0.305382
-0.274572
-0.247665
-0.224211
-0.203915
-0.186478
-0.170995
-0.155961
-0.142177
-0.573022
-0.52733
-0.465901
-0.411631
-0.364611
-0.323991
-0.288789
-0.258221
-0.231644
-0.208597
-0.188752
-0.1717
-0.156437
-0.14172
-0.128799
-0.558455
-0.510582
-0.448079
-0.393726
-0.34678
-0.306276
-0.271349
-0.241153
-0.215019
-0.19248
-0.173157
-0.156534
-0.141554
-0.127235
-0.11526
-0.541544
-0.492021
-0.428538
-0.374453
-0.327781
-0.287595
-0.253083
-0.223383
-0.197811
-0.17588
-0.157154
-0.141001
-0.126355
-0.112507
-0.101606
-0.522332
-0.471651
-0.407438
-0.353722
-0.307614
-0.267964
-0.234016
-0.204938
-0.18004
-0.158819
-0.140762
-0.125126
-0.110869
-0.0975791
-0.0879253
-0.50091
-0.449277
-0.384919
-0.331642
-0.286311
-0.247408
-0.214177
-0.185844
-0.161733
-0.141313
-0.123989
-0.108922
-0.0951546
-0.0825731
-0.0742993
-0.477421
-0.424577
-0.361168
-0.308375
-0.263942
-0.225961
-0.1936
-0.166134
-0.142911
-0.12337
-0.106826
-0.0923887
-0.0792774
-0.0676843
-0.0608337
-0.452032
-0.397628
-0.336099
-0.284053
-0.240596
-0.203672
-0.172323
-0.145844
-0.123602
-0.104993
-0.0892527
-0.0755097
-0.0632764
-0.0531073
-0.0479198
-0.424827
-0.368832
-0.309605
-0.258734
-0.216363
-0.180606
-0.150395
-0.125015
-0.103832
-0.0861892
-0.0712579
-0.0582776
-0.0471561
-0.0389704
-0.0363396
-0.395745
-0.338744
-0.281752
-0.232435
-0.191317
-0.156833
-0.12787
-0.103689
-0.0836309
-0.0669761
-0.052866
-0.0407349
-0.0309485
-0.0253018
-0.0264114
-0.364764
-0.307764
-0.252726
-0.205187
-0.165521
-0.132426
-0.104811
-0.0819135
-0.063033
-0.0473911
-0.0341523
-0.0230047
-0.014776
-0.011861
-0.0165612
-0.332093
-0.275932
-0.222718
-0.177073
-0.13904
-0.107455
-0.0812806
-0.0597388
-0.0420812
-0.0274921
-0.0152277
-0.00525979
0.00121256
0.00201016
-0.003083
-0.297987
-0.243222
-0.191878
-0.148209
-0.111951
-0.0819948
-0.0573454
-0.03722
-0.0208288
-0.00735482
0.00379532
0.0123832
0.0170664
0.0166353
0.016639
-0.26268
-0.209669
-0.160328
-0.118718
-0.0843438
-0.0561193
-0.0330723
-0.0144172
0.000658815
0.0129348
0.0228318
0.0299306
0.0330763
0.0322376
0.036089
-0.22638
-0.175368
-0.128179
-0.088718
-0.0563161
-0.0299085
-0.00853101
0.00860324
0.0223087
0.0332958
0.0418381
0.0474661
0.0494179
0.0487691
0.0545295
-0.189281
-0.14045
-0.095548
-0.0583226
-0.0279679
-0.00344624
0.0162051
0.0317707
0.0440468
0.0536656
0.0608028
0.0650398
0.0660031
0.0655497
0.0718349
-0.151565
-0.105059
-0.0625553
-0.0276436
0.000600471
0.0231812
0.0410595
0.0550117
0.0658042
0.0739981
0.0797249
0.0826744
0.0828078
0.0823801
0.088181
-0.11341
-0.069348
-0.0293274
0.0032073
0.0292888
0.0498856
0.0659528
0.0782532
0.0875187
0.0942557
0.0985853
0.100303
0.0996077
0.098901
0.103791
-0.0749859
-0.0334657
0.00400731
0.0341178
0.0579972
0.0765779
0.0908051
0.101424
0.109133
0.114402
0.117362
0.117902
0.116369
0.115102
0.118811
-0.0364636
0.00243948
0.0373201
0.0649755
0.086626
0.103169
0.115537
0.124453
0.13059
0.134391
0.135997
0.135359
0.132921
0.130935
0.133454
0.00199276
0.0382231
0.0704837
0.0956686
0.115076
0.129571
0.140069
0.147275
0.151836
0.154179
0.154454
0.152656
0.149266
0.146434
0.147786
0.0402221
0.0737443
0.103373
0.126087
0.14325
0.155696
0.164324
0.169821
0.172812
0.173707
0.172656
0.169687
0.165323
0.161643
0.161877
0.0780684
0.108866
0.135868
0.156122
0.171051
0.181459
0.188228
0.192026
0.193462
0.192929
0.190575
0.186443
0.181085
0.176522
0.175682
0.11538
0.143456
0.167848
0.185669
0.198386
0.206776
0.211706
0.213825
0.213724
0.211778
0.208132
0.202852
0.196526
0.191111
0.1892
0.152012
0.177386
0.1992
0.214624
0.225162
0.231566
0.234686
0.235155
0.233546
0.230217
0.225305
0.218892
0.211599
0.205326
0.202377
0.187823
0.210533
0.229813
0.242891
0.251294
0.255752
0.257098
0.255951
0.252864
0.248178
0.242029
0.234523
0.226304
0.219187
0.215189
0.222679
0.24278
0.259583
0.270373
0.276694
0.279256
0.278876
0.276157
0.271632
0.265627
0.258274
0.2497
0.240573
0.232624
0.227601
0.256454
0.274014
0.288409
0.296981
0.301284
0.302007
0.299954
0.295709
0.28979
0.282507
0.273996
0.264404
0.254406
0.245628
0.239581
0.289026
0.304129
0.316196
0.322629
0.324985
0.323936
0.320271
0.314557
0.307295
0.298781
0.289153
0.27858
0.267745
0.25816
0.251106
0.320281
0.333024
0.342853
0.347236
0.347725
0.344978
0.339767
0.332645
0.324096
0.314406
0.303717
0.292215
0.280573
0.270191
0.262148
0.350113
0.360606
0.368297
0.370727
0.369437
0.365072
0.358389
0.349926
0.34015
0.329339
0.317642
0.305262
0.292856
0.2817
0.272687
0.378423
0.386789
0.392449
0.39303
0.390056
0.38416
0.376084
0.366352
0.355418
0.34355
0.330905
0.317698
0.304564
0.292656
0.282704
0.405119
0.41149
0.415237
0.414082
0.409525
0.402191
0.392807
0.381883
0.369858
0.356999
0.343469
0.329493
0.315675
0.303041
0.292182
0.430119
0.434638
0.436596
0.433822
0.427789
0.419116
0.408513
0.396479
0.383441
0.36966
0.355309
0.340621
0.326161
0.312835
0.301108
0.453346
0.456166
0.456466
0.452198
0.444802
0.434891
0.423163
0.410104
0.396131
0.381502
0.3664
0.351059
0.336003
0.322021
0.309469
0.474733
0.476017
0.474795
0.469161
0.46052
0.449479
0.436723
0.422729
0.407902
0.392501
0.376717
0.360785
0.345182
0.330584
0.317258
0.494219
0.494141
0.49154
0.484672
0.474906
0.462844
0.449163
0.434326
0.41873
0.402634
0.386241
0.369781
0.353683
0.338512
0.324465
0.511753
0.5105
0.506664
0.498694
0.487926
0.474959
0.460456
0.444871
0.428594
0.411884
0.394954
0.378032
0.361492
0.345795
0.331084
0.527298
0.525057
0.520132
0.511197
0.499555
0.485798
0.47058
0.454345
0.437476
0.420234
0.402841
0.385522
0.368594
0.352422
0.33711
0.540844
0.537771
0.531917
0.522157
0.50977
0.495342
0.479518
0.462734
0.445364
0.427672
0.409889
0.392235
0.374976
0.358386
0.342548
0.55238
0.548611
0.541994
0.531553
0.518555
0.503578
0.487258
0.470025
0.452246
0.434187
0.416087
0.398163
0.380636
0.363695
0.347414
0.561895
0.557564
0.550348
0.539374
0.525899
0.510495
0.493792
0.476212
0.458119
0.439777
0.421433
0.403306
0.385583
0.368374
0.351731
0.569379
0.564628
0.556975
0.545615
0.531798
0.51609
0.499116
0.481293
0.462979
0.444439
0.425923
0.407661
0.38982
0.372443
0.355515
0.574832
0.569806
0.561876
0.550277
0.536252
0.520363
0.503231
0.485267
0.466827
0.448172
0.429557
0.411219
0.393328
0.375879
0.358763
0.578263
0.573108
0.56506
0.553367
0.539268
0.523321
0.506141
0.488139
0.469665
0.450979
0.432335
0.413976
0.396086
0.378651
0.361476
0.579687
0.57455
0.566539
0.554898
0.540857
0.524973
0.507857
0.489918
0.471503
0.452867
0.434263
0.415937
0.398089
0.380721
0.363593
0.579132
0.574159
0.566338
0.55489
0.541038
0.525335
0.508393
0.490616
0.472351
0.453848
0.435356
0.417125
0.399358
0.382081
0.365083
0.57663
0.571963
0.564484
0.553368
0.539832
0.524429
0.507766
0.49025
0.472224
0.453934
0.435626
0.417554
0.399937
0.382819
0.366007
0.572226
0.567998
0.56101
0.550362
0.537268
0.522278
0.505999
0.488839
0.471139
0.45314
0.435082
0.417228
0.399829
0.382963
0.366414
0.565971
0.562307
0.555956
0.545911
0.53338
0.518914
0.50312
0.486407
0.469118
0.451488
0.433745
0.41616
0.399028
0.382485
0.366308
0.557925
0.55494
0.549372
0.540056
0.528206
0.51437
0.499158
0.482983
0.466186
0.448998
0.431638
0.414378
0.397558
0.381389
0.36566
0.548149
0.545955
0.541311
0.532847
0.521789
0.508686
0.49415
0.478596
0.46237
0.445697
0.428784
0.411904
0.395444
0.379693
0.364472
0.536704
0.53543
0.531837
0.524339
0.514178
0.501905
0.488132
0.473281
0.4577
0.441609
0.425205
0.408761
0.392705
0.377415
0.362755
0.523654
0.523445
0.521018
0.514592
0.505428
0.494075
0.48115
0.467076
0.452209
0.436766
0.420932
0.404973
0.389361
0.374568
0.360516
0.509087
0.510078
0.508923
0.50367
0.495596
0.485248
0.473247
0.460024
0.445936
0.431202
0.415991
0.400567
0.385436
0.371171
0.357768
0.4931
0.495409
0.495628
0.491641
0.484743
0.47548
0.464475
0.452167
0.438919
0.424949
0.410416
0.395572
0.380956
0.367244
0.354522
0.475798
0.479528
0.481212
0.47858
0.472936
0.464829
0.454887
0.443553
0.4312
0.418047
0.404242
0.39002
0.375948
0.36281
0.350795
0.45729
0.462532
0.465761
0.464563
0.460245
0.453359
0.444538
0.434233
0.422825
0.410535
0.397501
0.383942
0.370443
0.357893
0.346604
0.437695
0.444523
0.449369
0.449673
0.446744
0.441136
0.433488
0.424259
0.413839
0.402454
0.390233
0.377374
0.36447
0.352518
0.341968
0.417133
0.425608
0.43213
0.433997
0.43251
0.428228
0.421799
0.413687
0.404293
0.39385
0.382476
0.370348
0.358062
0.346715
0.33691
0.395735
0.4059
0.414146
0.417625
0.417622
0.414708
0.409535
0.402574
0.394238
0.384766
0.374271
0.362905
0.351255
0.340511
0.331452
0.373632
0.385514
0.39552
0.400649
0.402165
0.40065
0.396762
0.39098
0.383727
0.375253
0.365662
0.35508
0.344079
0.333937
0.325619
0.350963
0.364573
0.376361
0.383165
0.386224
0.386131
0.383547
0.378964
0.372815
0.365357
0.356691
0.346915
0.336575
0.327026
0.319437
0.327869
0.3432
0.356779
0.365273
0.369888
0.371227
0.369962
0.366589
0.361556
0.355131
0.347407
0.338451
0.328775
0.319803
0.312934
0.304497
0.321523
0.336887
0.347073
0.353243
0.356019
0.356074
0.353917
0.350005
0.344623
0.337854
0.32973
0.32072
0.312308
0.306135
0.280994
0.29967
0.3168
0.328666
0.336382
0.340586
0.341957
0.341009
0.33822
0.333885
0.328086
0.320806
0.312452
0.304561
0.299067
0.257513
0.277775
0.296634
0.310154
0.319394
0.325009
0.32768
0.32793
0.326252
0.322965
0.318146
0.311723
0.304017
0.2966
0.291755
0.234206
0.25597
0.276505
0.291639
0.30237
0.309368
0.313315
0.314742
0.314157
0.31191
0.308083
0.302545
0.295484
0.288448
0.284208
0.21123
0.234388
0.256528
0.273223
0.285399
0.29374
0.298932
0.301507
0.301987
0.30076
0.297932
0.293315
0.286921
0.280166
0.276433
0.18874
0.213154
0.236813
0.255006
0.268568
0.278202
0.284599
0.288289
0.289798
0.289557
0.287726
0.284081
0.278433
0.271867
0.268385
0.166901
0.192386
0.21747
0.237089
0.251963
0.262828
0.270382
0.275146
0.277644
0.278343
0.277482
0.274854
0.270084
0.263744
0.260033
0.145878
0.172173
0.198608
0.219568
0.235665
0.247688
0.256344
0.262138
0.26558
0.267164
0.267219
0.26563
0.261915
0.256071
0.251357
0.125857
0.152575
0.180341
0.202537
0.219746
0.232848
0.242544
0.249318
0.25366
0.25607
0.256966
0.256373
0.253846
0.248957
0.242687
0.107019
0.133611
0.162797
0.186073
0.204272
0.218373
0.229039
0.236735
0.241931
0.245116
0.246764
0.247064
0.245734
0.242172
0.236108
0.0895298
0.115375
0.146104
0.170229
0.189307
0.204327
0.215882
0.224432
0.230434
0.234348
0.236666
0.237723
0.237467
0.235394
0.230384
0.0733286
0.0982949
0.130345
0.15504
0.174916
0.190769
0.203121
0.212448
0.219202
0.223803
0.226728
0.228406
0.229006
0.228203
0.224534
0.0584475
0.0827063
0.115475
0.140564
0.161177
0.177755
0.190799
0.20082
0.208262
0.213507
0.21699
0.21918
0.220419
0.220572
0.218042
0.0449972
0.0687873
0.101366
0.126896
0.148161
0.165329
0.178954
0.18958
0.197641
0.20348
0.207481
0.210103
0.211819
0.212677
0.211039
0.0330694
0.0562488
0.0882487
0.114167
0.135922
0.153522
0.167619
0.178763
0.187364
0.193739
0.198218
0.201222
0.203305
0.204692
0.203843
0.0227121
0.0449433
0.0762642
0.10246
0.124483
0.14236
0.156828
0.168397
0.177455
0.184301
0.189216
0.192566
0.194946
0.196748
0.196636
0.0139415
0.0348964
0.0655058
0.0917293
0.113843
0.131866
0.14661
0.158509
0.167937
0.175184
0.18049
0.184156
0.186781
0.188923
0.189489
0.00674603
0.026179
0.0559727
0.0819123
0.103971
0.12207
0.136987
0.149118
0.15883
0.166405
0.172054
0.176005
0.178829
0.181251
0.182435
0.00107706
0.0188144
0.0476037
0.0730062
0.0948226
0.112978
0.127973
0.140237
0.15015
0.15798
0.16392
0.168124
0.171095
0.173734
0.175491
-0.00316035
0.0127577
0.0403174
0.065009
0.0864452
0.104528
0.119564
0.131876
0.141911
0.149922
0.156098
0.160526
0.163589
0.166366
0.168655
-0.00611174
0.00790467
0.0340226
0.0579007
0.0788733
0.0967298
0.111699
0.124045
0.134119
0.142238
0.148592
0.15322
0.156339
0.15914
0.161924
-0.00796497
0.00410361
0.0286191
0.0516395
0.0720963
0.0896222
0.104405
0.116689
0.126771
0.134937
0.141403
0.146205
0.149387
0.152056
0.155288
-0.00895232
0.00114372
0.0240087
0.0461781
0.0660846
0.0832068
0.0977016
0.109825
0.119847
0.128011
0.134529
0.139465
0.142751
0.14516
0.148728
-0.00930539
-0.00121082
0.0201171
0.0414784
0.0608036
0.0774559
0.0915853
0.103469
0.113356
0.121458
0.12797
0.132977
0.136398
0.13855
0.142194
-0.00929719
-0.00305685
0.0169227
0.0375194
0.0562203
0.0723335
0.0860355
0.0976192
0.10731
0.115289
0.121736
0.126742
0.130239
0.132347
0.135603
-0.0091632
-0.00438529
0.0144566
0.0342974
0.052304
0.0678037
0.0810242
0.0922612
0.101707
0.109511
0.115839
0.120789
0.124318
0.126454
0.128879
-0.00902111
-0.00509986
0.0127994
0.0318223
0.0490239
0.0638317
0.0765258
0.0873776
0.0965364
0.104122
0.110285
0.115137
0.118651
0.120771
0.122548
-0.00880313
-0.00498525
0.0120682
0.0301003
0.0463435
0.0603875
0.0725212
0.0829513
0.0917811
0.09911
0.105075
0.109791
0.113241
0.115301
0.116762
-0.00819579
-0.00364931
0.0124058
0.0291156
0.0442182
0.0574492
0.0689978
0.0789659
0.0874221
0.0944594
0.1002
0.10475
0.108098
0.110092
0.111469
-0.00661415
-0.000571222
0.0139048
0.028796
0.0426034
0.0550091
0.0659463
0.0754017
0.0834381
0.0901531
0.0956481
0.10001
0.103236
0.105167
0.106555
-0.00342074
0.0047192
0.0164923
0.029004
0.0414789
0.0530744
0.0633516
0.0722308
0.0798046
0.0861739
0.0914095
0.0955712
0.0986651
0.100522
0.101915
0.00149862
0.0121361
0.0197002
0.0295762
0.0408696
0.0516499
0.0611779
0.0694137
0.0764954
0.0825056
0.0874726
0.0914266
0.0943799
0.0961394
0.097484
0.00789565
0.0205046
0.0226787
0.0304754
0.0408222
0.0506966
0.0593597
0.0669046
0.0734854
0.0791329
0.0838245
0.0875627
0.0903674
0.0920025
0.0932409
0.0147948
0.0276715
0.0251069
0.0318645
0.0413182
0.0501044
0.0578087
0.0646586
0.0707523
0.0760396
0.0804501
0.083963
0.0866095
0.0881001
0.0891913
0.021389
0.0319535
0.0273685
0.0338907
0.0422022
0.0497033
0.0564403
0.0626428
0.0682755
0.0732062
0.0773313
0.0806107
0.0830917
0.0844263
0.085345
0.0270551
0.0332161
0.0302773
0.0364567
0.0431767
0.0493218
0.0552003
0.0608346
0.0660314
0.0706087
0.07445
0.0774934
0.0798044
0.080977
0.0817059
0.0315157
0.0328721
0.034407
0.0391404
0.0438889
0.0488679
0.0540813
0.0592151
0.063988
0.068219
0.0717878
0.0746014
0.0767437
0.0777503
0.0782674
0.0347963
0.0328391
0.0394334
0.0411964
0.0441245
0.0483825
0.0530939
0.0577485
0.0621057
0.0660101
0.0693314
0.0719302
0.0739078
0.0747461
0.0750257
0.037085
0.0338389
0.0437219
0.0418867
0.0440411
0.0479907
0.0522199
0.0563804
0.060344
0.0639589
0.0670695
0.0694768
0.0712992
0.0719694
0.07198
0.0386188
0.0359948
0.0449594
0.0416913
0.0441457
0.0477357
0.0513752
0.0550507
0.0586735
0.0620506
0.0649965
0.0672424
0.0689216
0.0694297
0.0691397
0.0397039
0.0387641
0.0433139
0.042331
0.0447276
0.0474815
0.0504664
0.0537222
0.0570745
0.0602733
0.0631074
0.0652311
0.0667843
0.0671401
0.0665165
0.0405844
0.0410907
0.041398
0.0447921
0.0454914
0.0470187
0.0494531
0.0523847
0.0555355
0.0586193
0.0614038
0.0634515
0.0648983
0.065118
0.0641392
0.041309
0.0424655
0.0407328
0.0474652
0.0455732
0.0463347
0.0483765
0.0510229
0.0540359
0.0570804
0.0598882
0.0619191
0.063283
0.0633814
0.0620401
0.0419045
0.0429374
0.0416287
0.0471645
0.0450281
0.0456072
0.0472165
0.0495995
0.0525585
0.0556558
0.0585732
0.0606553
0.061963
0.0619595
0.0602641
0.0423832
0.042973
0.0429757
0.0443808
0.0451775
0.0449202
0.0458645
0.0480599
0.0510836
0.0543469
0.0574756
0.0596937
0.0609764
0.0608808
0.0588486
0.0427532
0.0429935
0.0435436
0.0422425
0.0458319
0.0438959
0.0442937
0.0464046
0.0496026
0.053164
0.0566246
0.0590739
0.0603727
0.0601918
0.057834
0.043078
0.0430682
0.0433705
0.0420199
0.0444926
0.0425074
0.0425983
0.0446151
0.0481027
0.0521266
0.0560605
0.0588518
0.0602105
0.0599331
0.0572547
0.0434455
0.0432062
0.0429611
0.0419961
0.0412624
0.0414468
0.0408425
0.0426763
0.0465905
0.051275
0.0558376
0.0590866
0.0605654
0.0601718
0.0571452
0.043917
0.043421
0.0426694
0.0416121
0.03896
0.0402712
0.0389019
0.0406261
0.0451103
0.0506676
0.0560228
0.059854
0.0615135
0.0609688
0.0575489
0.0445037
0.0437356
0.0425958
0.0410387
0.0384508
0.0377441
0.0370987
0.0386102
0.0437458
0.0503837
0.0566857
0.0612384
0.0631672
0.0624119
0.058501
0.0451641
0.0441339
0.0426985
0.0406238
0.0381211
0.0350731
0.0356219
0.0367328
0.0426638
0.0505016
0.057899
0.0633457
0.0656276
0.0645881
0.0600561
0.0457689
0.0445157
0.0428937
0.0404806
0.0377433
0.0342974
0.0338078
0.0353467
0.0421192
0.0510685
0.0597374
0.0663236
0.0690364
0.0675744
0.0622495
0.0460939
0.0446803
0.0429585
0.0403678
0.0375059
0.0345125
0.0320263
0.0351361
0.0423464
0.0520458
0.0623259
0.0703172
0.0734642
0.0714561
0.0651301
0.0460005
0.0443595
0.0425394
0.0398785
0.0371629
0.0346771
0.0322703
0.0359683
0.0434339
0.0533814
0.0658983
0.0754635
0.0789325
0.0762488
0.0687339
0.0449235
0.0431832
0.0412441
0.0384983
0.0360211
0.0343058
0.0336798
0.0373491
0.045297
0.0550933
0.0707475
0.0816377
0.0853579
0.0819822
0.0730703
0.0427998
0.0409585
0.0388006
0.0359026
0.0336424
0.0328702
0.0344129
0.0396379
0.0471282
0.0578554
0.077045
0.0883829
0.0925932
0.0884751
0.0781651
0.0395868
0.0376837
0.0352595
0.0321107
0.0300362
0.0302055
0.0337932
0.0410719
0.0487261
0.0628192
0.0842299
0.0947793
0.100656
0.0951874
0.084026
0.0354385
0.0335707
0.0309487
0.0276408
0.0256946
0.026654
0.0318285
0.0412077
0.051762
0.0693505
0.0905019
0.100341
0.109233
0.100958
0.0907073
0.030672
0.0289829
0.0263374
0.0230857
0.0213972
0.0229795
0.0292802
0.040683
0.0554804
0.0752868
0.094036
0.106068
0.11665
0.104518
0.0981318
0.0256448
0.0242916
0.0218575
0.018924
0.0176742
0.0197595
0.0267893
0.0396311
0.0574383
0.0772953
0.0945425
0.111971
0.118637
0.10623
0.104679
0.0206533
0.0197686
0.017788
0.0154125
0.0146948
0.0171995
0.024646
0.0380843
0.0569594
0.0759817
0.0923713
0.115191
0.113132
0.10948
0.105623
0.0158793
0.0155501
0.0142301
0.0126002
0.0124571
0.0152703
0.0228735
0.0362607
0.0547348
0.073111
0.0879501
0.11155