/*--------------------------------*- C++ -*----------------------------------*\
  =========                 |
  \\      /  F ield         | OpenFOAM: The Open Source CFD Toolbox
   \\    /   O peration     | Website:  https://openfoam.org
    \\  /    A nd           | Version:  7
     \\/     M anipulation  |
\*---------------------------------------------------------------------------*/
FoamFile
{
    version     2.0;
    format      ascii;
    class       surfaceScalarField;
    location    "38.9994";
    object      phi;
}
// * * * * * * * * * * * * * * * * * * * * * * * * * * * * * * * * * * * * * //

dimensions      [0 3 -1 0 0 0 0];

internalField   nonuniform List<scalar> 
37105
(
-1.27466e-06
0.00010322
-0.000101945
-5.32207e-06
0.000152906
-0.000148858
-1.04388e-05
0.000154086
-0.000148969
-1.59182e-05
0.000145348
-0.000139869
-2.17272e-05
0.000134077
-0.000128268
-2.79475e-05
0.000120585
-0.000114365
-3.46835e-05
0.000105037
-9.83014e-05
-4.20649e-05
8.754e-05
-8.01586e-05
-5.0249e-05
6.81869e-05
-6.00028e-05
-5.9414e-05
4.70083e-05
-3.78432e-05
-6.97563e-05
2.39732e-05
-1.36309e-05
-8.14854e-05
-9.82112e-07
1.27112e-05
-9.49163e-05
-2.79943e-05
4.14252e-05
-0.000110409
-5.71448e-05
7.26376e-05
-8.82572e-05
0.000106236
-0.000128388
-5.94173e-07
0.000103814
-4.09798e-06
0.00015641
-8.78287e-06
0.000158771
-1.38482e-05
0.000150414
-1.92456e-05
0.000139474
-2.50476e-05
0.000126387
-3.13485e-05
0.000111338
-3.82677e-05
9.44592e-05
-4.59501e-05
7.58692e-05
-5.45596e-05
5.56178e-05
-6.42783e-05
3.36919e-05
-7.53016e-05
1.00412e-05
-8.7914e-05
-1.53819e-05
-0.000102448
-4.26103e-05
-7.15225e-05
-0.000119183
1.61871e-07
0.000103652
-2.80323e-06
0.000159375
-6.99696e-06
0.000162965
-1.16207e-05
0.000155037
-1.65841e-05
0.000144438
-2.19451e-05
0.000131748
-2.77882e-05
0.000117181
-3.4221e-05
0.000100892
-4.13748e-05
8.3023e-05
-4.93989e-05
6.36419e-05
-5.84608e-05
4.27538e-05
-6.8746e-05
2.03263e-05
-8.04914e-05
-3.63642e-06
-9.39916e-05
-2.91101e-05
-5.60793e-05
-0.000109435
7.65734e-07
0.000102886
-1.46596e-06
0.000161606
-5.08843e-06
0.000166587
-9.24698e-06
0.000159196
-1.37555e-05
0.000148946
-1.86557e-05
0.000136648
-2.40207e-05
0.000122546
-2.99453e-05
0.000106817
-3.65458e-05
8.96235e-05
-4.39558e-05
7.1052e-05
-5.23276e-05
5.11256e-05
-6.18307e-05
2.98294e-05
-7.26578e-05
7.19069e-06
-8.50541e-05
-1.67138e-05
-4.19438e-05
-9.91896e-05
1.47482e-06
0.000101411
4.54985e-08
0.000163036
-3.06267e-06
0.000169695
-6.73722e-06
0.000162871
-1.07719e-05
0.000152981
-1.51933e-05
0.00014107
-2.00625e-05
0.000127415
-2.54588e-05
0.000112213
-3.14829e-05
9.56477e-05
-3.82521e-05
7.78211e-05
-4.59003e-05
5.87738e-05
-5.45779e-05
3.85071e-05
-6.44423e-05
1.70551e-05
-7.56761e-05
-5.48002e-06
-2.91565e-05
-8.84634e-05
2.23651e-06
9.9175e-05
1.55042e-06
0.000163722
-9.515e-07
0.000172197
-4.10006e-06
0.000166019
-7.64429e-06
0.000156525
-1.15713e-05
0.000144997
-1.59289e-05
0.000131773
-2.07789e-05
0.000117063
-2.6205e-05
0.000101074
-3.23067e-05
8.39228e-05
-3.9199e-05
6.56661e-05
-4.70069e-05
4.6315e-05
-5.58644e-05
2.59126e-05
-6.58836e-05
4.53915e-06
-1.77793e-05
-7.72608e-05
3.04135e-06
9.61336e-05
3.1825e-06
0.000163581
1.28725e-06
0.000174093
-1.35282e-06
0.000168659
-4.38581e-06
0.000159558
-7.80171e-06
0.000148413
-1.16351e-05
0.000135606
-1.59221e-05
0.00012135
-2.07298e-05
0.000105881
-2.61388e-05
8.93318e-05
-3.22422e-05
7.17696e-05
-3.91398e-05
5.32125e-05
-4.6933e-05
3.37058e-05
-5.57162e-05
1.33223e-05
-7.89819e-06
-6.55973e-05
3.87585e-06
9.22578e-05
4.89803e-06
0.000162558
3.67927e-06
0.000175311
1.51788e-06
0.000170821
-1.02001e-06
0.000162096
-3.89965e-06
0.000151292
-7.19674e-06
0.000138903
-1.09053e-05
0.000125059
-1.50757e-05
0.000110052
-1.97684e-05
9.40246e-05
-2.50542e-05
7.70554e-05
-3.10061e-05
5.91644e-05
-3.77019e-05
4.04016e-05
-4.52104e-05
2.08308e-05
4.17274e-07
-5.35258e-05
4.72736e-06
8.75304e-05
6.67855e-06
0.000160607
6.15416e-06
0.000175836
4.56924e-06
0.000172405
2.49351e-06
0.000164172
5.28056e-08
0.000153733
-2.63805e-06
0.000141594
-5.74739e-06
0.000128168
-9.26248e-06
0.000113567
-1.32182e-05
9.79803e-05
-1.76629e-05
8.15001e-05
-2.26399e-05
6.41414e-05
-2.82043e-05
4.5966e-05
-3.44254e-05
2.70519e-05
7.12428e-06
-4.11324e-05
5.58069e-06
8.19497e-05
8.5055e-06
0.000157682
8.71276e-06
0.000175628
7.6977e-06
0.000173421
6.16513e-06
0.000165704
4.27407e-06
0.000155624
2.02927e-06
0.000143839
-4.81462e-07
0.000130679
-3.31662e-06
0.000116402
-6.51326e-06
0.000101177
-1.00986e-05
8.50855e-05
-1.40823e-05
6.81251e-05
-1.84816e-05
5.03653e-05
-2.34351e-05
3.20055e-05
1.21924e-05
-2.85032e-05
6.41515e-06
7.55346e-05
1.03574e-05
0.00015374
1.13396e-05
0.000174646
1.09115e-05
0.000173849
9.90559e-06
0.00016671
8.54731e-06
0.000156982
6.87723e-06
0.000145509
4.93041e-06
0.000132625
2.72705e-06
0.000118605
2.83499e-07
0.00010362
-2.39742e-06
8.77664e-05
-5.37892e-06
7.11066e-05
-8.58667e-06
5.3573e-05
-1.22704e-05
3.56892e-05
1.56633e-05
-1.57413e-05
7.20362e-06
6.8331e-05
1.22056e-05
0.000148738
1.40135e-05
0.000172838
1.41969e-05
0.000173665
1.3722e-05
0.000167185
1.28898e-05
0.000157815
1.17832e-05
0.000146616
1.04511e-05
0.000133958
8.92962e-06
0.000120127
7.2485e-06
0.000105302
5.40722e-06
8.96077e-05
3.42759e-06
7.30862e-05
1.27542e-06
5.57252e-05
-8.44662e-07
3.78093e-05
1.77756e-05
-2.95702e-06
7.91063e-06
6.04203e-05
1.40118e-05
0.000142637
1.67072e-05
0.000170143
1.7536e-05
0.000172836
1.76005e-05
0.000167121
1.72941e-05
0.000158121
1.67461e-05
0.000147164
1.60236e-05
0.00013468
1.51843e-05
0.000120966
1.42743e-05
0.000106212
1.33267e-05
9.05553e-05
1.2342e-05
7.40709e-05
1.14389e-05
5.66283e-05
1.0505e-05
3.87431e-05
1.86828e-05
9.59786e-06
8.49018e-06
5.19301e-05
1.57271e-05
0.0001354
1.93851e-05
0.000166485
2.0906e-05
0.000171316
2.15227e-05
0.000166504
2.17434e-05
0.0001579
2.17492e-05
0.000147158
2.16336e-05
0.000134796
2.14733e-05
0.000121127
2.13354e-05
0.000106349
2.12789e-05
9.06118e-05
2.12922e-05
7.40576e-05
2.15757e-05
5.63448e-05
2.18276e-05
3.84913e-05
1.8516e-05
2.19944e-05
8.88519e-06
4.3045e-05
1.72919e-05
0.000126993
2.2002e-05
0.000161775
2.42752e-05
0.000169042
2.5466e-05
0.000165313
2.62158e-05
0.000157151
2.67717e-05
0.000146602
2.7258e-05
0.000134309
2.77719e-05
0.000120613
2.83998e-05
0.000105721
2.92413e-05
8.97703e-05
3.02304e-05
7.30685e-05
3.17047e-05
5.48705e-05
3.3278e-05
3.6918e-05
1.70484e-05
3.47455e-05
9.03043e-06
3.40145e-05
1.86379e-05
0.000117386
2.45018e-05
0.000155911
2.76023e-05
0.000165942
2.94004e-05
0.000163515
3.06861e-05
0.000155865
3.17882e-05
0.0001455
3.28694e-05
0.000133228
3.40515e-05
0.00011943
3.54328e-05
0.00010434
3.71809e-05
8.80222e-05
3.9125e-05
7.11245e-05
4.17703e-05
5.22252e-05
4.48096e-05
3.38787e-05
1.42532e-05
4.76048e-05
8.86201e-06
2.51525e-05
1.96928e-05
0.000106555
2.68154e-05
0.000148788
3.08336e-05
0.000161924
3.32881e-05
0.000161061
3.51245e-05
0.000154028
3.67691e-05
0.000143855
3.84358e-05
0.000131562
4.02802e-05
0.000117586
4.23911e-05
0.000102229
4.506e-05
8.53533e-05
4.7951e-05
6.82335e-05
5.16863e-05
4.84898e-05
5.62628e-05
2.93023e-05
9.96592e-06
6.055e-05
8.33629e-06
1.68162e-05
2.03897e-05
9.45017e-05
2.8858e-05
0.00014032
3.39002e-05
0.000156881
3.70818e-05
0.000157879
3.9494e-05
0.000151616
4.16799e-05
0.000141669
4.39195e-05
0.000129322
4.64235e-05
0.000115082
4.92272e-05
9.94256e-05
5.28264e-05
8.17541e-05
5.67003e-05
6.43596e-05
6.14069e-05
4.37833e-05
6.73966e-05
2.33126e-05
3.71179e-06
7.36507e-05
7.4564e-06
9.35983e-06
2.06579e-05
8.13003e-05
3.05254e-05
0.000130453
3.67174e-05
0.000150689
4.07209e-05
0.000153876
4.37484e-05
0.000148589
4.64797e-05
0.000138938
4.92749e-05
0.000126527
5.24426e-05
0.000111914
5.59015e-05
9.59667e-05
6.03989e-05
7.72568e-05
6.53498e-05
5.94087e-05
7.10293e-05
3.81038e-05
7.80291e-05
1.63127e-05
-4.75521e-06
8.64961e-05
6.29473e-06
3.0651e-06
2.03976e-05
6.71974e-05
3.16983e-05
0.000119152
3.91839e-05
0.000143204
4.41277e-05
0.000148932
4.78266e-05
0.00014489
5.11186e-05
0.000135646
5.44456e-05
0.0001232
5.82857e-05
0.000108074
6.23871e-05
9.18653e-05
6.76742e-05
7.19697e-05
7.37528e-05
5.33301e-05
8.0713e-05
3.11436e-05
8.83062e-05
8.71945e-06
-1.53093e-05
9.88603e-05
4.98272e-06
-1.91762e-06
1.9519e-05
5.26611e-05
3.22549e-05
0.000106416
4.11808e-05
0.000134278
4.72001e-05
0.000142912
5.16459e-05
0.000140444
5.55339e-05
0.000131758
5.9366e-05
0.000119368
6.38727e-05
0.000103567
6.86729e-05
8.70652e-05
7.46065e-05
6.60361e-05
8.16363e-05
4.63003e-05
9.03157e-05
2.24643e-05
9.85094e-05
5.2573e-07
-2.76044e-05
0.000110805
3.66909e-06
-5.58671e-06
1.79717e-05
3.83585e-05
3.20848e-05
9.23029e-05
4.25695e-05
0.000123793
4.98059e-05
0.000135676
5.50945e-05
0.000135155
5.96407e-05
0.000127212
6.39723e-05
0.000115036
6.90791e-05
9.84606e-05
7.47087e-05
8.14355e-05
8.12618e-05
5.9483e-05
8.88933e-05
3.86688e-05
9.93599e-05
1.19976e-05
0.000108469
-8.58332e-06
-4.14657e-05
0.00012233
2.46064e-06
-8.04735e-06
1.57842e-05
2.5035e-05
3.1097e-05
7.69901e-05
4.31879e-05
0.000111702
5.17769e-05
0.000127087
5.80244e-05
0.000128908
6.33142e-05
0.000121922
6.82005e-05
0.00011015
7.37492e-05
9.29118e-05
8.03201e-05
7.48646e-05
8.76279e-05
5.21753e-05
9.57366e-05
3.05601e-05
0.000107586
1.48189e-07
0.00011774
-1.87371e-05
-5.67931e-05
0.000133067
1.44697e-06
-9.49432e-06
1.31107e-05
1.33713e-05
2.92302e-05
6.08706e-05
4.28544e-05
9.80779e-05
5.29094e-05
0.000117032
6.02481e-05
0.000121569
6.63645e-05
0.000115806
7.19657e-05
0.000104549
7.77492e-05
8.71284e-05
8.52712e-05
6.73426e-05
9.33246e-05
4.41219e-05
0.000102291
2.15939e-05
0.00011492
-1.2481e-05
0.00012614
-2.99568e-05
-7.3333e-05
0.00014268
7.02114e-07
-1.01964e-05
1.01975e-05
3.87586e-06
2.64433e-05
4.46249e-05
4.13876e-05
8.31335e-05
5.29697e-05
0.00010545
6.15409e-05
0.000112998
6.85207e-05
0.000108826
7.51158e-05
9.79535e-05
8.09424e-05
8.13018e-05
8.95032e-05
5.87817e-05
9.76531e-05
3.5972e-05
0.000108418
1.08288e-05
0.000120862
-2.49251e-05
0.000133454
-4.25486e-05
-9.0858e-05
0.000150979
2.39936e-07
-1.04364e-05
7.41692e-06
-3.30113e-06
2.2776e-05
2.92658e-05
3.86537e-05
6.72559e-05
5.17097e-05
9.23939e-05
6.16567e-05
0.000103051
6.94282e-05
0.000101054
7.73825e-05
8.99993e-05
8.31059e-05
7.55783e-05
9.29107e-05
4.89769e-05
0.000100301
2.85814e-05
0.000113864
-2.73421e-06
0.000124621
-3.56815e-05
0.000139561
-5.74886e-05
-0.000108981
0.000157684
-5.65742e-09
-1.04307e-05
5.05108e-06
-8.35786e-06
1.84502e-05
1.58667e-05
3.46322e-05
5.10739e-05
4.8898e-05
7.81281e-05
6.03331e-05
9.16159e-05
6.87089e-05
9.26786e-05
7.81412e-05
8.05671e-05
8.4429e-05
6.92905e-05
9.48776e-05
3.85284e-05
0.000102076
2.1383e-05
0.000118381
-1.90394e-05
0.000126412
-4.37127e-05
0.000144515
-7.55912e-05
-0.000126598
0.000162131
-1.35637e-07
-1.02951e-05
3.20735e-06
-1.17008e-05
1.39629e-05
5.11108e-06
2.94962e-05
3.55406e-05
4.43982e-05
6.32261e-05
5.72695e-05
7.87447e-05
6.63143e-05
8.36338e-05
7.64034e-05
7.04779e-05
8.44998e-05
6.11941e-05
9.47919e-05
2.82363e-05
0.000102904
1.32711e-05
0.000120742
-3.6878e-05
0.000125609
-4.85789e-05
0.000147555
-9.75375e-05
-0.000141541
0.000162498
-1.73086e-07
-1.0122e-05
1.94985e-06
-1.38238e-05
9.88788e-06
-2.82696e-06
2.36427e-05
2.17858e-05
3.83311e-05
4.85377e-05
5.20965e-05
6.49793e-05
6.22583e-05
7.34719e-05
7.18328e-05
6.09034e-05
8.17789e-05
5.1248e-05
9.14938e-05
1.85214e-05
0.000100977
3.78822e-06
0.000116457
-5.23585e-05
0.000120172
-5.22936e-05
0.000147283
-0.000124649
-0.000150802
0.000156544
-1.53195e-07
-9.9688e-06
1.16981e-06
-1.51468e-05
6.58362e-06
-8.24076e-06
1.76424e-05
1.07271e-05
3.11683e-05
3.50118e-05
4.47306e-05
5.1417e-05
5.60451e-05
6.21574e-05
6.49484e-05
5.20002e-05
7.50992e-05
4.10972e-05
8.39551e-05
9.66545e-06
9.47575e-05
-7.01414e-06
0.000102322
-5.99232e-05
0.000111719
-6.16906e-05
0.000143064
-0.000155993
-0.000149824
0.000142085
-1.19861e-07
-9.84893e-06
6.41257e-07
-1.59079e-05
4.04282e-06
-1.16423e-05
1.20488e-05
2.72108e-06
2.35007e-05
2.356e-05
3.56631e-05
3.92546e-05
4.7209e-05
5.06115e-05
5.60323e-05
4.31768e-05
6.51152e-05
3.20143e-05
7.30988e-05
1.68192e-06
8.40392e-05
-1.79546e-05
8.6331e-05
-6.2215e-05
0.000110484
-8.58437e-05
0.000132413
-0.000177923
-0.000202608
0.000185197
-1.28562e-07
-9.72037e-06
1.34008e-07
-1.61705e-05
1.97524e-06
-1.34836e-05
7.13362e-06
-2.4373e-06
1.58565e-05
1.48371e-05
2.56892e-05
2.94219e-05
3.61815e-05
4.01192e-05
4.47101e-05
3.46483e-05
5.28607e-05
2.38636e-05
5.94656e-05
-4.92298e-06
6.96474e-05
-2.81363e-05
8.18741e-05
-7.44417e-05
0.000120955
-0.000124924
0.00016361
-0.000220578
-0.000281615
0.000242617
-2.33717e-07
-9.48666e-06
-5.1371e-07
-1.58905e-05
-3.63675e-08
-1.39609e-05
2.78251e-06
-5.25618e-06
8.56338e-06
9.05622e-06
1.56432e-05
2.23421e-05
2.39669e-05
3.17954e-05
3.1368e-05
2.72472e-05
3.86479e-05
1.65838e-05
4.38993e-05
-1.01744e-05
6.03769e-05
-4.4614e-05
9.1537e-05
-0.000105602
0.000148987
-0.000182375
0.000203925
-0.000275516
-0.000328557
0.000250867
-4.68608e-07
-9.01805e-06
-1.38177e-06
-1.49773e-05
-1.98669e-06
-1.3356e-05
-1.31376e-06
-5.9291e-06
1.61077e-06
6.13169e-06
5.90771e-06
1.80451e-05
1.13891e-05
2.6314e-05
1.68418e-05
2.17945e-05
2.34636e-05
9.96201e-06
3.41752e-05
-2.0886e-05
6.77001e-05
-7.81389e-05
0.00012018
-0.000158082
0.00018137
-0.000243564
0.000220439
-0.000314585
-0.000364097
0.000255979
-8.37054e-07
-8.18099e-06
-2.49929e-06
-1.33151e-05
-4.23551e-06
-1.16198e-05
-5.32281e-06
-4.8418e-06
-4.98086e-06
5.78973e-06
-3.43902e-06
1.65033e-05
-7.15558e-07
2.35906e-05
2.97852e-06
1.81004e-05
1.31507e-05
-2.10187e-07
4.14885e-05
-4.92238e-05
9.43585e-05
-0.000131009
0.000152332
-0.000216056
0.00019909
-0.000290322
0.000232478
-0.000347973
-0.000394629
0.00026301
-1.30337e-06
-6.87762e-06
-3.78004e-06
-1.08384e-05
-6.62578e-06
-8.77402e-06
-9.26626e-06
-2.20132e-06
-1.10681e-05
7.59161e-06
-1.2031e-05
1.74662e-05
-1.13999e-05
2.29595e-05
-5.67629e-06
1.23768e-05
1.77587e-05
-2.36452e-05
6.65772e-05
-9.80423e-05
0.000124831
-0.000189263
0.000173097
-0.000264322
0.000210627
-0.000327851
0.000238584
-0.00037593
-0.000412232
0.000256187
-1.79192e-06
-5.0857e-06
-5.04222e-06
-7.58812e-06
-8.85799e-06
-4.95824e-06
-1.27071e-05
1.64782e-06
-1.59569e-05
1.08413e-05
-1.80034e-05
1.95127e-05
-1.64704e-05
2.14264e-05
-1.58608e-06
-2.50749e-06
3.95221e-05
-6.47534e-05
9.6827e-05
-0.000155347
0.000146728
-0.000239164
0.000186749
-0.000304343
0.000216601
-0.000357703
0.000236153
-0.000395481
-0.000430951
0.000254872
-2.20131e-06
-2.88439e-06
-6.04032e-06
-3.74911e-06
-1.04985e-05
-5.00047e-07
-1.49298e-05
6.07915e-06
-1.847e-05
1.43815e-05
-1.93521e-05
2.03949e-05
-1.31293e-05
1.52037e-05
1.61128e-05
-3.17497e-05
6.84316e-05
-0.000117072
0.000120268
-0.000207184
0.000162252
-0.000281148
0.000194335
-0.000336427
0.000216755
-0.000380123
0.000235274
-0.000414001
-0.000444258
0.000248581
-2.43488e-06
-4.49513e-07
-6.55223e-06
3.68244e-07
-1.1148e-05
4.09574e-06
-1.53726e-05
1.03037e-05
-1.79447e-05
1.69536e-05
-1.6016e-05
1.84662e-05
-4.39362e-07
-3.72963e-07
4.11548e-05
-7.33438e-05
9.30627e-05
-0.00016898
0.000137738
-0.000251859
0.000171824
-0.000315234
0.00019692
-0.000361522
0.000216236
-0.000399439
0.000229616
-0.00042738
-0.000455734
0.000241092
-2.43778e-06
1.98827e-06
-6.46334e-06
4.3938e-06
-1.06838e-05
8.31624e-06
-1.39647e-05
1.35846e-05
-1.45588e-05
1.75477e-05
-9.23359e-06
1.3141e-05
1.74256e-05
-2.70322e-05
6.60563e-05
-0.000121974
0.000112123
-0.000215047
0.00014938
-0.000289115
0.000176804
-0.000342659
0.000197477
-0.000382195
0.000211876
-0.000413838
0.000224052
-0.000439556
-0.000467755
0.000236073
-2.21765e-06
4.20593e-06
-5.8231e-06
7.99925e-06
-9.26117e-06
1.17543e-05
-1.11915e-05
1.55149e-05
-9.59771e-06
1.59539e-05
1.65865e-06
1.88461e-06
3.86216e-05
-6.39951e-05
8.60954e-05
-0.000169448
0.000126189
-0.000255141
0.000156721
-0.000319647
0.00017883
-0.000364768
0.000194756
-0.000398121
0.000207477
-0.00042656
0.000218457
-0.000450536
-0.000476455
0.000227157
-1.83408e-06
6.04001e-06
-4.79659e-06
1.09618e-05
-7.23216e-06
1.41899e-05
-7.65807e-06
1.59408e-05
-4.56022e-06
1.2856e-05
1.52765e-05
-1.79521e-05
5.99459e-05
-0.000108665
0.000101978
-0.00021148
0.000135751
-0.000288914
0.000160468
-0.000344363
0.000177841
-0.000382141
0.000191449
-0.00041173
0.000202012
-0.000437122
0.000211007
-0.000459531
-0.000486532
0.000221084
-1.37528e-06
7.41528e-06
-3.60189e-06
1.31884e-05
-5.01802e-06
1.5606e-05
-4.04275e-06
1.49656e-05
1.67042e-06
7.14285e-06
3.09378e-05
-4.72195e-05
7.66828e-05
-0.00015441
0.000113887
-0.000248685
0.000141678
-0.000316704
0.00016136
-0.000364046
0.000175651
-0.000396432
0.000186676
-0.000422754
0.000195728
-0.000446175
0.000205122
-0.000468925
-0.000494699
0.000213289
-9.30336e-07
8.34562e-06
-2.44727e-06
1.47053e-05
-2.87255e-06
1.60313e-05
-1.48381e-06
1.35768e-05
1.03964e-05
-4.7374e-06
4.84631e-05
-8.52862e-05
8.97717e-05
-0.000195718
0.000121884
-0.000280797
0.000144564
-0.000339384
0.000160404
-0.000379887
0.000171842
-0.00040787
0.000181387
-0.000432298
0.000189905
-0.000454694
0.000197703
-0.000476722
-0.000502673
0.000205677
-5.70198e-07
8.91582e-06
-1.49089e-06
1.5626e-05
-1.10362e-06
1.5644e-05
5.85676e-07
1.18875e-05
2.05379e-05
-2.46896e-05
6.38487e-05
-0.000128597
0.000100069
-0.000231938
0.000126772
-0.000307501
0.000145188
-0.000357799
0.000157813
-0.000392512
0.000167483
-0.000417541
0.000175876
-0.000440691
0.000183107
-0.000461925
0.000191034
-0.000484648
-0.000510459
0.000198819
-3.39163e-07
9.25498e-06
-6.95073e-07
1.59819e-05
-1.05933e-07
1.50549e-05
4.37283e-06
7.40877e-06
3.34357e-05
-5.37525e-05
7.50082e-05
-0.00017017
0.000107079
-0.000264009
0.000129121
-0.000329543
0.000143922
-0.0003726
0.000154299
-0.000402889
0.000162494
-0.000425736
0.000169776
-0.000447973
0.000176882
-0.000469031
0.000184068
-0.000491834
-0.000516972
0.000190581
-2.45444e-07
9.50042e-06
-6.17545e-08
1.57982e-05
4.78791e-08
1.49452e-05
1.05793e-05
-3.12269e-06
4.74826e-05
-9.06558e-05
8.40272e-05
-0.000206714
0.000111352
-0.000291333
0.000129445
-0.000347636
0.000141463
-0.000384618
0.000149998
-0.000411425
0.000157114
-0.000432851
0.000163894
-0.000454753
0.000170174
-0.000475312
0.000176836
-0.000498495
-0.000523752
0.000183615
-2.44352e-07
9.74478e-06
1.2197e-07
1.54319e-05
2.76078e-07
1.47911e-05
1.78884e-05
-2.0735e-05
5.88723e-05
-0.00013164
9.07873e-05
-0.000238629
0.000113373
-0.000313919
0.000128152
-0.000362415
0.000137953
-0.000394418
0.000145197
-0.00041867
0.000151597
-0.00043925
0.000157577
-0.000460733
0.000163596
-0.000481331
0.000170058
-0.000504957
-0.000529338
0.000175644
-2.06453e-07
9.95123e-06
8.96016e-08
1.51358e-05
2.23008e-06
1.26507e-05
2.78854e-05
-4.63903e-05
6.65261e-05
-0.00017028
9.5124e-05
-0.000267227
0.000113806
-0.000332601
0.000125733
-0.000374342
0.000133841
-0.000402526
0.000140107
-0.000424935
0.000145786
-0.00044493
0.00015142
-0.000466367
0.000157013
-0.000486924
0.00016272
-0.000510664
-0.000534923
0.000168306
-1.21362e-07
1.00726e-05
-3.10741e-07
1.53252e-05
6.48624e-06
5.85367e-06
3.91525e-05
-7.90566e-05
7.27346e-05
-0.000203862
9.72354e-05
-0.000291728
0.000112714
-0.000348079
0.000122442
-0.00038407
0.000129225
-0.000409309
0.00013471
-0.000430421
0.00013998
-0.000450201
0.000145078
-0.000471465
0.000150235
-0.00049208
0.000155808
-0.000516237
-0.000539953
0.000160837
-1.72338e-07
1.02449e-05
-8.59269e-07
1.60121e-05
1.15191e-05
-6.52474e-06
4.84988e-05
-0.000116036
7.73985e-05
-0.000232762
9.77016e-05
-0.000312031
0.0001105
-0.000360878
0.000118544
-0.000392114
0.000124327
-0.000415092
0.000129258
-0.000435352
0.00013401
-0.000454953
0.000138735
-0.00047619
0.000143637
-0.000496982
0.000148551
-0.000521151
-0.000544589
0.000153187
-2.26679e-07
1.04716e-05
-7.15934e-07
1.65014e-05
1.75807e-05
-2.48214e-05
5.42671e-05
-0.000152723
8.03929e-05
-0.000258888
9.71369e-05
-0.000328775
0.0001075
-0.000371241
0.000114178
-0.000398792
0.000119207
-0.00042012
0.000123617
-0.000439762
0.000128032
-0.000459368
0.000132387
-0.000480546
0.000136806
-0.000501401
0.000141427
-0.000525772
-0.000548995
0.000145834
-1.81863e-07
1.06535e-05
9.93521e-07
1.5326e-05
2.55029e-05
-4.93307e-05
5.81671e-05
-0.000185387
8.15298e-05
-0.000282251
9.55618e-05
-0.000342807
0.00010396
-0.00037964
0.000109541
-0.000404372
0.000113945
-0.000424525
0.000117989
-0.000443806
0.000122007
-0.000463387
0.000125961
-0.000484499
0.000130125
-0.000505564
0.000134258
-0.000529906
-0.000552818
0.000138081
-2.36576e-07
1.089e-05
3.99112e-06
1.10983e-05
3.3294e-05
-7.86336e-05
6.14436e-05
-0.000213536
8.12423e-05
-0.000302049
9.30483e-05
-0.000354613
9.99886e-05
-0.00038658
0.000104699
-0.000409083
0.000108611
-0.000428436
0.000112259
-0.000447454
0.000115938
-0.000467065
0.00011959
-0.000488152
0.000123313
-0.000509288
0.000127005
-0.000533597
-0.000556454
0.00013064
-3.03872e-07
1.11939e-05
7.41261e-06
3.38184e-06
3.93736e-05
-0.000110595
6.3689e-05
-0.000237852
8.00639e-05
-0.000318424
8.9833e-05
-0.000364382
9.56627e-05
-0.00039241
9.97447e-05
-0.000413165
0.000103221
-0.000431912
0.00010655
-0.000450783
0.000109892
-0.000470407
0.000113146
-0.000491405
0.000116546
-0.000512688
0.000119859
-0.00053691
-0.000559552
0.000122957
-3.50269e-07
1.15442e-05
1.10311e-05
-7.99957e-06
4.311e-05
-0.000142673
6.4887e-05
-0.000259629
7.82886e-05
-0.000331826
8.62191e-05
-0.000372313
9.11166e-05
-0.000397307
9.46851e-05
-0.000416734
9.78134e-05
-0.000435041
0.000100806
-0.000453776
0.000103796
-0.000473397
0.000106747
-0.000494356
0.000109752
-0.000515693
0.000112582
-0.00053974
-0.000562379
0.00011541
-5.55521e-07
1.20997e-05
1.5443e-05
-2.39981e-05
4.46304e-05
-0.000171861
6.47278e-05
-0.000279726
7.60066e-05
-0.000343105
8.23809e-05
-0.000378687
8.64506e-05
-0.000401377
8.95883e-05
-0.000419871
9.23862e-05
-0.000437839
9.50752e-05
-0.000456465
9.77494e-05
-0.000476071
0.00010032
-0.000496927
0.000102946
-0.000518319
0.000105428
-0.000542222
-0.000564788
0.000107837
-8.40664e-07
1.29404e-05
1.968e-05
-4.45188e-05
4.58144e-05
-0.000197995
6.34648e-05
-0.000297377
7.31645e-05
-0.000352804
7.83836e-05
-0.000383906
8.17611e-05
-0.000404754
8.44783e-05
-0.000422589
8.6965e-05
-0.000440325
8.9345e-05
-0.000458845
9.16671e-05
-0.000478393
9.3915e-05
-0.000499175
9.61759e-05
-0.00052058
9.82058e-05
-0.000544252
-0.00056685
0.000100268
-2.22448e-07
1.31628e-05
2.34278e-05
-6.8169e-05
4.64644e-05
-0.000221032
6.15958e-05
-0.000312508
6.98456e-05
-0.000361054
7.42297e-05
-0.00038829
7.70601e-05
-0.000407585
7.93989e-05
-0.000424927
8.15624e-05
-0.000442489
8.3628e-05
-0.000460911
8.56351e-05
-0.0004804
8.75217e-05
-0.000501061
8.93841e-05
-0.000522442
9.10738e-05
-0.000545941
-0.000568584
9.28078e-05
7.07233e-07
1.24556e-05
2.63993e-05
-9.38611e-05
4.65747e-05
-0.000241207
5.93365e-05
-0.00032527
6.6228e-05
-0.000367945
6.99432e-05
-0.000392005
7.23622e-05
-0.000410004
7.43513e-05
-0.000426917
7.61911e-05
-0.000444329
7.79379e-05
-0.000462657
7.95923e-05
-0.000482055
8.11359e-05
-0.000502605
8.26448e-05
-0.000523951
8.39333e-05
-0.00054723
-0.000569965
8.53143e-05
2.15583e-06
1.02998e-05
2.83902e-05
-0.000120095
4.62871e-05
-0.000259104
5.68683e-05
-0.000335851
6.24924e-05
-0.000373569
6.55955e-05
-0.000395109
6.76558e-05
-0.000412064
6.93368e-05
-0.000428598
7.08587e-05
-0.000445851
7.22732e-05
-0.000464072
7.3597e-05
-0.000483379
7.47874e-05
-0.000503795
7.58998e-05
-0.000525064
7.68414e-05
-0.000548172
-0.000571054
7.79306e-05
4.23359e-06
6.06617e-06
2.94015e-05
-0.000145263
4.55816e-05
-0.000275284
5.42659e-05
-0.000344536
5.87299e-05
-0.000378034
6.12438e-05
-0.000397622
6.2968e-05
-0.000413788
6.43519e-05
-0.000429981
6.55603e-05
-0.000447059
6.6648e-05
-0.00046516
6.76165e-05
-0.000484347
6.84483e-05
-0.000504627
6.92047e-05
-0.00052582
6.9776e-05
-0.000548743
-0.000571752
7.04737e-05
6.7249e-06
-6.58732e-07
2.93547e-05
-0.000167893
4.42943e-05
-0.000290224
5.15523e-05
-0.000351794
5.4995e-05
-0.000381476
5.69385e-05
-0.000399566
5.83102e-05
-0.00041516
5.93984e-05
-0.00043107
6.03011e-05
-0.000447962
6.10559e-05
-0.000465915
6.16821e-05
-0.000484973
6.21607e-05
-0.000505106
6.25266e-05
-0.000526186
6.27188e-05
-0.000548935
-0.000572058
6.30245e-05
9.53021e-06
-1.01889e-05
2.95449e-05
-0.000187908
4.25422e-05
-0.000303221
4.86432e-05
-0.000357895
5.12721e-05
-0.000384105
5.2694e-05
-0.000400988
5.37062e-05
-0.000416172
5.4487e-05
-0.00043185
5.50783e-05
-0.000448553
5.55067e-05
-0.000466343
5.57798e-05
-0.000485246
5.58924e-05
-0.000505218
5.58905e-05
-0.000526184
5.5697e-05
-0.000548741
-0.000571903
5.55429e-05
1.17591e-05
-2.1948e-05
2.9563e-05
-0.000205712
4.05459e-05
-0.000314204
4.55312e-05
-0.00036288
4.75295e-05
-0.000386103
4.85073e-05
-0.000401966
4.91613e-05
-0.000416826
4.96235e-05
-0.000432313
4.99021e-05
-0.000448831
4.99989e-05
-0.00046644
4.99242e-05
-0.000485171
4.96778e-05
-0.000504972
4.92866e-05
-0.000525793
4.8696e-05
-0.000548151
-0.000571322
4.81145e-05
1.33359e-05
-3.5284e-05
2.91516e-05
-0.000221527
3.83244e-05
-0.000323377
4.22717e-05
-0.000366827
4.37445e-05
-0.000387576
4.43578e-05
-0.000402579
4.46799e-05
-0.000417148
4.48202e-05
-0.000432453
4.4776e-05
-0.000448787
4.45416e-05
-0.000466205
4.41141e-05
-0.000484744
4.34927e-05
-0.000504351
4.27178e-05
-0.000525018
4.17481e-05
-0.000547181
-0.00057028
4.07062e-05
1.41857e-05
-4.94697e-05
2.83356e-05
-0.000235677
3.59365e-05
-0.000330978
3.89496e-05
-0.00036984
3.99543e-05
-0.000388581
4.02471e-05
-0.000402872
4.02576e-05
-0.000417159
4.00771e-05
-0.000432272
3.97089e-05
-0.000448419
3.91389e-05
-0.000465635
3.83597e-05
-0.000483965
3.73681e-05
-0.000503359
3.6192e-05
-0.000523842
3.48288e-05
-0.000545818
-0.0005688
3.33483e-05
1.44008e-05
-6.38705e-05
2.71261e-05
-0.000248403
3.33981e-05
-0.00033725
3.56109e-05
-0.000372053
3.61885e-05
-0.000389158
3.61799e-05
-0.000402863
3.58946e-05
-0.000416874
3.54008e-05
-0.000431779
3.47046e-05
-0.000447723
3.37976e-05
-0.000464728
3.26669e-05
-0.000482834
3.12997e-05
-0.000501992
2.97178e-05
-0.00052226
2.79445e-05
-0.000544045
-0.000566889
2.60337e-05
1.41766e-05
-7.80471e-05
2.5622e-05
-0.000259848
3.07631e-05
-0.000342391
3.22895e-05
-0.00037358
3.24729e-05
-0.000389342
3.21701e-05
-0.00040256
3.15936e-05
-0.000416297
3.07892e-05
-0.000430974
2.97678e-05
-0.000446701
2.85221e-05
-0.000463483
2.70406e-05
-0.000481353
2.5314e-05
-0.000500265
2.33369e-05
-0.000520283
2.1084e-05
-0.000541792
-0.000564557
1.87524e-05
1.36571e-05
-9.17041e-05
2.38935e-05
-0.000270084
2.8057e-05
-0.000346554
2.89999e-05
-0.000374523
2.88218e-05
-0.000389164
2.82267e-05
-0.000401965
2.73599e-05
-0.00041543
2.6249e-05
-0.000429863
2.49025e-05
-0.000445355
2.33171e-05
-0.000461897
2.1483e-05
-0.000479518
1.93982e-05
-0.00049818
1.70613e-05
-0.000517946
1.43092e-05
-0.00053904
-0.000561737
1.14892e-05
1.29404e-05
-0.000104645
2.20211e-05
-0.000279165
2.53264e-05
-0.000349859
2.57628e-05
-0.000374959
2.52484e-05
-0.000388649
2.43607e-05
-0.000401077
2.32e-05
-0.00041427
2.17811e-05
-0.000428444
2.01119e-05
-0.000443686
1.81877e-05
-0.000459973
1.59976e-05
-0.000477328
1.3548e-05
-0.000495731
1.0871e-05
-0.000515269
7.72791e-06
-0.000535897
-0.000558183
4.17376e-06
1.20819e-05
-0.000116726
2.00557e-05
-0.000287139
2.26025e-05
-0.000352406
2.2593e-05
-0.000374949
2.17606e-05
-0.000387817
2.0578e-05
-0.000399895
1.91191e-05
-0.000412811
1.73921e-05
-0.000426717
1.53998e-05
-0.000441693
1.31362e-05
-0.00045771
1.05937e-05
-0.000474786
7.77191e-06
-0.000492909
4.67933e-06
-0.000512176
1.51662e-06
-0.000532734
-0.000553782
-2.88458e-06
1.10487e-05
-0.000127775
1.80483e-05
-0.000294139
1.99254e-05
-0.000354283
1.95089e-05
-0.000374533
1.83656e-05
-0.000386674
1.68844e-05
-0.000398414
1.51225e-05
-0.000411049
1.30835e-05
-0.000424678
1.0766e-05
-0.000439376
8.16275e-06
-0.000455106
5.27693e-06
-0.0004719
2.08379e-06
-0.000489716
-1.46218e-06
-0.00050863
-5.05115e-06
-0.000529145
-0.000549374
-9.45949e-06
1.00062e-05
-0.000137781
1.60501e-05
-0.000300183
1.73145e-05
-0.000355548
1.65206e-05
-0.000373739
1.50658e-05
-0.000385219
1.32821e-05
-0.00039663
1.12134e-05
-0.00040898
8.8578e-06
-0.000422323
6.20909e-06
-0.000436727
3.26356e-06
-0.000452161
2.02702e-08
-0.000468657
-3.47741e-06
-0.000486218
-7.20159e-06
-0.000504906
-1.15058e-05
-0.000524841
-0.000544834
-1.60456e-05
9.05093e-06
-0.000146832
1.41055e-05
-0.000305237
1.47819e-05
-0.000356224
1.36233e-05
-0.00037258
1.1861e-05
-0.000383456
9.77226e-06
-0.000394541
7.39238e-06
-0.0004066
4.70876e-06
-0.000419639
1.71332e-06
-0.000433732
-1.54055e-06
-0.000448907
-5.07223e-06
-0.000465125
-8.89474e-06
-0.000482396
-1.29822e-05
-0.000500819
-1.77463e-05
-0.000520077
-0.000539994
-2.25857e-05
8.12279e-06
-0.000154955
1.22326e-05
-0.000309347
1.23382e-05
-0.00035633
1.08194e-05
-0.000371062
8.75201e-06
-0.000381389
6.35265e-06
-0.000392142
3.65159e-06
-0.000403899
6.08174e-07
-0.000416596
-2.64749e-06
-0.000430476
-6.2141e-06
-0.00044534
-1.00866e-05
-0.000461253
-1.42377e-05
-0.000478244
-1.87272e-05
-0.000496329
-2.38307e-05
-0.000514973
-0.000534789
-2.9036e-05
7.2197e-06
-0.000162175
1.04399e-05
-0.000312567
9.99079e-06
-0.00035588
8.11328e-06
-0.000369184
5.7392e-06
-0.000379015
3.01491e-06
-0.000389418
-6.78102e-08
-0.000400816
-3.30753e-06
-0.000413356
-6.89691e-06
-0.000426887
-1.08034e-05
-0.000441434
-1.50062e-05
-0.00045705
-1.95053e-05
-0.000473745
-2.43974e-05
-0.000491437
-2.97942e-05
-0.000509576
-0.000529186
-3.53966e-05
6.34799e-06
-0.000168523
8.73083e-06
-0.00031495
7.74225e-06
-0.000354892
5.50805e-06
-0.00036695
2.81393e-06
-0.000376321
-2.72478e-07
-0.000386331
-3.52851e-06
-0.00039756
-7.14223e-06
-0.000409742
-1.10644e-05
-0.000422965
-1.52984e-05
-0.0004372
-1.98313e-05
-0.000452517
-2.46874e-05
-0.000468889
-2.9982e-05
-0.000486143
-3.56512e-05
-0.000503907
-0.000523194
-4.16438e-05
5.51289e-06
-0.000174036
7.1056e-06
-0.000316543
5.59992e-06
-0.000353386
3.00324e-06
-0.000364353
-8.34682e-08
-0.000373234
-3.33781e-06
-0.000383077
-6.95237e-06
-0.000393946
-1.0891e-05
-0.000405804
-1.51402e-05
-0.000418715
-1.96981e-05
-0.000432642
-2.45629e-05
-0.000447652
-2.97702e-05
-0.000463682
-3.54038e-05
-0.000480509
-4.14e-05
-0.000497911