/*--------------------------------*- C++ -*----------------------------------*\
  =========                 |
  \\      /  F ield         | OpenFOAM: The Open Source CFD Toolbox
   \\    /   O peration     | Website:  https://openfoam.org
    \\  /    A nd           | Version:  7
     \\/     M anipulation  |
\*---------------------------------------------------------------------------*/
FoamFile
{
    version     2.0;
    format      ascii;
    class       volVectorField;
    location    "38.9994";
    object      U;
}
// * * * * * * * * * * * * * * * * * * * * * * * * * * * * * * * * * * * * * //

dimensions      [0 1 -1 0 0 0 0];

internalField   nonuniform List<vector> 
18750
(
(-0.00109136 0.445621 -1.64018e-19)
(-0.0280159 0.623249 4.44106e-20)
(-0.0631885 0.595041 2.85519e-19)
(-0.0941454 0.532422 4.75317e-20)
(-0.124791 0.465503 -6.91344e-20)
(-0.154057 0.396124 -1.42434e-19)
(-0.183131 0.325531 1.08501e-19)
(-0.212154 0.25462 5.90542e-20)
(-0.241874 0.184114 -3.87933e-20)
(-0.27259 0.114468 -9.64214e-20)
(-0.304998 0.0458966 3.31503e-19)
(-0.339812 -0.0215816 -2.49769e-19)
(-0.378008 -0.0880072 1.40306e-19)
(-0.419647 -0.153274 -2.54378e-19)
(-0.46324 -0.21674 5.96419e-20)
(-0.0106991 0.44971 1.06659e-19)
(-0.0382814 0.638259 8.21448e-20)
(-0.0694128 0.612854 1.83539e-21)
(-0.0966038 0.55 2.53953e-19)
(-0.123513 0.482602 4.24706e-19)
(-0.149153 0.412969 4.45684e-19)
(-0.174707 0.342355 -3.05303e-19)
(-0.200282 0.271693 4.16609e-19)
(-0.226586 0.201718 3.46476e-19)
(-0.253888 0.132883 -8.53566e-20)
(-0.282846 0.0653892 -3.46302e-19)
(-0.31415 -0.000737722 2.01515e-20)
(-0.348684 -0.0655159 7.78707e-20)
(-0.386268 -0.128745 1.68027e-19)
(-0.424889 -0.189923 -2.45747e-19)
(-0.0201781 0.450469 2.43033e-19)
(-0.04858 0.650732 2.17234e-19)
(-0.0756707 0.628988 -6.3381e-19)
(-0.0990109 0.566266 -2.01147e-20)
(-0.122064 0.498642 -8.33826e-19)
(-0.144002 0.428949 2.12372e-19)
(-0.165983 0.358471 -4.67131e-19)
(-0.188075 0.288178 -6.44965e-20)
(-0.21094 0.21882 -2.66621e-19)
(-0.234814 0.150848 6.88073e-19)
(-0.260312 0.0844515 8.1688e-19)
(-0.288078 0.0196543 6.57526e-19)
(-0.318898 -0.0435128 3.66334e-19)
(-0.352435 -0.1048 2.34536e-19)
(-0.386341 -0.16389 -4.07167e-19)
(-0.0291377 0.448125 -8.712e-19)
(-0.0586782 0.660734 8.56415e-19)
(-0.0819491 0.643231 -5.19119e-19)
(-0.101305 0.581171 -8.22153e-19)
(-0.120405 0.513589 1.10564e-18)
(-0.138596 0.444046 -8.78168e-19)
(-0.156972 0.373864 1.0228e-18)
(-0.175558 0.304062 -7.43307e-19)
(-0.194968 0.235405 4.46818e-19)
(-0.2154 0.168348 -9.89559e-19)
(-0.237418 0.103073 -1.27175e-18)
(-0.261593 0.0396094 7.4422e-20)
(-0.288619 -0.0219618 -2.07711e-19)
(-0.3181 -0.0814142 -4.29681e-19)
(-0.347514 -0.138519 1.50941e-18)
(-0.0374072 0.442713 -4.68724e-19)
(-0.0683742 0.667669 9.55097e-19)
(-0.0881138 0.655545 2.78318e-19)
(-0.103365 0.594666 7.32266e-19)
(-0.118494 0.527426 -6.60756e-19)
(-0.132915 0.45824 2.61113e-19)
(-0.147672 0.388524 2.38458e-18)
(-0.16274 0.319333 2.82664e-19)
(-0.178684 0.251458 4.72889e-19)
(-0.195663 0.185363 -1.385e-19)
(-0.214176 0.121231 1.38463e-19)
(-0.234706 0.0590973 -2.33894e-20)
(-0.257867 -0.00094983 -1.18022e-18)
(-0.283255 -0.0587105 -6.35915e-19)
(-0.308296 -0.113933 -1.74359e-18)
(-0.0449415 0.43409 1.10348e-18)
(-0.07746 0.671409 5.89614e-20)
(-0.0939221 0.665883 -4.10431e-19)
(-0.105144 0.606712 -2.67985e-19)
(-0.116271 0.540126 1.12571e-19)
(-0.126932 0.471528 -2.38151e-18)
(-0.13807 0.402444 -2.75216e-19)
(-0.149622 0.333982 1.38748e-19)
(-0.162093 0.266965 -7.08275e-19)
(-0.175604 0.201875 -9.05032e-19)
(-0.190579 0.1389 5.85924e-19)
(-0.207406 0.0780802 -5.37248e-19)
(-0.226627 0.0194904 1.54433e-18)
(-0.24784 -0.0366354 -1.15419e-18)
(-0.268534 -0.0900981 2.4119e-18)
(-0.0514995 0.42206 -7.71621e-19)
(-0.0858098 0.671986 -1.41418e-18)
(-0.0992667 0.674057 3.88617e-19)
(-0.106537 0.617311 2.74661e-18)
(-0.113677 0.551698 2.32674e-18)
(-0.120604 0.4839 -6.39247e-19)
(-0.128151 0.415624 2.96803e-19)
(-0.136197 0.348003 1.44694e-19)
(-0.145192 0.281912 1.47834e-18)
(-0.155217 0.217862 1.86731e-18)
(-0.166616 0.156052 -8.69822e-19)
(-0.179677 0.0965171 -1.51775e-18)
(-0.194851 0.0393196 -2.65007e-18)
(-0.211795 -0.0152945 4.11713e-19)
(-0.228102 -0.0671061 -2.95381e-18)
(-0.0568664 0.406492 -4.88974e-19)
(-0.0932121 0.669187 -6.12904e-19)
(-0.104001 0.680099 -4.20074e-18)
(-0.107463 0.626479 1.22099e-18)
(-0.110673 0.562174 -1.50471e-18)
(-0.113894 0.495341 7.84988e-19)
(-0.11789 0.428082 6.56813e-19)
(-0.122455 0.361384 -2.8862e-18)
(-0.127976 0.296287 -1.70785e-18)
(-0.134496 0.233306 -2.63982e-18)
(-0.142282 0.172657 -4.53999e-19)
(-0.151524 0.114374 1.61774e-18)
(-0.162596 0.0585064 5.9445e-18)
(-0.175158 0.00527823 -8.62649e-19)
(-0.186938 -0.0449846 1.48494e-18)
(-0.0608266 0.387329 2.72652e-18)
(-0.0994453 0.662874 1.07566e-18)
(-0.107964 0.683912 4.46619e-18)
(-0.107845 0.634264 -2.94668e-18)
(-0.107247 0.571584 1.14145e-18)
(-0.106793 0.505997 -1.66652e-18)
(-0.107237 0.439728 -3.36735e-18)
(-0.108394 0.374127 2.79473e-18)
(-0.110436 0.310081 2.79994e-19)
(-0.113437 0.248185 3.86864e-18)
(-0.117579 0.188689 -1.17888e-18)
(-0.122958 0.131619 -4.87524e-18)
(-0.129876 0.0770286 -2.80987e-18)
(-0.138017 0.0251551 2.67962e-19)
(-0.145059 -0.023871 -1.23262e-18)
(-0.0631652 0.364578 -2.07363e-18)
(-0.104329 0.652927 -1.2188e-18)
(-0.111005 0.685361 1.21816e-18)
(-0.107583 0.640612 1.84026e-19)
(-0.103301 0.579997 -4.31528e-19)
(-0.0993443 0.515846 -4.42761e-19)
(-0.0962742 0.450673 1.57105e-18)
(-0.0939518 0.386239 -1.58931e-18)
(-0.0925679 0.323272 1.45711e-18)
(-0.0920413 0.262484 1.62708e-18)
(-0.0925202 0.204132 -2.75751e-18)
(-0.0940049 0.148226 4.91674e-18)
(-0.0967167 0.0948487 5.39942e-19)
(-0.100552 0.0443274 6.6124e-19)
(-0.102547 -0.00385782 1.49862e-18)
(-0.0637042 0.338328 3.4216e-18)
(-0.107705 0.639209 -1.10681e-18)
(-0.113032 0.684356 -4.79393e-18)
(-0.106584 0.645456 1.63509e-18)
(-0.0988284 0.587396 -9.1634e-19)
(-0.0914459 0.524819 1.00385e-18)
(-0.0849785 0.461072 6.29496e-18)
(-0.0792328 0.397745 2.69192e-18)
(-0.074388 0.335895 1.64604e-18)
(-0.07031 0.276209 -5.21716e-18)
(-0.0671134 0.218936 5.28535e-18)
(-0.0647132 0.164187 1.76051e-18)
(-0.0631232 0.111943 -2.7506e-18)
(-0.0629256 0.0628122 3.22219e-18)
(-0.0595153 0.0151282 -7.44958e-20)
(-0.0623278 0.308763 4.38131e-19)
(-0.109432 0.621574 2.16649e-19)
(-0.113976 0.680774 -1.7229e-19)
(-0.104815 0.648772 -2.87189e-18)
(-0.0937789 0.593753 5.2686e-18)
(-0.0830973 0.533026 -2.48865e-18)
(-0.0733211 0.470762 -6.60258e-18)
(-0.0642157 0.408693 1.71992e-18)
(-0.0559282 0.347994 -2.68606e-18)
(-0.0483148 0.289352 3.87025e-18)
(-0.0414027 0.233128 -6.51791e-18)
(-0.0351259 0.179499 4.68006e-19)
(-0.0291325 0.128448 2.44035e-18)
(-0.0251451 0.0802981 -4.87656e-18)
(-0.0162266 0.0333959 -1.09786e-18)
(-0.0590061 0.276172 -2.05439e-18)
(-0.109421 0.599867 5.97531e-19)
(-0.113775 0.674412 1.67958e-18)
(-0.102266 0.650496 -4.04636e-20)
(-0.0881469 0.599084 -6.85392e-18)
(-0.074298 0.540458 6.64508e-19)
(-0.0613036 0.479779 2.12967e-18)
(-0.0489078 0.419054 -5.27835e-18)
(-0.0372126 0.359502 3.51943e-18)
(-0.0260531 0.30192 -3.04741e-18)
(-0.0154243 0.246759 7.84574e-18)
(-0.00525777 0.194195 -3.15769e-18)
(0.00511656 0.144265 3.52487e-18)
(0.0127209 0.0969075 6.83254e-18)
(0.0275711 0.0514701 2.79288e-18)
(-0.0538305 0.240987 -7.2784e-19)
(-0.107641 0.573911 3.67537e-20)
(-0.112395 0.665004 -1.16702e-19)
(-0.0989276 0.650495 -1.80863e-19)
(-0.0819469 0.603385 -3.05435e-18)
(-0.0650667 0.547124 -1.22188e-18)
(-0.0489517 0.48815 1.98437e-18)
(-0.0333324 0.428808 1.06774e-18)
(-0.0182654 0.370436 -6.09728e-18)
(-0.00356742 0.31391 -3.38348e-19)
(0.0108078 0.259757 -1.54162e-18)
(0.024781 0.208257 2.96262e-18)
(0.0397296 0.159322 -3.90387e-18)
(0.0505994 0.112987 -4.85912e-19)
(0.0711266 0.069491 -3.14642e-18)
(-0.0470576 0.203804 3.10415e-18)
(-0.104124 0.543497 -2.68662e-18)
(-0.109821 0.652203 -3.63796e-18)
(-0.0948093 0.648565 6.10701e-18)
(-0.0752058 0.6066 5.14423e-18)
(-0.055442 0.553033 6.14088e-18)
(-0.0363065 0.49588 2.14357e-19)
(-0.0175306 0.43797 3.55094e-18)
(0.000871291 0.380791 4.52784e-18)
(0.0190915 0.325306 6.3138e-18)
(0.0372712 0.272117 -2.71568e-18)
(0.0549136 0.221681 5.43762e-18)
(0.0747588 0.173703 -7.68157e-20)
(0.0884467 0.12837 -2.55108e-18)
(0.116148 0.0881189 -5.95673e-18)
(-0.0391469 0.165428 -1.88228e-18)
(-0.0989647 0.508383 3.01413e-18)
(-0.10605 0.63557 1.89807e-18)
(-0.089932 0.644423 -5.62544e-18)
(-0.0679706 0.608617 -2.51983e-18)
(-0.0454786 0.55816 -4.23649e-19)
(-0.0234265 0.502972 -2.88946e-18)
(-0.00156078 0.446541 -4.70008e-18)
(0.0201412 0.390558 -7.46161e-18)
(0.0418517 0.336103 -3.02857e-18)
(0.0639538 0.283817 4.01375e-18)
(0.0850172 0.234457 -8.04392e-18)
(0.110295 0.187451 2.7245e-19)
(0.125921 0.142582 4.62666e-18)
(0.162719 0.107246 6.36685e-18)
(-0.0307577 0.126895 -4.39594e-18)
(-0.0923111 0.468308 3.43107e-18)
(-0.10107 0.614597 -5.77109e-18)
(-0.0843196 0.637685 -2.57821e-18)
(-0.0603059 0.609245 -1.14884e-19)
(-0.0352513 0.562439 3.24859e-18)
(-0.0103883 0.509406 4.86332e-18)
(0.0144993 0.454507 1.44999e-18)
(0.0394765 0.399721 2.01521e-18)
(0.0646062 0.346292 -5.61922e-18)
(0.0908633 0.294823 1.15055e-19)
(0.114919 0.246538 -3.8085e-18)
(0.146495 0.200764 -2.72059e-18)
(0.162536 0.154966 -7.44371e-18)
(0.210641 0.126721 -1.01094e-19)
(-0.0226351 0.0895065 3.88592e-18)
(-0.0843333 0.423034 5.77515e-19)
(-0.0948592 0.588744 9.54103e-19)
(-0.0780029 0.627862 6.49666e-18)
(-0.0522951 0.608191 2.58277e-18)
(-0.0248569 0.565741 -2.94597e-18)
(0.00271063 0.515134 2.22868e-18)
(0.0305471 0.461843 -1.19099e-18)
(0.0588032 0.408245 -2.2123e-18)
(0.0871971 0.355857 2.48828e-18)
(0.118032 0.305097 -7.79436e-18)
(0.144368 0.257741 -2.92714e-19)
(0.183685 0.21413 -3.96436e-18)
(0.197846 0.165039 5.94589e-18)
(0.259438 0.145496 5.86923e-19)
(-0.0153273 0.0548199 -1.45324e-18)
(-0.0751758 0.372445 -4.01184e-18)
(-0.0873905 0.55749 1.03836e-18)
(-0.0710255 0.61434 -7.31653e-18)
(-0.0440414 0.605024 -4.76586e-18)
(-0.0144164 0.567856 -2.53384e-18)
(0.0157481 0.520065 -4.13057e-18)
(0.046444 0.468499 3.85627e-18)
(0.0780514 0.416064 5.04968e-18)
(0.109403 0.364758 9.30421e-18)
(0.145522 0.314663 -3.48904e-19)
(0.172946 0.267593 9.47278e-18)
(0.222271 0.228151 3.54188e-18)
(0.232085 0.17333 2.63288e-18)
(0.307931 0.161899 -5.66745e-18)
(-0.0088488 0.0244784 2.48381e-18)
(-0.0649406 0.316825 6.0665e-18)
(-0.0786426 0.520403 4.0306e-18)
(-0.0634548 0.59637 5.06562e-18)
(-0.0356704 0.599163 -2.23488e-20)
(-0.00408197 0.568464 1.75705e-18)
(0.0285736 0.52404 1.01755e-19)
(0.0619975 0.474389 -2.81499e-18)
(0.0971558 0.423084 4.2865e-18)
(0.130933 0.372873 -1.42237e-17)
(0.173464 0.323757 3.90556e-18)
(0.200066 0.275292 -2.50823e-18)
(0.262126 0.242658 4.50668e-19)
(0.266414 0.181776 -3.37146e-18)
(0.355837 0.175236 -3.62368e-18)
(-0.00264466 -0.000154733 -4.02684e-18)
(-0.0537808 0.257212 5.27344e-18)
(-0.0686569 0.477122 -1.28914e-18)
(-0.0553785 0.573075 -2.10383e-18)
(-0.027328 0.589855 4.22318e-18)
(0.00595275 0.567102 3.49097e-19)
(0.0410042 0.526798 -1.16921e-18)
(0.0769384 0.479375 -1.33758e-19)
(0.116048 0.429189 -2.73054e-18)
(0.151422 0.379855 6.79941e-18)
(0.202049 0.332939 3.94912e-18)
(0.225406 0.280375 2.04572e-18)
(0.302213 0.255813 -1.64568e-19)
(0.301401 0.191739 4.37671e-18)
(0.403832 0.186683 -3.56424e-19)
(0.00378499 -0.0181966 1.16901e-18)
(-0.0419332 0.195809 -1.24815e-18)
(-0.0575938 0.427399 9.70504e-19)
(-0.0468947 0.543512 3.91623e-18)
(-0.0191794 0.576191 -2.40796e-18)
(0.0154349 0.563125 -1.49849e-18)
(0.0528217 0.527928 -2.57817e-18)
(0.0909106 0.483201 1.96063e-18)
(0.134607 0.434325 -1.92751e-18)
(0.170416 0.384975 -2.14268e-18)
(0.231234 0.342663 -3.42563e-18)
(0.249498 0.283798 -1.91305e-18)
(0.341442 0.265492 6.61443e-18)
(0.336256 0.20197 -8.74016e-18)
(0.451467 0.196982 -1.87893e-19)
(0.0103079 -0.0297558 4.96277e-18)
(-0.0297837 0.136008 -1.91782e-18)
(-0.0458228 0.371221 -4.89905e-18)
(-0.0381363 0.506789 -1.22074e-18)
(-0.0114192 0.557123 6.25014e-18)
(0.0240326 0.555666 -1.82174e-19)
(0.0637474 0.526816 2.69307e-18)
(0.103483 0.485401 -1.46135e-18)
(0.152611 0.438595 -5.16944e-18)
(0.18752 0.38723 1.14506e-17)
(0.260111 0.352245 -8.05397e-18)
(0.273378 0.287401 2.25424e-18)
(0.37939 0.271623 -9.46781e-18)
(0.370629 0.210945 3.30294e-18)
(0.497043 0.204853 2.61267e-18)
(0.016305 -0.0359439 -1.7718e-18)
(-0.0173933 0.0819875 -5.72758e-18)
(-0.0338103 0.309105 2.60018e-18)
(-0.0293022 0.462235 4.63033e-19)
(-0.00428014 0.53151 -5.65269e-18)
(0.0313224 0.543604 3.34938e-18)
(0.0734028 0.522622 1.40368e-19)
(0.114189 0.485081 -8.12861e-19)
(0.169516 0.442257 -5.49059e-18)
(0.202846 0.386105 -6.41115e-19)
(0.286734 0.359472 6.41311e-18)
(0.297583 0.291553 5.36641e-19)
(0.414984 0.275254 1.40464e-18)
(0.404808 0.218744 3.84891e-18)
(0.539651 0.209371 -9.30409e-18)
(0.0210442 -0.0383173 -2.68951e-18)
(-0.00465439 0.0376495 3.84e-20)
(-0.0219693 0.242632 -3.23409e-18)
(-0.0206807 0.409623 2.56567e-18)
(0.00195245 0.498197 3.21781e-18)
(0.0368123 0.525568 -2.30741e-18)
(0.0812052 0.514304 -3.55018e-19)
(0.122619 0.480833 -1.71e-18)
(0.184201 0.444994 4.0926e-18)
(0.217339 0.382268 8.28379e-19)
(0.308084 0.362337 -9.4236e-18)
(0.322994 0.2943 2.52951e-18)
(0.445115 0.276152 1.42568e-18)
(0.438251 0.224873 -6.29738e-18)
(0.57866 0.210201 1.26229e-18)
(0.0242954 -0.038443 6.2203e-19)
(0.00803352 0.00479976 1.65516e-18)
(-0.0106861 0.175101 3.13757e-18)
(-0.012623 0.349446 -2.50605e-18)
(0.00694973 0.456215 -1.34568e-20)
(0.0400132 0.499983 5.78447e-18)
(0.0862904 0.500678 -1.80344e-19)
(0.128527 0.470794 4.97745e-20)
(0.194305 0.445352 6.73299e-18)
(0.23373 0.376741 -3.67107e-18)
(0.319475 0.359893 2.38835e-18)
(0.353743 0.29446 -6.56095e-18)
(0.465098 0.273184 5.33477e-19)
(0.47207 0.228821 -1.61055e-18)
(0.612083 0.206874 2.65022e-18)
(0.0263032 -0.0374762 -4.33568e-19)
(0.0196406 -0.0174705 2.14082e-18)
(-0.000139839 0.111973 -2.71301e-18)
(-0.00547616 0.283318 5.71567e-18)
(0.0103558 0.405118 -4.46681e-18)
(0.0405738 0.465228 -3.79045e-18)
(0.0873534 0.480534 -2.33428e-18)
(0.132337 0.453192 -4.65102e-18)
(0.195921 0.439249 -8.43975e-18)
(0.255619 0.372512 1.0974e-18)
(0.316351 0.348269 5.91655e-18)
(0.39594 0.296581 4.44625e-18)
(0.469147 0.265455 6.36394e-19)
(0.510863 0.232243 -3.41428e-18)
(0.63594 0.199184 -1.56624e-18)
(0.0275118 -0.036008 1.13654e-18)
(0.0292222 -0.0313731 2.00758e-18)
(0.0100089 0.0594643 -8.4938e-18)
(0.000659683 0.214583 -5.70253e-18)
(0.0118425 0.345643 -1.67855e-19)
(0.0384759 0.419949 4.14959e-18)
(0.0826909 0.452278 -1.38087e-18)
(0.134817 0.428498 1.03125e-17)
(0.185605 0.418937 5.96341e-19)
(0.281949 0.371904 -5.22713e-18)
(0.297527 0.323034 -4.61634e-18)
(0.449627 0.301668 -6.86939e-18)
(0.450226 0.246218 7.46812e-18)
(0.557081 0.23366 4.62038e-18)
(0.644576 0.181811 -6.52408e-20)
(0.0283651 -0.0343053 -3.15063e-18)
(0.0365952 -0.0393796 -5.91103e-18)
(0.0200022 0.0207914 4.25361e-18)
(0.00606807 0.148546 5.12866e-18)
(0.0111524 0.280357 3.07614e-18)
(0.0340675 0.364256 -2.84527e-18)
(0.0711138 0.412771 7.17771e-18)
(0.134712 0.399826 -9.43622e-18)
(0.165013 0.379796 9.99088e-18)
(0.299137 0.36568 5.96078e-18)
(0.272593 0.286025 -1.83238e-18)
(0.490925 0.295741 -2.40833e-18)
(0.402205 0.206056 -3.05266e-18)
(0.609594 0.223794 -5.67276e-18)
(0.635661 0.148733 6.59006e-18)
(0.0291836 -0.0325485 8.96729e-18)
(0.0421286 -0.0435829 6.93186e-18)
(0.0291088 -0.00512153 1.59147e-18)
(0.0109725 0.0913698 -8.7484e-20)
(0.0084069 0.213536 -1.05397e-18)
(0.0272278 0.300984 -1.25544e-18)
(0.0538901 0.35964 -5.64023e-18)
(0.125997 0.365073 9.25002e-18)
(0.143965 0.331026 -6.89641e-18)
(0.287463 0.334576 4.5934e-20)
(0.259005 0.249491 5.97549e-18)
(0.479927 0.264587 3.96627e-18)
(0.338528 0.149649 3.80443e-18)
(0.667744 0.200909 2.80439e-21)
(0.607196 0.11355 -4.12743e-18)
(0.0300466 -0.0308925 -5.38891e-18)
(0.0460708 -0.0455381 -5.6199e-18)
(0.035966 -0.0216154 1.77052e-18)
(0.0148776 0.0470302 -2.85168e-18)
(0.00424715 0.15039 -1.27973e-18)
(0.0169372 0.234765 4.46015e-18)
(0.0340716 0.295762 -1.19033e-18)
(0.104002 0.316517 -9.41158e-19)
(0.1271 0.284094 -3.04382e-18)
(0.247105 0.276142 -6.52114e-18)
(0.259197 0.21808 2.91775e-18)
(0.412587 0.206154 -3.31364e-18)
(0.331418 0.110872 -4.64161e-18)
(0.722623 0.182937 -1.97233e-18)
(0.514221 0.0689841 7.47925e-18)
(0.0307984 -0.0294166 6.10877e-18)
(0.0482599 -0.0462691 -4.82527e-18)
(0.0394397 -0.0321454 -7.96938e-18)
(0.016575 0.0150626 8.05013e-19)
(-0.00117056 0.0953973 1.89957e-18)
(0.0024809 0.170301 -1.22143e-18)
(0.0129825 0.227684 3.43719e-18)
(0.0715479 0.252834 8.34717e-19)
(0.106359 0.234872 -7.36376e-19)
(0.198329 0.207648 -2.12072e-19)
(0.244783 0.173526 -3.09976e-18)
(0.347779 0.139583 2.9923e-19)
(0.444725 0.117652 1.47013e-18)
(0.735148 0.15982 -1.06316e-18)
(0.885933 0.163326 7.78157e-18)
(0.0310912 -0.0280626 1.28831e-18)
(0.0482218 -0.0463771 -2.76422e-18)
(0.0387501 -0.039384 7.74133e-18)
(0.0146955 -0.00806048 5.98019e-18)
(-0.00886156 0.0503208 -5.92275e-18)
(-0.0157667 0.11111 -3.49573e-19)
(-0.0103938 0.160734 -2.5874e-18)
(0.0340504 0.181089 -8.43587e-19)
(0.0756523 0.174582 6.57619e-18)
(0.151799 0.141927 3.15948e-18)
(0.211955 0.108424 4.47681e-18)
(0.377056 0.106176 -3.40444e-18)
(0.590566 0.126957 2.04385e-18)
(0.927534 0.195855 -1.17568e-18)
(1.11709 0.221975 -9.91969e-18)
(0.0304548 -0.0266377 1.02801e-18)
(0.0454781 -0.0460649 1.65556e-18)
(0.0336346 -0.0451743 -4.25725e-18)
(0.0078342 -0.0258326 -4.84662e-18)
(-0.0204065 0.0141489 -4.38623e-18)
(-0.0369954 0.0589274 3.89599e-19)
(-0.0374163 0.0977931 3.10736e-18)
(-0.00553242 0.108673 -5.63646e-18)
(0.0376075 0.105664 -3.05773e-18)
(0.110715 0.0766786 1.68086e-18)
(0.244503 0.063056 -4.2992e-18)
(0.513654 0.113168 3.23193e-19)
(0.813538 0.167311 2.63429e-18)
(1.08369 0.23147 -3.30834e-18)
(1.15537 0.226652 2.58034e-18)
(0.0283842 -0.0248752 -2.30756e-18)
(0.0395795 -0.0453042 5.25218e-18)
(0.0242302 -0.0500778 3.46715e-18)
(-0.00440316 -0.0402598 2.30948e-18)
(-0.0368257 -0.0153641 3.75141e-18)
(-0.0610148 0.0140969 -3.7876e-19)
(-0.0682623 0.0403474 -2.94272e-18)
(-0.045695 0.0411629 5.79069e-19)
(0.0034176 0.0373983 3.92476e-18)
(0.126929 0.0300646 -6.84572e-18)
(0.399421 0.0709024 -3.35439e-18)
(0.724433 0.150397 8.73202e-20)
(0.99207 0.204942 -8.43377e-19)
(1.14457 0.238038 4.26361e-18)
(1.26741 0.252521 -3.48015e-18)
(0.0244872 -0.0224833 2.52484e-18)
(0.0304173 -0.043731 1.68914e-18)
(0.0108561 -0.0537561 -1.98819e-19)
(-0.021134 -0.0519869 -1.48969e-18)
(-0.0574928 -0.0392076 3.36263e-19)
(-0.0874399 -0.0225609 -4.35212e-18)
(-0.0999684 -0.00823958 1.01023e-18)
(-0.0744157 -0.0141921 -2.07621e-18)
(0.0178617 -0.01221 -2.41514e-18)
(0.267084 0.0335123 4.81249e-18)
(0.618384 0.110632 7.02741e-18)
(0.908385 0.18758 3.19691e-18)
(1.08839 0.218206 2.83737e-18)
(1.23663 0.257412 -3.4308e-18)
(1.2874 0.257352 -3.30633e-18)
(0.0186317 -0.0192304 2.10483e-18)
(0.0183779 -0.0408275 -3.97036e-18)
(-0.00542881 -0.0553575 -1.91406e-18)
(-0.0404742 -0.0600632 -4.24831e-18)
(-0.0795433 -0.0561536 1.89358e-18)
(-0.111589 -0.0482748 4.60591e-18)
(-0.120458 -0.0417588 -5.44561e-18)
(-0.0625152 -0.0473323 1.91345e-18)
(0.133028 -0.0145892 3.80072e-18)
(0.4906 0.0757048 1.18609e-18)
(0.812008 0.150664 -4.84261e-18)
(1.02721 0.206434 -1.80523e-18)
(1.186 0.2387 2.00788e-20)
(1.26206 0.260979 1.87049e-18)
(1.30069 0.256457 6.73877e-18)
(0.0110508 -0.015031 -3.394e-18)
(0.00438942 -0.036107 -3.40944e-18)
(-0.022804 -0.0537846 1.89794e-18)
(-0.0593321 -0.0626837 7.54104e-18)
(-0.0975108 -0.0637722 -4.87308e-18)
(-0.123625 -0.0595774 1.39965e-18)
(-0.112857 -0.0549679 2.19686e-18)
(0.0166782 -0.0488649 -1.43495e-19)
(0.34149 0.0320309 4.65998e-19)
(0.69545 0.119057 2.42146e-18)
(0.95236 0.17758 -2.25473e-18)
(1.13315 0.228781 -4.22939e-18)
(1.22863 0.245406 -3.33233e-18)
(1.28889 0.263686 2.69764e-18)
(1.32934 0.265269 7.1035e-19)
(0.002341 -0.0100149 -8.45311e-19)
(-0.0102265 -0.0293585 6.80041e-18)
(-0.0390291 -0.0482836 1.43281e-18)
(-0.0740366 -0.0587486 2.00844e-18)
(-0.105971 -0.0610003 1.8146e-18)
(-0.116462 -0.0561266 1.73971e-18)
(-0.0695097 -0.0527913 -6.62449e-19)
(0.174274 -0.0108201 1.24111e-18)
(0.55473 0.0834567 6.85755e-19)
(0.857778 0.152492 3.08972e-18)
(1.07074 0.204449 1.76651e-19)
(1.19288 0.239504 2.95079e-18)
(1.26814 0.252512 -2.05662e-18)
(1.30985 0.269853 -1.7732e-18)
(1.3131 0.259178 1.09985e-18)
(-0.00667384 -0.00453474 3.08255e-18)
(-0.0240913 -0.0208509 -2.77977e-18)
(-0.0521984 -0.039116 3.17435e-19)
(-0.082012 -0.0487729 -4.09244e-18)
(-0.102425 -0.0493223 -3.40398e-18)
(-0.0908041 -0.0430735 5.9248e-18)
(0.0158927 -0.0399552 1.80525e-18)
(0.380097 0.0455359 -2.65797e-18)
(0.732541 0.124388 6.76989e-19)
(0.991828 0.183045 -8.30543e-18)
(1.14886 0.222238 2.84131e-18)
(1.24346 0.250603 -3.13133e-18)
(1.29113 0.25899 3.35479e-18)
(1.30634 0.266832 -4.68231e-19)
(1.32836 0.2631 -1.68136e-18)
(-0.0151577 0.000900134 -4.8279e-18)
(-0.0361499 -0.0113502 -4.90536e-18)
(-0.0612975 -0.0274385 -4.98486e-18)
(-0.0828436 -0.0346595 -3.75684e-18)
(-0.0881161 -0.0320214 2.49784e-18)
(-0.0508197 -0.0293692 -1.02683e-17)
(0.155887 -0.000306831 9.50535e-19)
(0.567991 0.091586 9.16069e-19)
(0.884405 0.16146 5.11417e-19)
(1.09058 0.206824 3.88689e-18)
(1.2117 0.239204 -3.01688e-18)
(1.27313 0.258306 6.79716e-18)
(1.2995 0.26004 -1.33531e-18)
(1.31979 0.271577 -2.33373e-18)
(1.32081 0.262717 1.25859e-18)
(-0.0224535 0.00576571 8.56985e-19)
(-0.0458242 -0.00186888 3.99334e-18)
(-0.0662434 -0.0148814 5.69343e-18)
(-0.0774196 -0.0189471 8.99702e-19)
(-0.0668885 -0.0140871 4.51791e-18)
(0.00991745 -0.0228443 2.53134e-18)
(0.342936 0.0538391 7.72754e-19)
(0.733819 0.133414 -4.23435e-18)
(1.00324 0.191932 -2.75903e-19)
(1.16764 0.227691 1.93755e-18)
(1.25141 0.251593 7.35339e-18)
(1.29156 0.262798 -9.51457e-19)
(1.31244 0.265967 2.23397e-18)
(1.31331 0.270779 1.98667e-18)
(1.31798 0.26106 2.952e-18)
(-0.0281996 0.00965219 1.58659e-18)
(-0.0530125 0.0065846 -5.29997e-18)
(-0.0676081 -0.00313218 -1.12486e-18)
(-0.0673058 -0.00361267 4.3916e-20)
(-0.0435688 -0.00225608 -8.4674e-18)
(0.108005 -0.00324298 2.19123e-18)
(0.527742 0.0985383 -1.11728e-18)
(0.875853 0.168464 1.34623e-18)
(1.09844 0.217794 4.66148e-18)
(1.22127 0.244066 -1.71324e-18)
(1.27948 0.261649 -5.49905e-18)
(1.30627 0.268917 -7.18982e-19)
(1.31065 0.267107 -7.53205e-19)
(1.31594 0.272195 -1.61292e-18)
(1.32076 0.264848 -3.2056e-18)
(-0.0323494 0.0123452 3.30964e-19)
(-0.0579737 0.0132302 1.43162e-18)
(-0.0661485 0.00648571 -3.69954e-18)
(-0.0552656 0.0098258 1.53906e-18)
(-0.0117293 -0.0033004 3.52201e-18)
(0.258855 0.042921 -1.49167e-18)
(0.687188 0.138466 -2.91106e-19)
(0.990887 0.199534 -3.48872e-18)
(1.16835 0.239091 7.15211e-19)
(1.25971 0.257656 -2.68976e-18)
(1.29807 0.270749 2.57374e-18)
(1.31017 0.271351 -2.02635e-18)
(1.31541 0.271499 3.36857e-18)
(1.31445 0.274535 -1.18074e-18)
(1.31076 0.262648 -2.28753e-18)
(-0.0351334 0.0138408 1.70718e-18)
(-0.0611804 0.0175755 1.06866e-18)
(-0.062423 0.01381 9.60285e-19)
(-0.0453871 0.0170799 2.30922e-19)
(0.0437113 -0.00955384 1.59317e-18)
(0.439322 0.0898271 -3.82365e-18)
(0.829721 0.173103 2.12837e-18)
(1.08359 0.225166 5.01627e-18)
(1.22161 0.256378 -5.70413e-19)
(1.28602 0.269094 3.89119e-18)
(1.30786 0.27705 2.27538e-18)
(1.31632 0.276133 4.16021e-19)
(1.3131 0.274782 6.58401e-19)
(1.31017 0.274323 1.22582e-18)
(1.31385 0.266386 2.70185e-18)
(-0.0369807 0.0142785 2.58683e-18)
(-0.062937 0.0194361 3.67511e-18)
(-0.0575937 0.0198599 -3.29754e-18)
(-0.0357393 0.0149935 2.99277e-18)
(0.140013 0.0112549 -6.82373e-18)
(0.600991 0.129597 1.65114e-18)
(0.947 0.2035 -5.87535e-19)
(1.1543 0.247053 -3.10433e-18)
(1.25848 0.270922 -5.62209e-18)
(1.30205 0.27812 -2.1872e-18)
(1.31528 0.283922 -5.37797e-18)
(1.31549 0.279051 3.2361e-18)
(1.31202 0.278035 -4.14051e-18)
(1.31094 0.277632 2.6371e-18)
(1.30577 0.26709 1.68893e-18)
(-0.0384426 0.0137473 -6.12211e-18)
(-0.0631872 0.0192256 2.06474e-19)
(-0.0545013 0.0241842 4.36724e-19)
(-0.0141303 0.000367982 8.2997e-19)
(0.28993 0.0594555 4.6141e-19)
(0.742817 0.166091 3.23525e-18)
(1.04325 0.230029 1.77032e-18)
(1.20877 0.265411 -4.9348e-19)
(1.28485 0.28246 2.5027e-18)
(1.31338 0.286536 1.62012e-18)
(1.31709 0.288795 7.26682e-19)
(1.31635 0.28294 -1.80207e-18)
(1.31078 0.282722 5.69595e-18)
(1.30515 0.278052 9.37663e-19)
(1.30404 0.269501 -1.85924e-18)
(-0.0399907 0.0122827 5.61947e-18)
(-0.0620257 0.0186661 -4.00771e-18)
(-0.0543661 0.023382 1.27465e-18)
(0.0344468 -0.0144644 -1.27802e-19)
(0.462715 0.104491 6.49045e-18)
(0.86854 0.196643 -5.34217e-19)
(1.1197 0.252187 -2.13379e-18)
(1.24817 0.280526 5.19629e-18)
(1.30211 0.292644 4.88576e-19)
(1.31812 0.293229 2.0752e-18)
(1.31862 0.2942 -4.17065e-18)
(1.31452 0.286902 1.05717e-19)
(1.30698 0.285835 -1.75087e-18)
(1.30468 0.280887 -3.13731e-19)
(1.29971 0.273005 -1.05985e-18)
(-0.0416081 0.0101004 -1.5024e-18)
(-0.0603005 0.0193998 4.17111e-18)
(-0.0531134 0.0161645 2.53459e-18)
(0.118794 0.000444934 1.98686e-18)
(0.612355 0.142516 -1.0526e-18)
(0.972195 0.225057 -4.25286e-19)
(1.17873 0.271765 2.78115e-18)
(1.27688 0.293681 -2.20452e-18)
(1.3131 0.300914 6.72946e-19)
(1.3217 0.299938 -3.51504e-18)
(1.31753 0.298841 2.52161e-19)
(1.31242 0.290588 5.09713e-19)
(1.30565 0.290713 -7.21535e-19)
(1.30002 0.282775 -4.17676e-18)
(1.29438 0.275067 1.67692e-18)
(-0.0429232 0.00772365 -2.63463e-18)
(-0.0598477 0.0206968 -3.29115e-18)
(-0.0418459 0.000408581 1.74736e-18)
(0.247398 0.0481248 -2.20657e-19)
(0.741396 0.178072 -2.68652e-18)
(1.05815 0.249957 -1.03622e-19)
(1.22476 0.288318 -1.95392e-18)
(1.29661 0.30438 -3.85053e-18)
(1.31973 0.308587 -1.55957e-18)
(1.32148 0.305704 1.44708e-18)
(1.31599 0.30349 1.30496e-18)
(1.31022 0.295245 -1.30388e-19)
(1.30128 0.29428 -1.97313e-18)
(1.29734 0.285061 3.47435e-18)
(1.29177 0.279637 1.03434e-18)
(-0.0438169 0.00652526 2.58609e-18)
(-0.0622937 0.0192728 2.02525e-21)
(-0.00900532 -0.0184121 -4.27222e-18)
(0.406637 0.0975577 -8.50657e-20)
(0.857226 0.207391 6.46053e-19)
(1.12691 0.271136 1.1642e-18)
(1.25831 0.302652 -2.07147e-18)
(1.30991 0.314208 1.06341e-18)
(1.32273 0.315311 -4.79322e-20)
(1.32111 0.311565 1.16891e-18)
(1.31385 0.308299 -1.03501e-18)
(1.30678 0.299256 -2.84826e-18)
(1.29894 0.298747 -1.3672e-19)
(1.29379 0.288032 -1.68101e-18)
(1.28554 0.282392 -1.38869e-18)
(-0.0442993 0.00821197 1.04831e-18)
(-0.0660964 0.0138017 -2.15103e-18)
(0.0510549 -0.0223996 2.16667e-18)
(0.557593 0.13672 -6.85317e-19)
(0.956187 0.234625 -3.72342e-19)
(1.18115 0.29007 -1.04061e-18)
(1.28328 0.315216 1.63974e-18)
(1.31823 0.322532 1.05032e-18)
(1.32396 0.321798 -6.22992e-19)
(1.31891 0.317111 -1.7521e-18)
(1.31078 0.312773 -6.25949e-19)
(1.30399 0.304179 2.9191e-18)
(1.29478 0.302776 1.74962e-18)
(1.28957 0.290333 1.67777e-18)
(1.28247 0.28691 -4.99033e-19)
(-0.044318 0.0132284 -6.5959e-19)
(-0.0671547 0.00423862 2.35679e-19)
(0.138516 0.001515 -8.92042e-19)
(0.682244 0.172207 -2.52923e-20)
(1.03925 0.260515 -6.8478e-19)
(1.2241 0.306982 -1.01226e-18)
(1.30053 0.326166 3.53804e-19)
(1.32297 0.330488 -2.08271e-18)
(1.32315 0.327976 1.83531e-18)
(1.31653 0.322668 2.31762e-18)
(1.30801 0.317796 2.87692e-19)
(1.30005 0.308685 -2.53266e-18)
(1.29132 0.306839 -2.40941e-18)
(1.28618 0.293848 -1.7708e-18)
(1.27669 0.290705 6.80056e-19)
(-0.0443997 0.0195619 -2.11557e-18)
(-0.0590822 -0.00887707 5.78838e-19)
(0.25594 0.0475485 -4.14136e-19)
(0.791037 0.204093 1.56848e-20)
(1.1071 0.283616 -1.78199e-19)
(1.25675 0.322205 -3.84073e-19)
(1.31266 0.336259 7.15573e-19)
(1.32514 0.337711 -4.06427e-19)
(1.32168 0.334059 -5.25451e-19)
(1.31349 0.328288 -1.01159e-18)
(1.3042 0.322453 -8.9136e-19)
(1.29651 0.313658 -4.0642e-19)
(1.28728 0.311121 1.49833e-18)
(1.28127 0.296693 -5.97908e-20)
(1.27238 0.294955 1.11508e-18)
(-0.0453862 0.0231727 8.80335e-19)
(-0.0362963 -0.0203309 1.48322e-18)
(0.392167 0.0954438 2.41984e-19)
(0.886225 0.231636 9.17635e-19)
(1.16133 0.303909 1.97877e-18)
(1.28137 0.335826 7.23544e-19)
(1.32035 0.345423 2.64981e-18)
(1.32549 0.344879 1.38643e-18)
(1.31913 0.34021 8.7338e-19)
(1.31004 0.333873 1.98422e-18)
(1.3008 0.327661 6.07011e-19)
(1.29231 0.318587 1.09697e-18)
(1.28298 0.315059 5.38328e-19)
(1.27732 0.300497 2.41034e-19)
(1.26714 0.299456 7.83364e-19)
(-0.047636 0.0203353 1.22367e-18)
(0.00251085 -0.0242381 -2.09756e-18)
(0.525833 0.137569 -4.11834e-19)
(0.970651 0.257612 9.41268e-19)
(1.20474 0.321803 -1.98862e-18)
(1.29892 0.347987 -8.07644e-19)
(1.32496 0.354213 -1.63278e-18)
(1.32454 0.351865 -5.27536e-20)
(1.31628 0.346366 -4.31816e-19)
(1.30647 0.339688 -1.67211e-18)
(1.29657 0.332656 1.26171e-18)
(1.28806 0.323591 9.63747e-20)
(1.27871 0.319451 -5.21254e-20)
(1.27212 0.304062 4.26996e-19)
(1.26184 0.303576 -9.5625e-19)
(-0.0512561 0.00887475 -8.5535e-20)
(0.0575399 -0.0195799 8.94477e-19)
(0.643031 0.174657 2.51142e-19)
(1.04419 0.282892 -1.31998e-18)
(1.23942 0.338313 8.75583e-19)
(1.31141 0.359136 2.77655e-19)
(1.327 0.3625 -7.27651e-19)
(1.32258 0.358916 -3.44162e-19)
(1.31282 0.352767 -1.03674e-18)
(1.30236 0.345501 1.80508e-19)
(1.29252 0.338053 -1.22322e-18)
(1.28354 0.328808 -8.56168e-19)
(1.27382 0.32352 2.25955e-19)
(1.26739 0.308106 2.26647e-19)
(1.25674 0.308277 -3.89836e-19)
(-0.0553153 -0.0103547 -4.56256e-19)
(0.133975 -0.0023963 -2.78775e-19)
(0.744899 0.207433 6.49472e-19)
(1.10617 0.3071 1.13665e-18)
(1.26712 0.353998 2.17413e-19)
(1.31978 0.369636 -5.99324e-19)
(1.32723 0.370704 7.52991e-19)
(1.31984 0.366041 6.54104e-19)
(1.30907 0.359222 3.3753e-19)
(1.29825 0.351572 6.27416e-20)
(1.2879 0.343415 3.94192e-19)
(1.27867 0.333908 1.71081e-19)
(1.26907 0.327987 -1.16655e-19)
(1.26199 0.312263 -1.47263e-19)
(1.25098 0.312357 1.253e-19)
(-0.0582623 -0.0326114 -2.12729e-19)
(0.22822 0.0281016 -2.42959e-19)
(0.83387 0.236412 1.9404e-19)
(1.15785 0.330056 -2.70414e-19)
(1.28868 0.369137 -5.69238e-19)
(1.32531 0.379987 4.36237e-20)
(1.32611 0.378856 3.47524e-19)
(1.31645 0.373279 -3.13021e-19)
(1.30489 0.365944 2.06502e-19)
(1.29357 0.357687 4.15272e-19)
(1.28317 0.349018 6.58137e-20)