/*--------------------------------*- C++ -*----------------------------------*\
  =========                 |
  \\      /  F ield         | OpenFOAM: The Open Source CFD Toolbox
   \\    /   O peration     | Website:  https://openfoam.org
    \\  /    A nd           | Version:  7
     \\/     M anipulation  |
\*---------------------------------------------------------------------------*/
FoamFile
{
    version     2.0;
    format      ascii;
    class       volScalarField;
    location    "31.0002";
    object      p;
}
// * * * * * * * * * * * * * * * * * * * * * * * * * * * * * * * * * * * * * //

dimensions      [0 2 -2 0 0 0 0];

internalField   nonuniform List<scalar> 
18750
(
-0.0155904
-0.0241408
-0.039023
-0.0611602
-0.0892409
-0.122735
-0.160857
-0.202956
-0.248329
-0.296365
-0.346438
-0.397879
-0.449906
-0.50174
-0.552691
-0.0202076
-0.028447
-0.0430517
-0.0649609
-0.0928691
-0.126244
-0.164297
-0.206367
-0.251738
-0.299795
-0.349922
-0.401461
-0.453603
-0.505469
-0.556308
-0.0280037
-0.0357229
-0.0498513
-0.0713573
-0.098944
-0.132075
-0.169953
-0.2119
-0.257178
-0.30516
-0.355242
-0.406783
-0.458944
-0.51072
-0.561271
-0.0386932
-0.0457098
-0.0591792
-0.0801203
-0.107245
-0.140009
-0.177604
-0.21933
-0.264417
-0.312218
-0.362135
-0.413552
-0.465607
-0.517179
-0.567324
-0.0518855
-0.0580483
-0.0706987
-0.0909351
-0.117472
-0.149753
-0.186956
-0.228354
-0.273146
-0.320649
-0.370267
-0.421409
-0.473214
-0.524473
-0.574131
-0.0671089
-0.0722874
-0.083995
-0.103419
-0.129261
-0.160951
-0.197655
-0.23862
-0.283004
-0.330087
-0.37926
-0.429963
-0.481367
-0.532214
-0.581342
-0.0838436
-0.0878988
-0.0985986
-0.117141
-0.142206
-0.173214
-0.209319
-0.249743
-0.29361
-0.340152
-0.38874
-0.438839
-0.489684
-0.54003
-0.588621
-0.101501
-0.104335
-0.114017
-0.131649
-0.155881
-0.186134
-0.221551
-0.261337
-0.304582
-0.350475
-0.398351
-0.447698
-0.497834
-0.547594
-0.595664
-0.119455
-0.121046
-0.129758
-0.146488
-0.169859
-0.199304
-0.233963
-0.273025
-0.315557
-0.360707
-0.407771
-0.456243
-0.505539
-0.554631
-0.602208
-0.137086
-0.137495
-0.145352
-0.16122
-0.183729
-0.212338
-0.246186
-0.284455
-0.326197
-0.370531
-0.416711
-0.464223
-0.512574
-0.560917
-0.608028
-0.153808
-0.15319
-0.160368
-0.175437
-0.197106
-0.224876
-0.257885
-0.295309
-0.336203
-0.379666
-0.424917
-0.471423
-0.518756
-0.566273
-0.612933
-0.169092
-0.167726
-0.174419
-0.188769
-0.20965
-0.236601
-0.26876
-0.30531
-0.345313
-0.387867
-0.432169
-0.477657
-0.523937
-0.570554
-0.616752
-0.182494
-0.180822
-0.187164
-0.200898
-0.221066
-0.247239
-0.278556
-0.314218
-0.353304
-0.394926
-0.438273
-0.482763
-0.527997
-0.57365
-0.619326
-0.193732
-0.192228
-0.198302
-0.211565
-0.231116
-0.256567
-0.287062
-0.321835
-0.359994
-0.400672
-0.443065
-0.486588
-0.530829
-0.57549
-0.620487
-0.202782
-0.201665
-0.207613
-0.220579
-0.239619
-0.264411
-0.294109
-0.328004
-0.365233
-0.404964
-0.446407
-0.488993
-0.532322
-0.576036
-0.620055
-0.209659
-0.209001
-0.215064
-0.227811
-0.246458
-0.270644
-0.299574
-0.332605
-0.368904
-0.40769
-0.448188
-0.489849
-0.532336
-0.575238
-0.618033
-0.214479
-0.214302
-0.220611
-0.233271
-0.251584
-0.275185
-0.30338
-0.335554
-0.370921
-0.40876
-0.448317
-0.48906
-0.530726
-0.572952
-0.614632
-0.217502
-0.217768
-0.224304
-0.236944
-0.254978
-0.278028
-0.3055
-0.33681
-0.371236
-0.408098
-0.446714
-0.486558
-0.527407
-0.569036
-0.609831
-0.219118
-0.219663
-0.226272
-0.238868
-0.256644
-0.279165
-0.305907
-0.336333
-0.369796
-0.405669
-0.443349
-0.482297
-0.522305
-0.563471
-0.603407
-0.219765
-0.220259
-0.226676
-0.239143
-0.256646
-0.278629
-0.304611
-0.334122
-0.366586
-0.401441
-0.438179
-0.476254
-0.515344
-0.556194
-0.595228
-0.219821
-0.219766
-0.225687
-0.237917
-0.255094
-0.276493
-0.301664
-0.330209
-0.36162
-0.395397
-0.431149
-0.468411
-0.506464
-0.547113
-0.585251
-0.219477
-0.218281
-0.223493
-0.235377
-0.252126
-0.272861
-0.297152
-0.324652
-0.354934
-0.387544
-0.422203
-0.45875
-0.495628
-0.536152
-0.573456
-0.218668
-0.215801
-0.220336
-0.231739
-0.247898
-0.267862
-0.291183
-0.317531
-0.346576
-0.37793
-0.411297
-0.447246
-0.482828
-0.523276
-0.559818
-0.217165
-0.212413
-0.216547
-0.227236
-0.242582
-0.26165
-0.283896
-0.308949
-0.336602
-0.366639
-0.398411
-0.433861
-0.468065
-0.50849
-0.544357
-0.214815
-0.208566
-0.212497
-0.222106
-0.236383
-0.254413
-0.275453
-0.299048
-0.325059
-0.353772
-0.383586
-0.418559
-0.451341
-0.491771
-0.527204
-0.211695
-0.20507
-0.208486
-0.216602
-0.229572
-0.246392
-0.266039
-0.288007
-0.312017
-0.339391
-0.366936
-0.401305
-0.432707
-0.473001
-0.508483
-0.208139
-0.20252
-0.204658
-0.211037
-0.222502
-0.237881
-0.255862
-0.276042
-0.297585
-0.323529
-0.348634
-0.382068
-0.41239
-0.45207
-0.488225
-0.204737
-0.200838
-0.201118
-0.205823
-0.215594
-0.229246
-0.245152
-0.263372
-0.282001
-0.306138
-0.328946
-0.360682
-0.390803
-0.42903
-0.466529
-0.201878
-0.199508
-0.198169
-0.201441
-0.209278
-0.2209
-0.234238
-0.250175
-0.265605
-0.287234
-0.308175
-0.336993
-0.368077
-0.403964
-0.443918
-0.19969
-0.198201
-0.196218
-0.198203
-0.203932
-0.213296
-0.223532
-0.236671
-0.248835
-0.266793
-0.286884
-0.310995
-0.344414
-0.375891
-0.422537
-0.198089
-0.196929
-0.195269
-0.196112
-0.199848
-0.206851
-0.21363
-0.223042
-0.232263
-0.245096
-0.265146
-0.283842
-0.319304
-0.3462
-0.393368
-0.196925
-0.195932
-0.194846
-0.19502
-0.197216
-0.201843
-0.205152
-0.209881
-0.216026
-0.223224
-0.24234
-0.257459
-0.291562
-0.31924
-0.361916
-0.196042
-0.195227
-0.194616
-0.19474
-0.196025
-0.19842
-0.198475
-0.197996
-0.200495
-0.201914
-0.219771
-0.231657
-0.266817
-0.291569
-0.336651
-0.195307
-0.194715
-0.194538
-0.195
-0.195961
-0.196518
-0.193695
-0.188099
-0.186377
-0.182403
-0.197674
-0.208303
-0.244652
-0.268312
-0.316917
-0.194577
-0.194259
-0.194553
-0.195483
-0.19647
-0.195803
-0.190503
-0.180891
-0.173941
-0.166509
-0.175925
-0.188643
-0.220609
-0.250581
-0.299021
-0.193723
-0.193727
-0.194505
-0.195916
-0.196999
-0.195729
-0.18839
-0.176409
-0.163854
-0.154443
-0.158477
-0.173064
-0.200841
-0.238
-0.280085
-0.192653
-0.193
-0.194199
-0.195996
-0.197153
-0.195679
-0.18698
-0.173937
-0.15702
-0.145886
-0.147554
-0.162894
-0.187742
-0.228326
-0.265075
-0.191321
-0.191996
-0.193487
-0.195531
-0.196679
-0.195174
-0.185951
-0.172464
-0.153656
-0.141136
-0.142115
-0.158221
-0.180885
-0.219099
-0.25514
-0.189751
-0.190702
-0.192322
-0.194437
-0.195554
-0.193854
-0.185078
-0.171503
-0.153366
-0.140808
-0.14067
-0.156635
-0.178553
-0.212294
-0.247798
-0.188053
-0.189183
-0.190763
-0.192764
-0.19373
-0.192025
-0.184449
-0.171522
-0.155234
-0.144228
-0.14346
-0.157333
-0.178709
-0.208183
-0.241482
-0.18642
-0.187627
-0.189032
-0.190715
-0.19157
-0.190319
-0.185014
-0.173997
-0.158907
-0.150001
-0.149038
-0.160265
-0.179942
-0.205735
-0.235938
-0.185089
-0.186294
-0.187482
-0.188962
-0.189787
-0.189347
-0.187232
-0.178843
-0.16445
-0.156421
-0.155541
-0.16446
-0.181611
-0.204167
-0.230931
-0.184254
-0.185412
-0.186453
-0.187817
-0.188798
-0.189256
-0.190276
-0.183154
-0.170655
-0.162602
-0.161665
-0.168817
-0.183399
-0.202862
-0.226271
-0.183993
-0.185078
-0.186035
-0.187362
-0.188584
-0.189832
-0.191669
-0.186622
-0.175927
-0.16818
-0.167017
-0.172752
-0.18495
-0.201515
-0.221864
-0.184253
-0.185239
-0.186142
-0.187416
-0.188708
-0.190782
-0.190335
-0.188455
-0.179792
-0.172854
-0.171456
-0.175927
-0.18605
-0.200005
-0.217575
-0.184901
-0.185752
-0.186562
-0.187679
-0.188879
-0.191054
-0.189121
-0.18847
-0.182137
-0.176422
-0.174901
-0.178294
-0.186604
-0.198218
-0.213346
-0.185782
-0.186462
-0.187092
-0.187888
-0.189387
-0.188948
-0.188787
-0.187774
-0.183229
-0.178828
-0.177345
-0.179847
-0.18656
-0.196142
-0.20912
-0.186767
-0.187256
-0.187609
-0.187952
-0.19024
-0.18681
-0.188223
-0.186955
-0.183477
-0.180168
-0.178804
-0.180619
-0.185953
-0.193759
-0.20485
-0.187775
-0.18808
-0.188019
-0.188564
-0.189073
-0.186813
-0.18739
-0.186
-0.183192
-0.180626
-0.179378
-0.180664
-0.184798
-0.191079
-0.200514
-0.188778
-0.188917
-0.188291
-0.189832
-0.186106
-0.187279
-0.186767
-0.185022
-0.182541
-0.180392
-0.179186
-0.180034
-0.18314
-0.188125
-0.19608
-0.189798
-0.189709
-0.188797
-0.190993
-0.185068
-0.186989
-0.186089
-0.184033
-0.181627
-0.179621
-0.178357
-0.178808
-0.181017
-0.184899
-0.191532
-0.190888
-0.19038
-0.190256
-0.189779
-0.187119
-0.186849
-0.185323
-0.182995
-0.180496
-0.17843
-0.177007
-0.177055
-0.178472
-0.181421
-0.186848
-0.192103
-0.191012
-0.192682
-0.186764
-0.188722
-0.187078
-0.184603
-0.181874
-0.179161
-0.176894
-0.175223
-0.174851
-0.175553
-0.177691
-0.18201
-0.193414
-0.191918
-0.194933
-0.185817
-0.188752
-0.187037
-0.183928
-0.180698
-0.177643
-0.175065
-0.173077
-0.172257
-0.172301
-0.173726
-0.177009
-0.194791
-0.193726
-0.195306
-0.189201
-0.189046
-0.186754
-0.183172
-0.179428
-0.175944
-0.172977
-0.170614
-0.169326
-0.16876
-0.169533
-0.171836
-0.196271
-0.196833
-0.193562
-0.193617
-0.190383
-0.18652
-0.182286
-0.178029
-0.17407
-0.170654
-0.167872
-0.166096
-0.164957
-0.165125
-0.166508
-0.197858
-0.200898
-0.190877
-0.195562
-0.191647
-0.186454
-0.181367
-0.176501
-0.172016
-0.168108
-0.164872
-0.162594
-0.160914
-0.160513
-0.161041
-0.199769
-0.204552
-0.191056
-0.195352
-0.19213
-0.186346
-0.18043
-0.174863
-0.169789
-0.165348
-0.161627
-0.158839
-0.156641
-0.155704
-0.155464
-0.202371
-0.206708
-0.195759
-0.195583
-0.192028
-0.185975
-0.179395
-0.173107
-0.167388
-0.162375
-0.158143
-0.154839
-0.152148
-0.150706
-0.149794
-0.206011
-0.207101
-0.202917
-0.197719
-0.192071
-0.18535
-0.178157
-0.171181
-0.164798
-0.159186
-0.154422
-0.150601
-0.147436
-0.145526
-0.144037
-0.211028
-0.206381
-0.209159
-0.201148
-0.192741
-0.184667
-0.176694
-0.169029
-0.161984
-0.155763
-0.150457
-0.146122
-0.142507
-0.140166
-0.138182
-0.217747
-0.206276
-0.213446
-0.204679
-0.193912
-0.184078
-0.175043
-0.166617
-0.158909
-0.152084
-0.146238
-0.141399
-0.137359
-0.134622
-0.132207
-0.225955
-0.209842
-0.216266
-0.207573
-0.19514
-0.18354
-0.173235
-0.163935
-0.155541
-0.14812
-0.141746
-0.136423
-0.131984
-0.128883
-0.126085
-0.235103
-0.217968
-0.218923
-0.209563
-0.195973
-0.182851
-0.171234
-0.160973
-0.151858
-0.143848
-0.136962
-0.131181
-0.12637
-0.122933
-0.119788
-0.244102
-0.229174
-0.222424
-0.210806
-0.196131
-0.181773
-0.168946
-0.157706
-0.147846
-0.139246
-0.131868
-0.125654
-0.1205
-0.116755
-0.113304
-0.251661
-0.24027
-0.226717
-0.211609
-0.195545
-0.18013
-0.166258
-0.154089
-0.143485
-0.134301
-0.126445
-0.119823
-0.114351
-0.110332
-0.106628
-0.256772
-0.248792
-0.230681
-0.212067
-0.194294
-0.177853
-0.163075
-0.150066
-0.138751
-0.128997
-0.120677
-0.113667
-0.107899
-0.103641
-0.0997515
-0.259274
-0.25404
-0.233371
-0.212004
-0.192465
-0.174956
-0.159348
-0.145588
-0.133615
-0.123317
-0.114553
-0.107169
-0.10112
-0.0966545
-0.0926471
-0.259955
-0.256471
-0.234513
-0.21121
-0.190075
-0.171476
-0.155065
-0.140622
-0.128049
-0.117245
-0.108059
-0.10032
-0.0940013
-0.0893432
-0.0852512
-0.259878
-0.256944
-0.234204
-0.209562
-0.187088
-0.16743
-0.150227
-0.135145
-0.122027
-0.110761
-0.101183
-0.0931158
-0.0865463
-0.0816979
-0.0774551
-0.259783
-0.25624
-0.232686
-0.207034
-0.18345
-0.162807
-0.144833
-0.129146
-0.115531
-0.103846
-0.0939128
-0.0855537
-0.0787738
-0.07375
-0.0691306
-0.260005
-0.254854
-0.230189
-0.203646
-0.179117
-0.157579
-0.138871
-0.122613
-0.108542
-0.096483
-0.0862362
-0.0776321
-0.0707053
-0.0655665
-0.0602012
-0.260549
-0.253029
-0.226887
-0.199437
-0.174055
-0.15171
-0.13232
-0.115529
-0.101047
-0.0886606
-0.0781474
-0.0693528
-0.0623526
-0.0571913
-0.0507468
-0.261185
-0.250853
-0.22288
-0.19443
-0.168236
-0.145159
-0.125147
-0.107874
-0.0930319
-0.080374
-0.0696514
-0.0607305
-0.0537281
-0.0485463
-0.041071
-0.261549
-0.248303
-0.218199
-0.188624
-0.161626
-0.137881
-0.117319
-0.099629
-0.0844907
-0.0716278
-0.0607624
-0.0517935
-0.0448562
-0.0394215
-0.0314994
-0.261254
-0.245206
-0.212796
-0.18199
-0.154186
-0.129838
-0.108805
-0.090778
-0.0754264
-0.0624332
-0.0514979
-0.0425721
-0.0357193
-0.029827
-0.0220182
-0.259987
-0.241203
-0.20655
-0.174475
-0.145881
-0.120998
-0.0995899
-0.0813203
-0.0658519
-0.0527979
-0.0418679
-0.0330482
-0.0262363
-0.0199183
-0.0125344
-0.257443
-0.235996
-0.199311
-0.166012
-0.136674
-0.111348
-0.0896778
-0.0712718
-0.055775
-0.0427072
-0.0318625
-0.0231934
-0.0163773
-0.00981467
-0.00297906
-0.253377
-0.229377
-0.190933
-0.156534
-0.126542
-0.100895
-0.0790899
-0.0606558
-0.0451495
-0.0321593
-0.0214779
-0.0129883
-0.00616351
0.000436885
0.00667896
-0.247596
-0.221201
-0.181292
-0.145983
-0.115486
-0.0896637
-0.0678293
-0.0494177
-0.0339864
-0.0211622
-0.010714
-0.00243207
0.00435548
0.0108459
0.0164504
-0.239968
-0.211388
-0.17029
-0.134322
-0.10353
-0.0776521
-0.0558486
-0.037553
-0.0222983
-0.00972778
0.000423022
0.00846336
0.0151483
0.0214315
0.0263404
-0.230419
-0.199929
-0.157851
-0.121542
-0.0906837
-0.0648075
-0.0431447
-0.0250712
-0.0100988
0.0021297
0.0119209
0.0196818
0.0262032
0.0322062
0.0363428
-0.218923
-0.186883
-0.143933
-0.107657
-0.0768632
-0.0511343
-0.0297301
-0.0119892
0.00259596
0.0143947
0.023766
0.0312087
0.0375097
0.0431603
0.0464273
-0.205491
-0.172331
-0.12857
-0.0925755
-0.0620671
-0.0366504
-0.0156278
0.00167046
0.0157664
0.027052
0.0359485
0.0430337
0.0490437
0.0542365
0.056541
-0.190166
-0.156254
-0.111879
-0.0762775
-0.0463064
-0.0213812
-0.000867183
0.01588
0.0293902
0.0400882
0.0484648
0.0551498
0.0607639
0.0653195
0.0665825
-0.17303
-0.138434
-0.0940346
-0.0588765
-0.0296176
-0.00535694
0.0145179
0.0306076
0.0434432
0.0534917
0.0613142
0.0675471
0.072616
0.0762573
0.0762837
-0.154208
-0.118593
-0.0752475
-0.0405218
-0.0120654
0.0113835
0.03049
0.0458184
0.0578997
0.0672498
0.0744889
0.0801968
0.0845316
0.0868848
0.0851822
-0.13382
-0.0970035
-0.0553511
-0.0213158
0.0062672
0.0287889
0.0470072
0.0614758
0.0727328
0.081344
0.0879612
0.0930374
0.0964122
0.0970641
0.0931289
-0.111881
-0.0740964
-0.0343048
-0.00130716
0.0252983
0.0467969
0.0640216
0.0775411
0.0879127
0.0957446
0.101675
0.105972
0.108146
0.10688
0.101062
-0.0883332
-0.05033
-0.0122172
0.0194738
0.0449586
0.0653401
0.08148
0.0939727
0.103405
0.110408
0.115554
0.118895
0.11969
0.116835
0.110871
-0.0633352
-0.0258245
0.0107502
0.0409714
0.0651833
0.0843504
0.0993246
0.110724
0.119165
0.125279
0.129524
0.131754
0.131143
0.127207
0.124253
-0.0371052
-0.000581011
0.0344494
0.0630966
0.085903
0.103759
0.117495
0.127743
0.135142
0.140293
0.14353
0.144573
0.142717
0.138263
0.137344
-0.0098555
0.0253592
0.0587552
0.0857439
0.107039
0.123495
0.135927
0.144973
0.151276
0.155391
0.157542
0.157413
0.154548
0.149968
0.149799
0.0182248
0.0519085
0.0835537
0.108804
0.128503
0.143485
0.154555
0.16235
0.167506
0.170521
0.171548
0.1703
0.166579
0.1619
0.16169
0.046956
0.0789463
0.108732
0.13217
0.150205
0.163651
0.173309
0.179809
0.183771
0.185641
0.185536
0.183239
0.178774
0.173894
0.173161
0.0761679
0.106338
0.134172
0.155734
0.172049
0.183912
0.192116
0.197286
0.200014
0.200711
0.19948
0.196172
0.190982
0.185754
0.184351
0.105694
0.133941
0.159756
0.179389
0.193942
0.204184
0.210903
0.214712
0.216181
0.215692
0.213349
0.209067
0.203155
0.197447
0.195283
0.13537
0.161616
0.18536
0.203028
0.215788
0.224383
0.229595
0.232022
0.232216
0.230535
0.227089
0.221841
0.215186
0.208933
0.205992
0.165037
0.189221
0.210863
0.226543
0.237491
0.244425
0.248117
0.249152
0.248064
0.245196
0.24066
0.23446
0.227044
0.220179
0.216444
0.194538
0.216621
0.236144
0.249829
0.258959
0.264226
0.266395
0.266035
0.263667
0.259616
0.253999
0.24685
0.238671
0.231182
0.226636
0.223719
0.24368
0.261083
0.272781
0.280096
0.283704
0.284355
0.282608
0.278969
0.27375
0.267067
0.258982
0.250031
0.241886
0.236526
0.252434
0.27027
0.285566
0.295294
0.300812
0.302776
0.301925
0.298806
0.293911
0.287538
0.279804
0.270799
0.261094
0.252288
0.246094
0.280536
0.296263
0.309479
0.317269
0.321018
0.321363
0.319035
0.314568
0.308439
0.300935
0.292173
0.282266
0.27181
0.262333
0.255308
0.307889
0.321539
0.332714
0.338609
0.340626
0.339388
0.335615
0.32983
0.322494
0.313885
0.304123
0.293344
0.282161
0.272009
0.264141
0.334358
0.34598
0.355167
0.359221
0.359554
0.356777
0.3516
0.344534
0.336028
0.326346
0.315614
0.30399
0.292095
0.281274
0.272569
0.359818
0.369475
0.376737
0.379014
0.37772
0.373458
0.366925
0.358622
0.348984
0.338269
0.326607
0.314175
0.301594
0.290103
0.280567
0.384146
0.391918
0.397329
0.397903
0.39505
0.389363
0.381529
0.37204
0.361318
0.349611
0.337058
0.323856
0.310616
0.298469
0.288114
0.40723
0.413209
0.416855
0.415808
0.41147
0.404426
0.395354
0.384735
0.37298
0.360333
0.346938
0.333007
0.319135
0.306345
0.295189
0.428961
0.433253
0.435228
0.432652
0.426912
0.418588
0.408347
0.39666
0.383928
0.370392
0.356205
0.341591
0.327123
0.313708
0.301774
0.449241
0.451964
0.452372
0.448366
0.441314
0.43179
0.420454
0.407768
0.394123
0.379756
0.364832
0.349582
0.33455
0.320535
0.307855
0.467977
0.469261
0.468214
0.462885
0.454616
0.44398
0.431629
0.418016
0.403524
0.388389
0.372785
0.356951
0.341393
0.326807
0.313416
0.485083
0.485072
0.482689
0.476148
0.466764
0.45511
0.441829
0.427367
0.412099
0.396262
0.380039
0.363672
0.34763
0.332506
0.318446
0.500482
0.499334
0.495739
0.488102
0.47771
0.465135
0.451014
0.435784
0.419816
0.403346
0.386567
0.369722
0.353239
0.337614
0.322935
0.514108
0.511988
0.50731
0.498697
0.487409
0.474017
0.459149
0.443237
0.426646
0.409615
0.392346
0.37508
0.358201
0.34212
0.326876
0.525919
0.522974
0.517354
0.507889
0.495822
0.481719
0.466202
0.449698
0.432566
0.415049
0.397357
0.379727
0.3625
0.34601
0.330263
0.53588
0.532233
0.525824
0.51564
0.502915
0.488211
0.472147
0.455142
0.437554
0.419628
0.401581
0.383646
0.366122
0.349276
0.333094
0.543952
0.539729
0.532685
0.521918
0.50866
0.49347
0.476961
0.459551
0.441592
0.423335
0.405002
0.386821
0.369054
0.351911
0.33537
0.550102
0.545433
0.537907
0.526697
0.513034
0.497473
0.480627
0.462907
0.444667
0.426158
0.407609
0.389241
0.371287
0.353911
0.337094
0.554301
0.549324
0.541471
0.52996
0.51602
0.500206
0.48313
0.465199
0.446768
0.428088
0.409392
0.390897
0.372814
0.355277
0.33827
0.556531
0.55139
0.543364
0.531692
0.517606
0.501659
0.484461
0.46642
0.447887
0.429118
0.410345
0.391784
0.373633
0.35601
0.338902
0.556783
0.551624
0.543577
0.531889
0.517788
0.501827
0.484617
0.466565
0.448022
0.429244
0.410464
0.391897
0.373741
0.356112
0.338994
0.555056
0.550024
0.542112
0.53055
0.516564
0.500709
0.483596
0.465633
0.447172
0.428467
0.409749
0.391237
0.373137
0.355578
0.338544
0.551358
0.546597
0.538975
0.52768
0.51394
0.49831
0.481403
0.463629
0.445341
0.426789
0.408203
0.389805
0.371821
0.35441
0.337551
0.545708
0.541358
0.534178
0.523291
0.509926
0.49464
0.478047
0.46056
0.442534
0.424217
0.405833
0.387608
0.3698
0.352608
0.336009
0.538132
0.534325
0.527741
0.517403
0.50454
0.489714
0.473541
0.456439
0.438763
0.42076
0.402647
0.384656
0.36708
0.350172
0.333917
0.528665
0.525527
0.519692
0.510039
0.497804
0.483551
0.467903
0.45128
0.434042
0.416431
0.398658
0.38096
0.363668
0.347105
0.33127
0.517346
0.514999
0.510066
0.50123
0.489745
0.476177
0.461154
0.445103
0.428387
0.411246
0.393881
0.376534
0.359579
0.343413
0.328068
0.504213
0.502793
0.498907
0.491016
0.480397
0.467621
0.453321
0.437931
0.421819
0.405222
0.388333
0.371394
0.354824
0.339105
0.324312
0.489305
0.488975
0.486265
0.479439
0.469799
0.457918
0.444436
0.429793
0.414364
0.398383
0.382035
0.365561
0.349422
0.334193
0.320008
0.472683
0.473603
0.472194
0.466547
0.457994
0.447107
0.434532
0.420718
0.406047
0.390752
0.375009
0.359055
0.343391
0.32869
0.315162
0.454423
0.456741
0.456751
0.452396
0.445032
0.435231
0.423649
0.410743
0.396901
0.382359
0.367281
0.351899
0.33675
0.322612
0.309784
0.434612
0.438457
0.440001
0.437044
0.430965
0.42234
0.411831
0.399905
0.386959
0.373232
0.358877
0.34412
0.329524
0.315977
0.303887
0.41334
0.418833
0.422014
0.420556
0.415852
0.408484
0.399123
0.388246
0.37626
0.363406
0.34983
0.335743
0.321735
0.308804
0.297482
0.390707
0.397955
0.402868
0.403001
0.399756
0.393721
0.385578
0.375812
0.364843
0.352915
0.340168
0.326798
0.313412
0.301117
0.290587
0.366819
0.375916
0.382648
0.384455
0.382744
0.378111
0.371248
0.362651
0.352751
0.3418
0.32993
0.317319
0.304582
0.292937
0.283218
0.341789
0.352815
0.361441
0.364997
0.364888
0.361719
0.356193
0.348816
0.340031
0.330101
0.319148
0.307333
0.295274
0.284291
0.275396
0.315736
0.328757
0.339343
0.344713
0.346263
0.344612
0.340471
0.334358
0.32673
0.317859
0.307864
0.296884
0.285527
0.275208
0.267142
0.288788
0.303854
0.316452
0.323691
0.32695
0.326862
0.324148
0.319338
0.312902
0.305123
0.296117
0.285998
0.27536
0.26571
0.25848
0.261076
0.278222
0.292872
0.302024
0.307031
0.308542
0.307289
0.303812
0.298596
0.291936
0.283947
0.27472
0.264824
0.255839
0.249434
0.232738
0.25198
0.268712
0.279809
0.286593
0.28973
0.289962
0.287844
0.283872
0.278354
0.271405
0.263087
0.253938
0.245609
0.240031
0.203916
0.225255
0.244083
0.257146
0.265724
0.270504
0.272239
0.271494
0.26878
0.264421
0.258527
0.251137
0.242752
0.235073
0.230303
0.174759
0.198175
0.2191
0.234136
0.244516
0.250946
0.25419
0.254826
0.253383
0.250195
0.245374
0.238924
0.231294
0.224235
0.220271
0.145419
0.170874
0.193881
0.210886
0.22306
0.231137
0.235889
0.237906
0.237733
0.235724
0.231984
0.226478
0.219602
0.213151
0.209973
0.11605
0.143488
0.168547
0.187499
0.201452
0.211162
0.217409
0.220797
0.221891
0.221065
0.21842
0.213873
0.207735
0.201824
0.199416
0.0868126
0.116156
0.143219
0.164084
0.179785
0.191104
0.198826
0.203565
0.20591
0.206262
0.204721
0.201142
0.195722
0.19029
0.188634
0.057868
0.0890182
0.118018
0.140746
0.158155
0.171047
0.180213
0.186276
0.189846
0.191364
0.190943
0.188368
0.183669
0.178585
0.177593
0.029382
0.0622153
0.0930644
0.117593
0.136656
0.151074
0.161645
0.168995
0.173754
0.176411
0.177115
0.175584
0.171626
0.166749
0.166276
0.00152326
0.0358822
0.0684745
0.0947306
0.11538
0.131267
0.143193
0.151789
0.15769
0.161442
0.163265
0.162846
0.159742
0.154972
0.15455
-0.0255306
0.010141
0.044361
0.0722655
0.0944207
0.111702
0.124928
0.134722
0.141715
0.1465
0.149403
0.15015
0.148052
0.143419
0.142285
-0.0515938
-0.0149177
0.0208367
0.0503059
0.073864
0.0924538
0.106914
0.117857
0.12589
0.131636
0.135544
0.137473
0.136614
0.132507
0.129409
-0.0764573
-0.0392466
-0.00197625
0.0289567
0.0537896
0.073593
0.089217
0.101251
0.110274
0.116909
0.121719
0.124754
0.125294
0.122271
0.116252
-0.0999066
-0.062842
-0.0239346
0.00830805
0.0342677
0.055188
0.0718958
0.0849556
0.0949183
0.102383
0.107979
0.111969
0.113882
0.112441
0.106577
-0.121769
-0.0856057
-0.0448806
-0.0115808
0.015363
0.0373066
0.0550084
0.069018
0.0798669
0.088113
0.0943979
0.0991694
0.102278
0.102736
0.0987037
-0.142098
-0.107098
-0.0647004
-0.0306764
-0.00285597
0.0200157
0.0386082
0.0534797
0.0651545
0.0741417
0.0810517
0.086457
0.0905212
0.0926568
0.0908014
-0.160886
-0.126892
-0.0834154
-0.0489312
-0.0203096
0.00337742
0.0227433
0.0383795
0.0508108
0.0604985
0.0679952
0.0739273
0.0787211
0.0821253
0.0819638
-0.178017
-0.14473
-0.101162
-0.0662491
-0.0369157
-0.0125562
0.00745592
0.0237542
0.0368629
0.0472023
0.0552557
0.061642
0.0669777
0.0712834
0.0723414
-0.193367
-0.160822
-0.117788
-0.0824898
-0.0526083
-0.0277455
-0.00721649
0.00963869
0.0233368
0.0342663
0.0428418
0.0496309
0.0553626
0.0602996
0.0623874
-0.20685
-0.175383
-0.133121
-0.0975396
-0.0673486
-0.0421601
-0.0212401
-0.00393504
0.0102572
0.0217028
0.0307556
0.0379057
0.0439317
0.0493258
0.0523644
-0.218422
-0.188448
-0.147044
-0.111404
-0.081125
-0.0557752
-0.0345853
-0.0169389
-0.00235321
0.00952609
0.0190015
0.0264742
0.0327264
0.0384747
0.0423726
-0.228074
-0.199951
-0.159507
-0.124167
-0.0939418
-0.0685723
-0.0472289
-0.0293502
-0.0144742
-0.00224809
0.0075901
0.0153471
0.02177
0.0278016
0.0324637
-0.235828
-0.209831
-0.170543
-0.135824
-0.10587
-0.0805454
-0.0591575
-0.0411519
-0.0260886
-0.0136039
-0.00346474
0.00453871
0.0110722
0.0173151
0.0226669
-0.241757
-0.218096
-0.180229
-0.146383
-0.116908
-0.0917387
-0.0703724
-0.0523341
-0.0371825
-0.0245276
-0.0141504
-0.00593467
0.000643561
0.00700323
0.012988
-0.245986
-0.224819
-0.18866
-0.155877
-0.127028
-0.10216
-0.0809143
-0.0628999
-0.047744
-0.0350078
-0.0244602
-0.0160606
-0.00948598
-0.00315228
0.00342292
-0.248705
-0.230138
-0.195956
-0.164361
-0.13623
-0.111786
-0.0907856
-0.0728946
-0.0577661
-0.0450353
-0.0343935
-0.0258387
-0.0192671
-0.0131619
-0.0060379
-0.250149
-0.234253
-0.202257
-0.171898
-0.144536
-0.120608
-0.0999671
-0.0823048
-0.0672899
-0.0546075
-0.043954
-0.0352871
-0.0286763
-0.0229824
-0.0154234
-0.250616
-0.237452
-0.207711
-0.178554
-0.151979
-0.128638
-0.108453
-0.0911153
-0.0763049
-0.0637417
-0.0531505
-0.0444345
-0.0377388
-0.0324986
-0.0248005
-0.250409
-0.240083
-0.212433
-0.184382
-0.158595
-0.135907
-0.116259
-0.099325
-0.084799
-0.0724312
-0.0619755
-0.0533017
-0.0465295
-0.0415548
-0.0342642
-0.249902
-0.242317
-0.216471
-0.189409
-0.164422
-0.142453
-0.123412
-0.106947
-0.0927699
-0.080665
-0.0704118
-0.0618571
-0.0550768
-0.0501177
-0.0438452
-0.249449
-0.244176
-0.219798
-0.193638
-0.169493
-0.148318
-0.129945
-0.114001
-0.100224
-0.088438
-0.078444
-0.0700728
-0.0633574
-0.0584103
-0.0532218
-0.249271
-0.245575
-0.222314
-0.197046
-0.173838
-0.153542
-0.13589
-0.120506
-0.107175
-0.0957546
-0.0860669
-0.0779339
-0.0713588
-0.0665184
-0.0620805
-0.249368
-0.246276
-0.223855
-0.199599
-0.177489
-0.158163
-0.141269
-0.126479
-0.113636
-0.102626
-0.0932861
-0.0854385
-0.0790686
-0.0743987
-0.0703355
-0.249417
-0.245808
-0.224201
-0.201279
-0.18049
-0.162207
-0.146093
-0.131932
-0.119625
-0.10907
-0.100113
-0.0925885
-0.0864645
-0.0819807
-0.0780628
-0.24871
-0.243424
-0.223124
-0.202114
-0.182894
-0.165685
-0.150364
-0.136878
-0.125162
-0.115103
-0.106562
-0.0993856
-0.0935271
-0.0892313
-0.0853916
-0.246227
-0.238308
-0.220533
-0.202223
-0.184738
-0.168583
-0.154082
-0.141337
-0.13027
-0.120747
-0.112643
-0.105833
-0.100252
-0.0961594
-0.0924316
-0.24123
-0.23002
-0.216697
-0.201812
-0.186005
-0.170865
-0.15726
-0.145344
-0.134978
-0.126017
-0.118369
-0.111942
-0.106652
-0.102793
-0.0992467
-0.233854
-0.219248
-0.212537
-0.201053
-0.186614
-0.17252
-0.159948
-0.148948
-0.139315
-0.130929
-0.123752
-0.117728
-0.112751
-0.109163
-0.105865
-0.225083
-0.208372
-0.209128
-0.199854
-0.186492
-0.173617
-0.162237
-0.152202
-0.143303
-0.135499
-0.128809
-0.123212
-0.118574
-0.11529
-0.112293
-0.216156
-0.200458
-0.206517
-0.197922
-0.185706
-0.174329
-0.16424
-0.155151
-0.146963
-0.139741
-0.133557
-0.128413
-0.124143
-0.121192
-0.118537
-0.208133
-0.196935
-0.203739
-0.195109
-0.184532
-0.174888
-0.166047
-0.157819
-0.150309
-0.143676
-0.138015
-0.133351
-0.129476
-0.126886
-0.124609
-0.201566
-0.196956
-0.199554
-0.191679
-0.183408
-0.175488
-0.167694
-0.160218
-0.153363
-0.147328
-0.142202
-0.138037
-0.134584
-0.132387
-0.130536
-0.196636
-0.197616
-0.193496
-0.188348
-0.182766
-0.176175
-0.16915
-0.162354
-0.156155
-0.150723
-0.146136
-0.142481
-0.139475
-0.137706
-0.136346
-0.193052
-0.197202
-0.186567
-0.18627
-0.182729
-0.176799
-0.170381
-0.164265
-0.158723
-0.153886
-0.149827
-0.146687
-0.144152
-0.142848
-0.142061
-0.190491
-0.195099
-0.18202
-0.186033
-0.182832
-0.177174
-0.171408
-0.166003
-0.161099
-0.156832
-0.153282
-0.150656
-0.148613
-0.147811
-0.14769
-0.188614
-0.19155
-0.181842
-0.186224
-0.182371
-0.17729
-0.172335
-0.16762
-0.163299
-0.159563
-0.156499
-0.154384
-0.152858
-0.152589
-0.153228
-0.187062
-0.187607
-0.184421
-0.184349
-0.181159
-0.177364
-0.173238
-0.169122
-0.165324
-0.162079
-0.159473
-0.157863
-0.156879
-0.157175
-0.158658
-0.185618
-0.18459
-0.1861
-0.180111
-0.17988
-0.177597
-0.174104
-0.170492
-0.167164
-0.164371
-0.16219
-0.161075
-0.160666
-0.161563
-0.163954
-0.184279
-0.182832
-0.185728
-0.176898
-0.179604
-0.177876
-0.174839
-0.171726
-0.168824
-0.166426
-0.164632
-0.163995
-0.1642
-0.165744
-0.169099
-0.183008
-0.181953
-0.183549
-0.177845
-0.179578
-0.177925
-0.175492
-0.172858
-0.170297
-0.168221
-0.166762
-0.166587
-0.167455
-0.169709
-0.17408
-0.181838
-0.181345
-0.181233
-0.180748
-0.178056
-0.177718
-0.17618
-0.173924
-0.171578
-0.169722
-0.168537
-0.168803
-0.170392
-0.173449
-0.178907
-0.180795
-0.18071
-0.179845
-0.181919
-0.176152
-0.177868
-0.176902
-0.174894
-0.172645
-0.170879
-0.169891
-0.170587
-0.172975
-0.176954
-0.183589
-0.179825
-0.179964
-0.179373
-0.180809
-0.177208
-0.178149
-0.177528
-0.175799
-0.173486
-0.171621
-0.170742
-0.171867
-0.175158
-0.180224
-0.188148
-0.178878
-0.17918
-0.179129
-0.17963
-0.180035
-0.177714
-0.178092
-0.17667
-0.174054
-0.171839
-0.170983
-0.172584
-0.176905
-0.183244
-0.192606
-0.177935
-0.178415
-0.178752
-0.179097
-0.181089
-0.177753
-0.178833
-0.177493
-0.174253
-0.17139
-0.170497
-0.172666
-0.178182
-0.186015
-0.196979
-0.177025
-0.177684
-0.178268
-0.178991
-0.180286
-0.179789
-0.17929
-0.178157
-0.173929
-0.170099
-0.169176
-0.172071
-0.178952
-0.188514
-0.201303
-0.176228
-0.177043
-0.17778
-0.178775
-0.179799
-0.181684
-0.17952
-0.178675
-0.172796
-0.167806
-0.166936
-0.170752
-0.179206
-0.19074
-0.205597
-0.175664
-0.176601
-0.177412
-0.178532
-0.179615
-0.181304
-0.18059
-0.178489
-0.17049
-0.164435
-0.163776
-0.168693
-0.178918
-0.19271
-0.20991
-0.175477
-0.1765
-0.177354
-0.178509
-0.179492
-0.18037
-0.181684
-0.176632
-0.166789
-0.160067
-0.159715
-0.165904
-0.17815
-0.194443
-0.214297
-0.175777
-0.17686
-0.177787
-0.178969
-0.179715
-0.179824
-0.180224
-0.173354
-0.161835
-0.154914
-0.154856
-0.162456
-0.176998
-0.196054
-0.218814
-0.1766
-0.177713
-0.178773
-0.180054
-0.18065
-0.179917
-0.177393
-0.16935
-0.156145
-0.149292
-0.14934
-0.158689
-0.175687
-0.197659
-0.22359
-0.177857
-0.178954
-0.180201
-0.181665
-0.182281
-0.180813
-0.175403
-0.164977
-0.151243
-0.143557
-0.143582
-0.155181
-0.174556
-0.199573
-0.22871
-0.179365
-0.180368
-0.181755
-0.183487
-0.184194
-0.182347
-0.174909
-0.162867
-0.14809
-0.138585
-0.138829
-0.153002
-0.173902
-0.202382
-0.234359
-0.180913
-0.181728
-0.183127
-0.184938
-0.185766