/*--------------------------------*- C++ -*----------------------------------*\
  =========                 |
  \\      /  F ield         | OpenFOAM: The Open Source CFD Toolbox
   \\    /   O peration     | Website:  https://openfoam.org
    \\  /    A nd           | Version:  7
     \\/     M anipulation  |
\*---------------------------------------------------------------------------*/
FoamFile
{
    version     2.0;
    format      ascii;
    class       surfaceScalarField;
    location    "31.0002";
    object      phi;
}
// * * * * * * * * * * * * * * * * * * * * * * * * * * * * * * * * * * * * * //

dimensions      [0 3 -1 0 0 0 0];

internalField   nonuniform List<scalar> 
37105
(
-1.02005e-05
1.45457e-05
-4.34512e-06
-2.40171e-05
1.99179e-05
-6.10128e-06
-3.83966e-05
2.09871e-05
-6.60763e-06
-5.34351e-05
2.22286e-05
-7.1902e-06
-6.92339e-05
2.36436e-05
-7.84477e-06
-8.58509e-05
2.51739e-05
-8.55694e-06
-0.000103331
2.67977e-05
-9.31713e-06
-0.000121695
2.84725e-05
-1.01093e-05
-0.000140955
3.01824e-05
-1.09218e-05
-0.000161123
3.19068e-05
-1.17391e-05
-0.000182216
3.36357e-05
-1.25425e-05
-0.000204247
3.53284e-05
-1.32972e-05
-0.000227216
3.69329e-05
-1.39642e-05
-0.000251118
3.84118e-05
-1.45095e-05
3.98651e-05
-1.48893e-05
-0.000276094
-1.00158e-05
2.45615e-05
-2.36562e-05
3.35583e-05
-3.78652e-05
3.51961e-05
-5.27165e-05
3.70799e-05
-6.83058e-05
3.92329e-05
-8.46819e-05
4.15501e-05
-0.00010188
4.39959e-05
-0.000119908
4.65002e-05
-0.000138766
4.90402e-05
-0.000158446
5.15875e-05
-0.000178951
5.41402e-05
-0.000200277
5.66547e-05
-0.00022242
5.90758e-05
-0.000245382
6.13735e-05
6.37019e-05
-0.000269219
-9.68148e-06
3.4243e-05
-2.30011e-05
4.68779e-05
-3.68994e-05
4.90943e-05
-5.14112e-05
5.15917e-05
-6.66232e-05
5.4445e-05
-8.25694e-05
5.74962e-05
-9.92688e-05
6.06954e-05
-0.000116711
6.39428e-05
-0.000134877
6.72059e-05
-0.000153735
7.04453e-05
-0.000173261
7.36666e-05
-0.000193437
7.68306e-05
-0.000214253
7.98916e-05
-0.0002357
8.28205e-05
8.57859e-05
-0.000257784
-9.20339e-06
4.34463e-05
-2.2062e-05
5.97365e-05
-3.55144e-05
6.25468e-05
-4.95435e-05
6.56208e-05
-6.42229e-05
6.91243e-05
-7.9567e-05
7.28403e-05
-9.55752e-05
7.67036e-05
-0.000112216
8.05838e-05
-0.000129447
8.44364e-05
-0.00014721
8.82081e-05
-0.000165455
9.19123e-05
-0.000184148
9.55237e-05
-0.000203276
9.90193e-05
-0.000222823
0.000102367
0.00010571
-0.000242747
-8.59378e-06
5.20401e-05
-2.08525e-05
7.19953e-05
-3.37313e-05
7.54256e-05
-4.71469e-05
7.90364e-05
-6.11546e-05
8.3132e-05
-7.57468e-05
8.74325e-05
-9.09008e-05
9.18576e-05
-0.000106564
9.62467e-05
-0.00012267
0.000100542
-0.000139138
0.000104676
-0.000155897
0.000108671
-0.000172897
0.000112524
-0.000190127
0.000116249
-0.000207575
0.000119815
0.000123315
-0.000225179
-7.8751e-06
5.99152e-05
-1.93871e-05
8.35073e-05
-3.15754e-05
8.76139e-05
-4.4262e-05
9.17231e-05
-5.74783e-05
9.63483e-05
-7.11935e-05
0.000101148
-8.53627e-05
0.000106027
-9.99131e-05
0.000110797
-0.00011476
0.000115389
-0.000129805
0.000119721
-0.000144959
0.000123825
-0.000160165
0.00012773
-0.000175416
0.0001315
-0.000190718
0.000135117
0.000138615
-0.000206018
-7.01519e-06
6.69304e-05
-1.76722e-05
9.41643e-05
-2.9074e-05
9.90157e-05
-4.09344e-05
0.000103583
-5.32598e-05
0.000108674
-6.59982e-05
0.000113886
-7.90843e-05
0.000119113
-9.24282e-05
0.000124141
-0.000105931
0.000128892
-0.000119483
0.000133273
-0.000132986
0.000137329
-0.000146379
0.000141124
-0.000159663
0.000144784
-0.00017287
0.000148324
0.000151725
-0.00018598
-6.02663e-06
7.2957e-05
-1.57235e-05
0.000103861
-2.62571e-05
0.000109549
-3.7212e-05
0.000114538
-4.85677e-05
0.000120029
-6.02538e-05
0.000125572
-7.21882e-05
0.000131047
-8.42667e-05
0.000136219
-9.63811e-05
0.000141007
-0.000108418
0.000145309
-0.000120276
0.000149187
-0.000131893
0.000152741
-0.000143276
0.000156167
-0.000154488
0.000159536
0.000162787
-0.00016555
-4.9228e-06
7.78798e-05
-1.35584e-05
0.000112497
-2.31569e-05
0.000119148
-3.31443e-05
0.000124526
-4.34699e-05
0.000130355
-5.40506e-05
0.000136153
-6.47899e-05
0.000141787
-7.55735e-05
0.000147003
-8.62874e-05
0.000151721
-9.68191e-05
0.000155841
-0.000107071
0.00015944
-0.00011698
0.000162649
-0.000126552
0.000165739
-0.000135875
0.000168858
0.000171927
-0.000145014
-3.71321e-06
8.15931e-05
-1.1197e-05
0.00011998
-1.98082e-05
0.000127759
-2.87801e-05
0.000133498
-3.80324e-05
0.000139607
-4.74737e-05
0.000145594
-5.6996e-05
0.000151309
-6.64776e-05
0.000156485
-7.58016e-05
0.000161045
-8.48593e-05
0.000164898
-9.35603e-05
0.000168141
-0.00010184
0.000170929
-0.000109696
0.000173595
-0.000117219
0.000176381
0.000179229
-0.00012452
-2.40231e-06
8.39954e-05
-8.66594e-06
0.000126244
-1.62459e-05
0.000135339
-2.41664e-05
0.000141418
-3.23175e-05
0.000147758
-4.06016e-05
0.000153878
-4.89015e-05
0.000159609
-5.70905e-05
0.000164674
-6.50501e-05
0.000169004
-7.2676e-05
0.000172524
-7.98856e-05
0.00017535
-8.66155e-05
0.000177659
-9.28408e-05
0.00017982
-9.86273e-05
0.000182167
0.000184736
-0.000104135
-9.76773e-07
8.49721e-05
-5.99979e-06
0.000131267
-1.25036e-05
0.000141843
-1.93476e-05
0.000148262
-2.63832e-05
0.000154794
-3.3506e-05
0.000161001
-4.05907e-05
0.000166694
-4.75075e-05
0.00017159
-5.41376e-05
0.000175634
-6.03783e-05
0.000178765
-6.61526e-05
0.000181124
-7.14021e-05
0.000182908
-7.60756e-05
0.000184494
-8.01737e-05
0.000186266
0.000188458
-8.38959e-05
4.81752e-07
8.44904e-05
-3.24127e-06
0.00013499
-8.60872e-06
0.00014721
-1.43663e-05
0.00015402
-2.02843e-05
0.000160712
-2.6252e-05
0.000166969
-3.2137e-05
0.000172578
-3.7809e-05
0.000177262
-4.31483e-05
0.000180974
-4.8052e-05
0.000183669
-5.24415e-05
0.000185514
-5.62642e-05
0.000186731
-5.94601e-05
0.00018769
-6.19276e-05
0.000188733
0.000190342
-6.38112e-05
1.83913e-06
8.26513e-05
-4.32477e-07
0.000137262
-4.59646e-06
0.000151374
-9.26525e-06
0.000158689
-1.40706e-05
0.000165517
-1.88988e-05
0.000171797
-2.36059e-05
0.000177286
-2.80645e-05
0.000181721
-3.2153e-05
0.000185062
-3.57668e-05
0.000187282
-3.8817e-05
0.000188564
-4.12464e-05
0.000189161
-4.30241e-05
0.000189467
-4.39775e-05
0.000189686
0.000190109
-4.37445e-05
3.27921e-06
7.9372e-05
2.52899e-06
0.000138012
-5.34905e-07
0.000154438
-4.08576e-06
0.000162239
-7.79408e-06
0.000169226
-1.15017e-05
0.000175505
-1.50565e-05
0.00018084
-1.83348e-05
0.000184999
-2.12098e-05
0.000187937
-2.35772e-05
0.00018965
-2.53344e-05
0.000190321
-2.63941e-05
0.00019022
-2.67366e-05
0.00018981
-2.62906e-05
0.00018924
0.000187995
-2.41765e-05
4.72986e-06
7.46422e-05
5.5169e-06
0.000137225
3.70412e-06
0.000156251
1.14569e-06
0.000164798
-1.52269e-06
0.000171894
-4.11784e-06
0.0001781
-6.54941e-06
0.000183272
-8.67984e-06
0.00018713
-1.03775e-05
0.000189635
-1.15347e-05
0.000190807
-1.20375e-05
0.000190824
-1.17655e-05
0.000189948
-1.06395e-05
0.000188684
-8.64273e-06
0.000187244
0.000184762
-5.40946e-06
6.13492e-06
6.85073e-05
8.50129e-06
0.000134859
7.92845e-06
0.000156824
6.45527e-06
0.000166271
4.82904e-06
0.00017352
3.2543e-06
0.000179674
1.87283e-06
0.000184653
8.2557e-07
0.000188177
2.43686e-07
0.000190217
2.77826e-07
0.000190773
1.02947e-06
0.000190073
2.59835e-06
0.000188379
5.08873e-06
0.000186194
8.60944e-06
0.000183723
0.000180053
1.33181e-05
7.43281e-06
6.10745e-05
1.14157e-05
0.000130876
1.21232e-05
0.000156116
1.1711e-05
0.000166683
1.11088e-05
0.000174123
1.05771e-05
0.000180206
1.02657e-05
0.000184965
1.0309e-05
0.000188134
1.08454e-05
0.00018968
1.19967e-05
0.000189622
1.38892e-05
0.00018818
1.67113e-05
0.000185557
2.05862e-05
0.000182319
2.53171e-05
0.000178992
0.000173668
3.1702e-05
8.54174e-06
5.25327e-05
1.41759e-05
0.000125242
1.62388e-05
0.000154053
1.68943e-05
0.000166028
1.72785e-05
0.000173738
1.77427e-05
0.000179742
1.84479e-05
0.00018426
1.95298e-05
0.000187052
2.11316e-05
0.000188078
2.33938e-05
0.000187359
2.64328e-05
0.000185141
3.04462e-05
0.000181544
3.5731e-05
0.000177034
4.1797e-05
0.000172926
0.000165824
4.96412e-05
9.3499e-06
4.31828e-05
1.66794e-05
0.000117912
2.02046e-05
0.000150528
2.19591e-05
0.000164273
2.33041e-05
0.000172393
2.47228e-05
0.000178323
2.64043e-05
0.000182578
2.8486e-05
0.00018497
3.11177e-05
0.000185447
3.44687e-05
0.000184008
3.86502e-05
0.00018096
4.37903e-05
0.000176404
5.05127e-05
0.000170312
5.79685e-05
0.00016547
0.000156679
6.71135e-05
9.71421e-06
3.34686e-05
1.88087e-05
0.000108817
2.39315e-05
0.000145405
2.68413e-05
0.000161363
2.91389e-05
0.000170096
3.14752e-05
0.000175987
3.40918e-05
0.000179962
3.71361e-05
0.000181926
4.07586e-05
0.000181824
4.51675e-05
0.000179599
5.05094e-05
0.000175618
5.67011e-05
0.000170212
6.48399e-05
0.000162173
7.37833e-05
0.000156527
0.00014619
8.42718e-05
9.4925e-06
2.39761e-05
2.04446e-05
9.78654e-05
2.7304e-05
0.000138546
3.14591e-05
0.000157208
3.47264e-05
0.000166828
3.79547e-05
0.000172759
4.1462e-05
0.000176454
4.54271e-05
0.000177961
4.99982e-05
0.000177253
5.54068e-05
0.000174191
6.19621e-05
0.000169062
6.91496e-05
0.000163024
7.86289e-05
0.000152693
8.91117e-05
0.000146044
0.000134109
0.000101193
8.63407e-06
1.5342e-05
2.14663e-05
8.50331e-05
3.01733e-05
0.000129839
3.57088e-05
0.000151673
4.00047e-05
0.000162532
4.4107e-05
0.000168656
4.84569e-05
0.000172104
5.33004e-05
0.000173117
5.8792e-05
0.000171761
6.50799e-05
0.000167903
7.29128e-05
0.000161229
8.10938e-05
0.000154843
9.17859e-05
0.000142001
0.00010382
0.00013401
0.000120019
0.00011791
7.26645e-06
8.07558e-06
2.17228e-05
7.05768e-05
3.23612e-05
0.000119201
3.94691e-05
0.000144565
4.48914e-05
0.00015711
4.98755e-05
0.000163672
5.50174e-05
0.000166962
6.06709e-05
0.000167464
6.70879e-05
0.000165345
7.4128e-05
0.000160863
8.32639e-05
0.000152093
9.25278e-05
0.00014558
0.000104278
0.000130251
0.000117458
0.00012083
0.000103243
0.000134234
5.63909e-06
2.43649e-06
2.10338e-05
5.51821e-05
3.36788e-05
0.000106556
4.25922e-05
0.000135652
4.92847e-05
0.000150418
5.51725e-05
0.000157784
6.10805e-05
0.000161054
6.74479e-05
0.000161096
7.48266e-05
0.000157966
8.24794e-05
0.00015321
9.27912e-05
0.000141782
0.00010337
0.000135001
0.00011647
0.000117151
0.000129992
0.000107308
8.37927e-05
0.000149443
3.97373e-06
-1.53725e-06
1.92515e-05
3.99044e-05
3.39446e-05
9.18625e-05
4.48952e-05
0.000124701
5.30276e-05
0.000142285
5.99025e-05
0.00015091
6.65774e-05
0.00015438
7.35087e-05
0.000154165
8.18887e-05
0.000149586
9.01635e-05
0.000144935
0.000101314
0.000130632
0.000113087
0.000123228
0.000128384
0.000101853
0.000142092
9.36003e-05
6.21737e-05
0.000163711
2.43292e-06
-3.97017e-06
1.64286e-05
2.59087e-05
3.3005e-05
7.52861e-05
4.61294e-05
0.000111576
5.59217e-05
0.000132493
6.38809e-05
0.00014295
7.14409e-05
0.00014682
7.88147e-05
0.000146791
8.80535e-05
0.000140347
9.71099e-05
0.000135879
0.000108918
0.000118823
0.000121349
0.000110796
0.000139041
8.41623e-05
0.000153752
7.88889e-05
3.87031e-05
0.000177223
1.20327e-06
-5.17344e-06
1.29153e-05
1.41967e-05
3.07363e-05
5.74651e-05
4.59867e-05
9.63261e-05
5.76909e-05
0.000120789
6.69184e-05
0.000133723
7.54486e-05
0.000138289
8.32854e-05
0.000138954
9.31488e-05
0.000130483
0.000103184
0.000125843
0.000115567
0.000106441
0.000128446
9.79169e-05
0.000147561
6.50472e-05
0.000164122
6.2328e-05
1.37144e-05
0.000189111
4.36016e-07
-5.60945e-06
9.32224e-06
5.31051e-06
2.69942e-05
3.97931e-05
4.41436e-05
7.91767e-05
5.80064e-05
0.000106926
6.86653e-05
0.000123064
7.84334e-05
0.000128521
8.68176e-05
0.00013057
9.67643e-05
0.000120537
0.000108025
0.000114583
0.000121129
9.33369e-05
0.000134748
8.42976e-05
0.000153451
4.63439e-05
0.000172951
4.28282e-05
-1.23137e-05
0.000198979
7.35542e-08
-5.68301e-06
6.20938e-06
-8.25309e-07
2.19365e-05
2.4066e-05
4.03498e-05
6.07634e-05
5.64795e-05
9.07963e-05
6.87963e-05
0.000110747
7.97386e-05
0.000117579
8.9494e-05
0.000120815
9.8984e-05
0.000111047
0.000110836
0.000102731
0.000123957
8.02159e-05
0.000140428
6.78264e-05
0.000155044
3.17276e-05
0.000181009
1.68636e-05
-3.34373e-05
0.000202132
-4.34868e-08
-5.63952e-06
3.90881e-06
-4.77761e-06
1.64173e-05
1.15575e-05
3.46688e-05
4.25119e-05
5.26537e-05
7.28114e-05
6.69427e-05
9.64581e-05
7.89706e-05
0.000105551
8.99837e-05
0.000109802
0.000100202
0.000100828
0.000112222
9.07112e-05
0.000124546
6.78924e-05
0.0001434
4.89729e-05
0.000157157
1.79697e-05
0.000183423
-9.40218e-06
-4.95554e-05
0.000199541
3.41376e-08
-5.67366e-06
2.63831e-06
-7.38178e-06
1.15975e-05
2.59831e-06
2.77511e-05
2.63583e-05
4.63662e-05
5.41963e-05
6.24796e-05
8.03447e-05
7.57821e-05
9.22485e-05
8.8055e-05
9.7529e-05
9.84295e-05
9.04535e-05
0.000113162
7.59791e-05
0.00012161
5.9444e-05
0.000144136
2.64463e-05
0.000155013
7.09365e-06
0.000180207
-3.45968e-05
-6.88754e-05
0.000199527
2.41221e-07
-5.91488e-06
2.21653e-06
-9.35709e-06
8.23208e-06
-3.41724e-06
2.08917e-05
1.36986e-05
3.81257e-05
3.69624e-05
5.51912e-05
6.32792e-05
6.93251e-05
7.81146e-05
8.34718e-05
8.33823e-05
9.28346e-05
8.10907e-05
0.000110012
5.88014e-05
0.000117763
5.16935e-05
0.000141055
3.15402e-06
0.000148872
-7.23631e-07
0.000178853
-6.45777e-05
-7.87072e-05
0.000188685
5.20757e-07
-6.43564e-06
2.24468e-06
-1.1081e-05
6.31597e-06
-7.48854e-06
1.52638e-05
4.75082e-06
2.92006e-05
2.30255e-05
4.55253e-05
4.69545e-05
5.97399e-05
6.38999e-05
7.45898e-05
6.85324e-05
8.49299e-05
7.07506e-05
0.000100106
4.36252e-05
0.000111991
3.9809e-05
0.000131355
-1.62108e-05
0.000140858
-1.02264e-05
0.000171671
-9.53902e-05
-7.79547e-05
0.000170918
7.53012e-07
-7.18865e-06
2.30823e-06
-1.26362e-05
5.15713e-06
-1.03374e-05
1.1033e-05
-1.12506e-06
2.09119e-05
1.31466e-05
3.44679e-05
3.33985e-05
4.77862e-05
5.05817e-05
6.12646e-05
5.5054e-05
7.29294e-05
5.90857e-05
8.50358e-05
3.15188e-05
9.85378e-05
2.63071e-05
0.000109507
-2.71798e-05
0.000124962
-2.56816e-05
0.000144818
-0.000115246
-0.00010096
0.000167823
8.16624e-07
-8.00527e-06
2.03943e-06
-1.3859e-05
3.91437e-06
-1.22124e-05
7.45767e-06
-4.66836e-06
1.36067e-05
6.99765e-06
2.32186e-05
2.37865e-05
3.42681e-05
3.95322e-05
4.49402e-05
4.43819e-05
5.58675e-05
4.81584e-05
6.61022e-05
2.12841e-05
7.81725e-05
1.42367e-05
8.63206e-05
-3.53279e-05
0.000113011
-5.2372e-05
0.000137114
-0.000139349
-0.000163397
0.000199551
6.26844e-07
-8.63211e-06
1.21179e-06
-1.4444e-05
1.99539e-06
-1.2996e-05
3.63132e-06
-6.30428e-06
6.70041e-06
3.92856e-06
1.239e-05
1.80969e-05
2.00292e-05
3.18929e-05
2.76481e-05
3.67631e-05
3.59442e-05
3.98623e-05
4.34344e-05
1.37939e-05
5.7852e-05
-1.80857e-07
7.79895e-05
-5.54654e-05
0.000123935
-9.83172e-05
0.000172236
-0.00018765
-0.00023066
0.000239498
1.62116e-07
-8.79423e-06
-2.14614e-07
-1.40673e-05
-7.54967e-07
-1.24556e-05
-9.50401e-07
-6.10885e-06
-5.76304e-07
3.55446e-06
1.79126e-06
1.57294e-05
5.41932e-06
2.82649e-05
9.89726e-06
3.22851e-05
1.54392e-05
3.43204e-05
2.42269e-05
5.00616e-06
5.28707e-05
-2.88247e-05
9.4986e-05
-9.75807e-05
0.000155796
-0.000159127
0.000205022
-0.000236876
-0.000277829
0.000252191
-5.27473e-07
-8.26676e-06
-2.06616e-06
-1.25286e-05
-4.06357e-06
-1.04582e-05
-6.10774e-06
-4.06468e-06
-7.98008e-06
5.4268e-06
-9.22143e-06
1.69707e-05
-9.2955e-06
2.83389e-05
-7.04479e-06
3.00344e-05
2.09664e-06
2.51789e-05
2.52076e-05
-1.81048e-05
7.30887e-05
-7.67057e-05
0.000127511
-0.000152003
0.000183849
-0.000215465
0.000221134
-0.00027416
-0.000313908
0.000257212
-1.3253e-06
-6.94146e-06
-4.09552e-06
-9.75834e-06
-7.56356e-06
-6.9902e-06
-1.13891e-05
-2.39115e-07
-1.53115e-05
9.3492e-06
-1.90757e-05
2.07349e-05
-2.1123e-05
3.03863e-05
-1.66391e-05
2.55505e-05
5.89181e-06
2.64801e-06
4.87397e-05
-6.09528e-05
0.000105163
-0.000133129
0.000155623
-0.000202463
0.000198361
-0.000258203
0.000229751
-0.00030555
-0.000341766
0.000257609
-2.06145e-06
-4.88001e-06
-5.8811e-06
-5.93869e-06
-1.05446e-05
-2.32673e-06
-1.5553e-05
4.76928e-06
-2.0549e-05
1.43453e-05
-2.44598e-05
2.46456e-05
-2.45063e-05
3.04329e-05
-1.10081e-05
1.20523e-05
2.72444e-05
-3.56045e-05
7.97201e-05
-0.000113428
0.000131319
-0.000184728
0.000172814
-0.000243958
0.000206622
-0.000292011
0.000232059
-0.000330986
-0.000362324
0.000252617
-2.55769e-06
-2.32232e-06
-7.0059e-06
-1.49049e-06
-1.21838e-05
2.85117e-06
-1.74206e-05
1.00061e-05
-2.18095e-05
1.87341e-05
-2.3211e-05
2.60471e-05
-1.74018e-05
2.46236e-05
8.855e-06
-1.42045e-05
5.6548e-05
-8.32975e-05
0.000106054
-0.000162934
0.000148965
-0.000227639
0.000183206
-0.000278199
0.000209484
-0.000318289
0.000229396
-0.000350898
-0.000380424
0.000247496
-2.70856e-06
3.8624e-07
-7.23705e-06
3.03801e-06
-1.21915e-05
7.80565e-06
-1.65641e-05
1.43787e-05
-1.89613e-05
2.11314e-05
-1.65888e-05
2.36746e-05
-2.40611e-06
1.0441e-05
3.43146e-05
-5.09252e-05
8.26997e-05
-0.000131683
0.000125672
-0.000205906
0.000160654
-0.000262621
0.00018771
-0.000305255
0.000208413
-0.000338992
0.000225503
-0.000367988
-0.000395305
0.000240383
-2.5202e-06
2.90644e-06
-6.64169e-06
7.1595e-06
-1.07765e-05
1.19404e-05
-1.3594e-05
1.71962e-05
-1.33129e-05
2.08503e-05
-7.43773e-06
1.77994e-05
1.59713e-05
-1.29681e-05
5.89377e-05
-9.38916e-05
0.000102746
-0.00017549
0.000139084
-0.000242245
0.000166913
-0.00029045
0.000188428
-0.000326771
0.000205512
-0.000356076
0.000219493
-0.000381969
-0.000408593
0.000232782
-2.08585e-06
4.99229e-06
-5.47547e-06
1.05491e-05
-8.48141e-06
1.49464e-05
-9.60746e-06
1.83222e-05
-6.96973e-06
1.82126e-05
3.57357e-06
7.25613e-06
3.60922e-05
-4.54867e-05
7.91949e-05
-0.000136994
0.0001175
-0.000213795
0.000147248
-0.000271994
0.000169469
-0.00031267
0.000186753
-0.000344055
0.000200588
-0.000369912
0.000213109
-0.000394489
-0.000420844
0.00022536
-1.53856e-06
6.53085e-06
-4.06565e-06
1.30762e-05
-5.91445e-06
1.67952e-05
-5.54455e-06
1.79523e-05
-1.67619e-06
1.43442e-05
1.59646e-05
-1.03847e-05
5.58421e-05
-8.53642e-05
9.52265e-05
-0.000176379
0.000127379
-0.000245948
0.000151388
-0.000296002
0.000169107
-0.00033039
0.000183094
-0.000358042
0.000195113
-0.000381931
0.0002063
-0.000405676
-0.000431617
0.000217073
-1.00388e-06
7.53473e-06
-2.69945e-06
1.47718e-05
-3.55745e-06
1.76532e-05
-2.07402e-06
1.64689e-05
3.89589e-06
8.3743e-06
3.01675e-05
-3.66563e-05
7.21879e-05
-0.000127385
0.000106985
-0.000211176
0.000133345
-0.000272307
0.000152462
-0.000315119
0.000166743
-0.000344671
0.000178583
-0.000369882
0.00018893
-0.000392278
0.000199016
-0.000415763
-0.000441916
0.000209316
-5.73136e-07
8.10787e-06
-1.57662e-06
1.57753e-05
-1.60473e-06
1.76813e-05
3.50083e-08
1.48292e-05
1.14715e-05
-3.06223e-06
4.60351e-05
-7.12199e-05
8.47511e-05
-0.000166101
0.000114758
-0.000241183
0.000136128
-0.000293677
0.000151368
-0.000330359
0.000163111
-0.000356414
0.00017315
-0.000379921
0.000182428
-0.000401556
0.000191896
-0.000425231
-0.000451112
0.000201092
-2.9526e-07
8.40313e-06
-7.83289e-07
1.62633e-05
-2.17119e-07
1.71151e-05
2.16181e-06
1.24502e-05
2.09568e-05
-2.18572e-05
6.04072e-05
-0.00011067
9.42999e-05
-0.000199993
0.000119196
-0.000266079
0.000136465
-0.000310947
0.00014874
-0.000342633
0.000158526
-0.0003662
0.000167391
-0.000388786
0.000175821
-0.000409986
0.000184394
-0.000433803
-0.000459711
0.000192993
-1.8141e-07
8.58454e-06
-2.52878e-07
1.63348e-05
3.88935e-07
1.64733e-05
5.77685e-06
7.06232e-06
3.32381e-05
-4.93185e-05
7.11091e-05
-0.000148541
0.000100614
-0.000229499
0.000121049
-0.000286513
0.000134974
-0.000324872
0.00014501
-0.000352669
0.000153439
-0.000374629
0.000161284
-0.000396631
0.000168947
-0.00041765
0.000177029
-0.000441885
-0.000467598
0.000184916
-1.93074e-07
8.77761e-06
2.98699e-08
1.61118e-05
4.22842e-07
1.60804e-05
1.17522e-05
-4.26699e-06
4.60641e-05
-8.36305e-05
7.93554e-05
-0.000181832
0.000104201
-0.000254344
0.000120869
-0.000303181
0.000132167
-0.00033617
0.000140569
-0.000361072
0.00014792
-0.00038198
0.000155001
-0.000403713
0.000162125
-0.000424773
0.000169502
-0.000449262
-0.000474756
0.00017666
-2.72178e-07
9.04979e-06
2.14134e-08
1.58182e-05
1.1434e-06
1.49584e-05
1.92734e-05
-2.23969e-05
5.61582e-05
-0.000120515
8.52269e-05
-0.000210901
0.000105639
-0.000274757
0.000119158
-0.0003167
0.000128441
-0.000345452
0.000135605
-0.000368236
0.000142182
-0.000388557
0.000148615
-0.000410146
0.000155121
-0.000431279
0.000161955
-0.000456095
-0.000481414
0.000168613
-2.9764e-07
9.34743e-06
-1.57502e-07
1.56781e-05
3.76442e-06
1.10364e-05
2.9272e-05
-4.79045e-05
6.31574e-05
-0.000154401
8.86444e-05
-0.000236388
0.000105445
-0.000291557
0.000116371
-0.000327627
0.000124076
-0.000353157
0.000130332
-0.000374492
0.000136256
-0.000394481
0.000142109
-0.000416
0.000148156
-0.000437326
0.000154401
-0.00046234
-0.000487367
0.000160355
-3.13595e-07
9.66102e-06
-4.98051e-07
1.58625e-05
8.22684e-06
2.31156e-06
3.92874e-05
-7.89651e-05
6.86456e-05
-0.000183759
9.00374e-05
-0.00025778
0.000103844
-0.000305363
0.000112781
-0.000336563
0.000119299
-0.000359675
0.000124829
-0.000380022
0.00013022
-0.000399872
0.000135585
-0.000421365
0.000141103
-0.000442844
0.000146765
-0.000468002
-0.000492869
0.000152266
-3.42673e-07
1.00037e-05
-5.6308e-07
1.60829e-05
1.33318e-05
-1.15833e-05
4.67884e-05
-0.000112422
7.23938e-05
-0.000209364
8.99972e-05
-0.000275383
0.000101255
-0.000316621
0.000108644
-0.000343953
0.00011424
-0.00036527
0.000119196
-0.000384978
0.000124107
-0.000404783
0.000128986
-0.000426245
0.000134057
-0.000447915
0.000139194
-0.000473139
-0.000497752
0.000144077
-2.32631e-07
1.02363e-05
5.20927e-07
1.53294e-05
2.00543e-05
-3.11166e-05
5.14052e-05
-0.000143773
7.43595e-05
-0.000232319
8.88962e-05
-0.00028992
9.79752e-05
-0.0003257
0.000104115
-0.000350093
0.000109
-0.000370155
0.000113466
-0.000389444
0.000117935
-0.000409252
0.000122387
-0.000430697
0.000126985
-0.000452512
0.000131552
-0.000477707
-0.000502173
0.000135973
-2.15423e-07
1.04518e-05
2.97729e-06
1.21367e-05
2.73284e-05
-5.54678e-05
5.49208e-05
-0.000171365
7.46882e-05
-0.000252086
8.67882e-05
-0.00030202
9.41944e-05
-0.000333107
9.93551e-05
-0.000355253
0.000103647
-0.000374447
0.000107682
-0.000393478
0.000111736
-0.000413306
0.000115747
-0.000434708
0.000119895
-0.00045666
0.000123978
-0.00048179
-0.000506075
0.000127881
-2.65528e-07
1.07173e-05
6.07346e-06
5.79768e-06
3.36288e-05
-8.30231e-05
5.73957e-05
-0.000195132
7.38789e-05
-0.000268569
8.38929e-05
-0.000312034
9.00303e-05
-0.000339244
9.44303e-05
-0.000359653
9.82299e-05
-0.000378247
0.000101864
-0.000397113
0.00010551
-0.000416952
0.000109113
-0.000438311
0.00011281
-0.000460357
0.000116366
-0.000485347
-0.000509529
0.000119821
-2.97707e-07
1.1015e-05
9.32033e-06
-3.82036e-06
3.79467e-05
-0.000111649
5.88022e-05
-0.000215988
7.2314e-05
-0.000282081
8.04704e-05
-0.00032019
8.5595e-05
-0.000344369
8.9408e-05
-0.000363467
9.27795e-05
-0.000381618
9.6032e-05
-0.000400365
9.92838e-05
-0.000420204
0.000102468
-0.000441494
0.000105713
-0.000463602
0.00010881
-0.000488444
-0.000512552
0.000111833
-2.89028e-07
1.1304e-05
1.29155e-05
-1.70248e-05
4.00946e-05
-0.000138829
5.90181e-05
-0.000234911
7.01897e-05
-0.000293252
7.67502e-05
-0.000326751
8.10091e-05
-0.000348628
8.43211e-05
-0.000366778
8.73113e-05
-0.000384608
9.01981e-05
-0.000403252
9.30549e-05
-0.00042306
9.5835e-05
-0.000444274
9.86417e-05
-0.000466409
0.000101258
-0.00049106
-0.000515151
0.000103856
-2.56792e-07
1.15608e-05
1.70355e-05
-3.43171e-05
4.1294e-05
-0.000163087
5.80609e-05
-0.000251678
6.75178e-05
-0.000302709
7.28291e-05
-0.000332062
7.63545e-05
-0.000352153
7.92187e-05
-0.000369643
8.18452e-05
-0.000387235
8.437e-05
-0.000405777
8.68408e-05
-0.000425531
8.92126e-05
-0.000446646
9.15757e-05
-0.000468772
9.37542e-05
-0.000493238
-0.000517341
9.59443e-05
2.81031e-07
1.12798e-05
2.05122e-05
-5.45483e-05
4.20186e-05
-0.000184594
5.63788e-05
-0.000266038
6.43611e-05
-0.000310691
6.87509e-05
-0.000336452
7.16828e-05
-0.000355085
7.41267e-05
-0.000372087
7.63933e-05
-0.000389501
7.85588e-05
-0.000407942
8.06422e-05
-0.000427615
8.26128e-05
-0.000448617
8.45472e-05
-0.000470707
8.62805e-05
-0.000494971
-0.00051909
8.80302e-05
1.09152e-06
1.01883e-05
2.32736e-05
-7.67304e-05
4.21355e-05
-0.000203455
5.42486e-05
-0.000278151
6.08821e-05
-0.000317325
6.4542e-05
-0.000340112
6.7003e-05
-0.000357546
6.90657e-05
-0.000374149
7.09727e-05
-0.000391408
7.27722e-05
-0.000409742
7.44709e-05
-0.000429313
7.6039e-05
-0.000450185
7.7539e-05
-0.000472206
7.88455e-05
-0.000496278
-0.000520424
8.01795e-05
2.35904e-06
7.82921e-06
2.51699e-05
-9.95412e-05
4.18056e-05
-0.000220091
5.18462e-05
-0.000288192
5.72425e-05
-0.000322721
6.0267e-05
-0.000343137
6.23276e-05
-0.000359606
6.40366e-05
-0.000375858
6.55876e-05
-0.000392959
6.70199e-05
-0.000411174
6.83311e-05
-0.000430625
6.9499e-05
-0.000451353
7.05742e-05
-0.000473282
7.14399e-05
-0.000497144
-0.000521281
7.22968e-05
4.09696e-06
3.73225e-06
2.62111e-05
-0.000121655
4.10489e-05
-0.000234929
4.92652e-05
-0.000296408
5.35444e-05
-0.000327
5.59781e-05
-0.00034557
5.76676e-05
-0.000361296
5.90432e-05
-0.000377234
6.02449e-05
-0.000394161
6.13072e-05
-0.000412237
6.22311e-05
-0.000431548
6.29977e-05
-0.000452119
6.36423e-05
-0.000473926
6.40689e-05
-0.00049757
-0.000521676
6.44637e-05
6.12588e-06
-2.39362e-06
2.63474e-05
-0.000141877
3.97875e-05
-0.000248369
4.65498e-05
-0.000303171
4.9846e-05
-0.000330297
5.17219e-05
-0.000347446
5.30436e-05
-0.000362618
5.40884e-05
-0.000378279
5.49445e-05
-0.000395017
5.56398e-05
-0.000412932
5.61756e-05
-0.000432084
5.654e-05
-0.000452484
5.67601e-05
-0.000474146
5.67452e-05
-0.000497555
-0.000521587
5.66566e-05
8.35759e-06
-1.07512e-05
2.62885e-05
-0.000159808
3.80523e-05
-0.000260133
4.36626e-05
-0.000308781
4.61573e-05
-0.000332791
4.75196e-05
-0.000348808
4.84695e-05
-0.000363568
4.91805e-05
-0.00037899
4.96931e-05
-0.00039553
5.0022e-05
-0.000413261
5.017e-05
-0.000432232
5.01298e-05
-0.000452444
4.99213e-05
-0.000473938
4.94717e-05
-0.000497106
-0.000521027
4.89112e-05
1.02249e-05
-2.09761e-05
2.61216e-05
-0.000175705
3.60565e-05
-0.000270068
4.06027e-05
-0.000313327
4.24602e-05
-0.000334649
4.33749e-05
-0.000349723
4.39583e-05
-0.000364151
4.43278e-05
-0.000379359
4.44942e-05
-0.000395696
4.44592e-05
-0.000413226
4.42205e-05
-0.000431993
4.3773e-05
-0.000451996
4.31367e-05
-0.000473302
4.22572e-05
-0.000496226
-0.000519983
4.12136e-05
1.14731e-05
-3.24491e-05
2.55995e-05
-0.000189831
3.38643e-05
-0.000278332
3.74239e-05
-0.000316887
3.87476e-05
-0.000335973
3.92792e-05
-0.000350255
3.95123e-05
-0.000364384
3.95384e-05
-0.000379385
3.93566e-05
-0.000395514
3.89576e-05
-0.000412827
3.83339e-05
-0.00043137
3.74781e-05
-0.00045114
3.64062e-05
-0.00047223
3.50951e-05
-0.000494915
-0.000518474
3.35856e-05
1.21183e-05
-4.45675e-05
2.47153e-05
-0.000202428
3.15267e-05
-0.000285144
3.42004e-05
-0.00031956
3.50476e-05
-0.00033682
3.52339e-05
-0.000350441
3.51333e-05
-0.000364283
3.48172e-05
-0.000379069
3.42845e-05
-0.000394982
3.35225e-05
-0.000412065
3.25182e-05
-0.000430365
3.1259e-05
-0.000449881
2.97514e-05
-0.000470722
2.79867e-05
-0.00049315
-0.000516503
2.60159e-05
1.22574e-05
-5.68249e-05
2.35088e-05
-0.000213679
2.90706e-05
-0.000290706
3.0974e-05
-0.000321464
3.1385e-05
-0.000337231
3.12444e-05
-0.0003503
3.08213e-05
-0.00036386
3.01677e-05
-0.000378416
2.92848e-05
-0.000394099
2.81597e-05
-0.00041094
2.6778e-05
-0.000428984
2.51269e-05
-0.00044823
2.31968e-05
-0.000468792
2.09366e-05
-0.00049089
-0.000514073
1.85067e-05
1.20309e-05
-6.88557e-05
2.2052e-05
-0.0002237
2.65373e-05
-0.000295191
2.77744e-05
-0.000322701
2.77808e-05
-0.000337237
2.73207e-05
-0.00034984
2.65802e-05
-0.00036312
2.55926e-05
-0.000377428
2.43607e-05
-0.000392867
2.28737e-05
-0.000409453
2.11169e-05
-0.000427227
1.90829e-05
-0.000446196
1.67634e-05
-0.000466473
1.39954e-05
-0.000488122
-0.000511117
1.10394e-05
1.15525e-05
-8.04082e-05
2.0414e-05
-0.000232562
2.39576e-05
-0.000298735
2.46169e-05
-0.00032336
2.42477e-05
-0.000336868
2.34712e-05
-0.000349064
2.2414e-05
-0.000362063
2.10953e-05
-0.000376109
1.95173e-05
-0.000391289
1.76695e-05
-0.000407605
1.55378e-05
-0.000425095
1.31207e-05
-0.000443779
1.04234e-05
-0.000463775
7.25746e-06
-0.000484956
-0.000507417
3.55729e-06
1.08995e-05
-9.13078e-05
1.86567e-05
-0.000240319
2.13685e-05
-0.000301446
2.15194e-05
-0.000323511
2.07962e-05
-0.000336145
1.97035e-05
-0.000347971
1.83283e-05
-0.000360687
1.6679e-05
-0.00037446
1.4757e-05
-0.000389367
1.25501e-05
-0.000405398
1.00465e-05
-0.000422592
7.24765e-06
-0.00044098
4.11191e-06
-0.00046064
9.07746e-07
-0.000481752
-0.000502945
-3.56435e-06
1.01112e-05
-0.000101419
1.68285e-05
-0.000247036
1.88008e-05
-0.000303419
1.84956e-05
-0.000323206
1.74331e-05
-0.000335082
1.60228e-05
-0.000346561
1.43271e-05
-0.000358992
1.23472e-05
-0.00037248
1.0082e-05
-0.000387102
7.51676e-06
-0.000402833
4.64714e-06
-0.000419722
1.44246e-06
-0.000437775
-2.07608e-06
-0.000457121
-5.85391e-06
-0.000477974
-0.000498496
-1.03031e-05
9.18174e-06
-0.000110601
1.49743e-05
-0.000252829
1.62847e-05
-0.000304729
1.55595e-05
-0.000322481
1.41632e-05
-0.000333686
1.2433e-05
-0.000344831
1.04132e-05
-0.000356972
8.1013e-06
-0.000370168
5.4888e-06
-0.000384489
2.56465e-06
-0.000399908
-6.63036e-07
-0.000416494
-4.18382e-06
-0.000434255
-7.97434e-06
-0.00045333
-1.2381e-05
-0.000473568
-0.000493863
-1.70136e-05
8.30432e-06
-0.000118905
1.31409e-05
-0.000257665
1.38343e-05
-0.000305422
1.27134e-05
-0.00032136
1.09881e-05
-0.000331961
8.93564e-06
-0.000342778
6.58585e-06
-0.000354622
3.93776e-06
-0.00036752
9.60051e-07
-0.000381511
-2.27794e-06
-0.00039667
-5.83142e-06
-0.000412941
-9.69078e-06
-0.000430395
-1.38765e-05
-0.000449145
-1.8705e-05
-0.000468739
-0.000488917
-2.36517e-05
7.44971e-06
-0.000126355
1.13582e-05
-0.000261574
1.14619e-05
-0.000305526
9.9578e-06
-0.000319856
7.90807e-06
-0.000329911
5.5295e-06
-0.0003404
2.83969e-06
-0.000351932
-1.79798e-07
-0.000364501
-3.41717e-06
-0.000378274
-7.00199e-06
-0.000393086
-1.09034e-05
-0.00040904
-1.51165e-05
-0.000426182
-1.97206e-05
-0.000444541
-2.48763e-05
-0.000463583
-0.000483605
-3.01884e-05
6.60879e-06
-0.000132964
9.63889e-06
-0.000264604
9.17546e-06
-0.000305063
7.29633e-06
-0.000317977
4.92102e-06
-0.000327536
2.20318e-06
-0.000337682
-8.20175e-07
-0.000348909
-4.08684e-06
-0.000361234
-7.7001e-06
-0.000374661
-1.16308e-05
-0.000389155
-1.58762e-05
-0.000404794
-2.04573e-05
-0.000421601
-2.54885e-05
-0.000439509
-3.0926e-05
-0.000458146
-0.000477924
-3.6607e-05