/*--------------------------------*- C++ -*----------------------------------*\
  =========                 |
  \\      /  F ield         | OpenFOAM: The Open Source CFD Toolbox
   \\    /   O peration     | Website:  https://openfoam.org
    \\  /    A nd           | Version:  7
     \\/     M anipulation  |
\*---------------------------------------------------------------------------*/
FoamFile
{
    version     2.0;
    format      ascii;
    class       volVectorField;
    location    "31.0002";
    object      U;
}
// * * * * * * * * * * * * * * * * * * * * * * * * * * * * * * * * * * * * * //

dimensions      [0 1 -1 0 0 0 0];

internalField   nonuniform List<vector> 
18750
(
(-0.0343873 0.040549 -6.05104e-21)
(-0.122017 0.0521205 2.15152e-21)
(-0.217814 0.0513573 2.44239e-20)
(-0.301912 0.0510496 5.76756e-21)
(-0.385488 0.050982 -1.44044e-20)
(-0.464019 0.0510457 -3.55116e-20)
(-0.540519 0.051126 3.73573e-20)
(-0.613061 0.0511447 2.50244e-20)
(-0.683001 0.0510448 -1.89167e-20)
(-0.749327 0.0507946 -5.15956e-20)
(-0.812867 0.0503541 1.98383e-19)
(-0.87286 0.0496553 -1.65105e-19)
(-0.929661 0.0486298 9.91067e-20)
(-0.982603 0.047288 -1.96236e-19)
(-1.03203 0.0457831 4.57684e-20)
(-0.0361593 0.0835259 3.43375e-21)
(-0.12353 0.105635 6.96996e-21)
(-0.218228 0.101874 4.49418e-21)
(-0.301271 0.0991259 3.99817e-20)
(-0.383768 0.0968801 8.36568e-20)
(-0.461184 0.094954 1.12559e-19)
(-0.536466 0.0931015 -9.75085e-20)
(-0.607652 0.0912089 1.62316e-19)
(-0.676038 0.0891797 1.53254e-19)
(-0.740586 0.0870025 -5.06312e-20)
(-0.802113 0.0846473 -2.10682e-19)
(-0.859851 0.0820569 9.62524e-21)
(-0.914096 0.0791431 4.82175e-20)
(-0.96404 0.0759653 1.27574e-19)
(-1.00991 0.072869 -1.97547e-19)
(-0.039355 0.125344 1.26336e-20)
(-0.12621 0.15816 2.08338e-20)
(-0.218876 0.151595 -6.39428e-20)
(-0.299968 0.146476 5.19149e-21)
(-0.380484 0.142104 -1.55438e-19)
(-0.455867 0.138209 5.26272e-20)
(-0.528958 0.134421 -1.5057e-19)
(-0.597741 0.13059 -1.61445e-20)
(-0.663428 0.12658 -1.16541e-19)
(-0.724942 0.1224 3.58217e-19)
(-0.783091 0.118036 4.80856e-19)
(-0.837119 0.113466 4.28766e-19)
(-0.88726 0.108621 2.54446e-19)
(-0.932536 0.103602 1.73305e-19)
(-0.973016 0.0988207 -3.251e-19)
(-0.0438581 0.165352 -7.28072e-20)
(-0.129975 0.20913 8.70217e-20)
(-0.219732 0.200068 -6.55397e-20)
(-0.298026 0.1927 -1.36813e-19)
(-0.375714 0.186294 2.38071e-19)
(-0.448221 0.180479 -2.21915e-19)
(-0.518241 0.174773 3.32196e-19)
(-0.583704 0.168997 -2.85083e-19)
(-0.645716 0.162981 2.04688e-19)
(-0.703169 0.156752 -5.03342e-19)
(-0.756861 0.150324 -7.30416e-19)
(-0.806078 0.143732 4.20982e-20)
(-0.851021 0.136954 -1.40248e-19)
(-0.890557 0.130138 -3.10351e-19)
(-0.924602 0.123698 1.19361e-18)
(-0.0495073 0.202935 -5.78928e-20)
(-0.134705 0.257993 1.29964e-19)
(-0.220755 0.246863 2.86005e-20)
(-0.295466 0.237426 1.07893e-19)
(-0.369565 0.22912 -1.4557e-19)
(-0.43845 0.221465 6.35965e-20)
(-0.504641 0.213883 7.96252e-19)
(-0.566022 0.206179 1.25205e-19)
(-0.623589 0.198154 2.26856e-19)
(-0.676209 0.189859 -8.14261e-20)
(-0.724688 0.181345 6.67728e-20)
(-0.76839 0.172725 -2.80822e-20)
(-0.807535 0.164048 -8.08456e-19)
(-0.840877 0.155493 -4.56625e-19)
(-0.86819 0.147431 -1.35486e-18)
(-0.056126 0.237556 1.30444e-19)
(-0.140265 0.304214 4.53923e-20)
(-0.221884 0.291584 -6.2255e-20)
(-0.292309 0.280323 -4.63499e-20)
(-0.362158 0.270292 4.97703e-20)
(-0.426789 0.260908 -6.77641e-19)
(-0.48853 0.251524 -8.4328e-20)
(-0.545235 0.241933 4.32829e-20)
(-0.597797 0.231924 -3.30874e-19)
(-0.645071 0.221576 -4.62159e-19)
(-0.687883 0.210986 3.40149e-19)
(-0.725717 0.200367 -3.39309e-19)
(-0.758871 0.189858 1.0632e-18)
(-0.786059 0.179673 -8.40124e-19)
(-0.806906 0.170106 1.85212e-18)
(-0.063506 0.268669 -1.18612e-19)
(-0.146469 0.347281 -2.00345e-19)
(-0.223014 0.33389 7.9942e-20)
(-0.288567 0.321103 6.07823e-19)
(-0.353623 0.309563 6.18629e-19)
(-0.413487 0.298598 -2.18231e-19)
(-0.470296 0.287516 1.13125e-19)
(-0.521895 0.276114 7.40599e-20)
(-0.569086 0.26418 7.22515e-19)
(-0.610729 0.251831 1.00632e-18)
(-0.647676 0.239218 -4.91662e-19)
(-0.679558 0.226664 -9.58359e-19)
(-0.706818 0.214419 -1.79656e-18)
(-0.728201 0.202755 3.11774e-19)
(-0.74318 0.19187 -2.27053e-18)
(-0.0713904 0.295714 -1.06136e-19)
(-0.153105 0.386774 -1.2462e-19)
(-0.224026 0.373502 -8.93054e-19)
(-0.284248 0.359532 3.20342e-19)
(-0.344083 0.346729 -3.69723e-19)
(-0.398791 0.334369 2.54414e-19)
(-0.450318 0.321731 2.77414e-19)
(-0.496529 0.308629 -1.20742e-18)
(-0.538148 0.29487 -8.1157e-19)
(-0.574062 0.280617 -1.38632e-18)
(-0.605142 0.26608 -2.30078e-19)
(-0.631178 0.251694 1.01886e-18)
(-0.652798 0.237838 4.0269e-18)
(-0.668859 0.224869 -6.23437e-19)
(-0.678681 0.212896 1.11421e-18)
(-0.0794578 0.318174 5.69099e-19)
(-0.159918 0.422322 2.28345e-19)
(-0.224794 0.410201 9.82943e-19)
(-0.279351 0.395428 -7.18067e-19)
(-0.333653 0.381637 3.42529e-19)
(-0.382928 0.368099 -5.73716e-19)
(-0.428945 0.354083 -1.32852e-18)
(-0.469611 0.33943 1.18805e-18)
(-0.505592 0.323984 1.44041e-19)
(-0.535815 0.307965 2.07535e-18)
(-0.561161 0.291646 -6.82961e-19)
(-0.581564 0.275567 -3.11941e-18)
(-0.597856 0.260244 -1.91794e-18)
(-0.609075 0.246147 2.01527e-19)
(-0.6144 0.233326 -9.442e-19)
(-0.0873334 0.3356 -4.7472e-19)
(-0.166609 0.453617 -2.69184e-19)
(-0.225183 0.443822 3.46071e-19)
(-0.273873 0.428656 5.39041e-20)
(-0.322434 0.414172 -1.3448e-19)
(-0.366105 0.399709 -1.56619e-19)
(-0.406489 0.384526 6.05971e-19)
(-0.441557 0.368505 -7.30526e-19)
(-0.471929 0.351543 7.24204e-19)
(-0.496589 0.333929 9.17712e-19)
(-0.516414 0.316005 -1.6378e-18)
(-0.531452 0.298403 3.12228e-18)
(-0.542715 0.281766 3.66587e-19)
(-0.549476 0.266708 5.07733e-19)
(-0.550825 0.253266 1.17212e-18)
(-0.0945954 0.347607 8.94028e-19)
(-0.172843 0.480388 -2.92783e-19)
(-0.225051 0.474243 -1.29367e-18)
(-0.267801 0.459117 5.12848e-19)
(-0.31051 0.444259 -2.96076e-19)
(-0.348497 0.429152 3.46922e-19)
(-0.383216 0.413042 2.60295e-18)
(-0.412713 0.395865 1.26619e-18)
(-0.437573 0.377585 8.47444e-19)
(-0.456851 0.358575 -2.85373e-18)
(-0.471408 0.339247 3.14543e-18)
(-0.481357 0.320314 1.16521e-18)
(-0.48784 0.302523 -1.88531e-18)
(-0.490385 0.286643 2.29284e-18)
(-0.488098 0.272756 -7.92661e-20)
(-0.10076 0.353863 1.8457e-19)
(-0.17827 0.502496 4.51695e-20)
(-0.224261 0.501361 -8.96901e-20)
(-0.261122 0.486753 -9.16402e-19)
(-0.297942 0.471861 1.83254e-18)
(-0.330251 0.456411 -9.36659e-19)
(-0.359351 0.439639 -2.76459e-18)
(-0.383366 0.421543 8.61672e-19)
(-0.402854 0.402167 -1.37466e-18)
(-0.416953 0.381975 2.14833e-18)
(-0.426495 0.361457 -3.90293e-18)
(-0.431623 0.341395 3.09782e-19)
(-0.43352 0.322608 1.68475e-18)
(-0.431942 0.306 -3.55322e-18)
(-0.426196 0.291779 -8.37933e-19)
(-0.105247 0.354073 -5.92663e-19)
(-0.182523 0.519772 1.69246e-19)
(-0.22269 0.525067 5.23123e-19)
(-0.253799 0.511532 -2.45917e-20)
(-0.284784 0.496972 -2.50375e-18)
(-0.311491 0.481498 2.39843e-19)
(-0.335074 0.464338 9.00492e-19)
(-0.353741 0.445575 -2.46521e-18)
(-0.368022 0.425338 1.87286e-18)
(-0.377142 0.404186 -1.73402e-18)
(-0.381907 0.382696 4.7778e-18)
(-0.382459 0.361713 -1.99747e-18)
(-0.379935 0.342091 2.45274e-18)
(-0.37422 0.324827 4.99689e-18)
(-0.365002 0.310292 2.17087e-18)
(-0.10761 0.348553 -2.36126e-19)
(-0.185281 0.532221 -5.97697e-21)
(-0.220249 0.545216 -1.9613e-20)
(-0.245802 0.533474 -6.05109e-20)
(-0.27106 0.519617 -1.22853e-18)
(-0.292311 0.504433 -5.47919e-19)
(-0.310534 0.487171 8.86756e-19)
(-0.324021 0.468011 5.43621e-19)
(-0.333275 0.44716 -3.16542e-18)
(-0.337611 0.425274 -1.79008e-19)
(-0.337797 0.403021 -9.37562e-19)
(-0.333977 0.381316 1.92697e-18)
(-0.327201 0.361038 -2.7082e-18)
(-0.317283 0.343162 -3.82903e-19)
(-0.304333 0.328122 -2.45582e-18)
(-0.107538 0.337432 1.05643e-18)
(-0.186179 0.53944 -9.4182e-19)
(-0.216792 0.561752 -1.27295e-18)
(-0.237048 0.552601 2.26489e-18)
(-0.256814 0.539837 1.99575e-18)
(-0.272799 0.525262 2.56562e-18)
(-0.28585 0.508177 1.1147e-19)
(-0.294343 0.488883 1.77677e-18)
(-0.298755 0.467665 2.39876e-18)
(-0.298481 0.445271 3.61477e-18)
(-0.294252 0.422452 -1.68729e-18)
(-0.286214 0.400209 3.57521e-18)
(-0.275361 0.379454 -1.66915e-20)
(-0.26131 0.361042 -1.82779e-18)
(-0.2439 0.345269 -4.57276e-18)
(-0.104827 0.320694 -6.71262e-19)
(-0.184921 0.54119 1.04041e-18)
(-0.212198 0.574691 6.92528e-19)
(-0.22753 0.568983 -2.13899e-18)
(-0.242053 0.557711 -9.96136e-19)
(-0.253021 0.544015 -1.83572e-19)
(-0.261124 0.527391 -1.36309e-18)
(-0.264828 0.508239 -2.34848e-18)
(-0.264583 0.486901 -4.04218e-18)
(-0.259873 0.464225 -1.7703e-18)
(-0.251355 0.441028 2.50647e-18)
(-0.239164 0.418395 -5.26632e-18)
(-0.224373 0.397322 1.85738e-19)
(-0.206526 0.378511 3.3931e-18)
(-0.183481 0.361997 4.90772e-18)
(-0.0993247 0.298383 -1.62085e-18)
(-0.181322 0.537345 1.25369e-18)
(-0.206307 0.583917 -2.15692e-18)
(-0.217266 0.582728 -1.03858e-18)
(-0.226856 0.573326 -5.69318e-20)
(-0.233052 0.560751 1.43149e-18)
(-0.236448 0.54486 2.32871e-18)
(-0.235568 0.526093 7.77963e-19)
(-0.230843 0.504871 1.14003e-18)
(-0.221828 0.482112 -3.23253e-18)
(-0.209148 0.458715 9.26535e-20)
(-0.192852 0.435845 -2.53488e-18)
(-0.174095 0.414553 -1.88361e-18)
(-0.152935 0.395454 -5.42995e-18)
(-0.123867 0.378788 -6.63079e-20)
(-0.0910152 0.270741 1.42654e-18)
(-0.175298 0.527769 2.26149e-19)
(-0.199036 0.58926 3.32663e-19)
(-0.206241 0.593811 2.57254e-18)
(-0.211272 0.586728 1.08868e-18)
(-0.212987 0.575546 -1.3339e-18)
(-0.211911 0.560643 1.05586e-18)
(-0.206677 0.542495 -6.18246e-19)
(-0.197648 0.521604 -1.24962e-18)
(-0.184456 0.498944 1.41951e-18)
(-0.167695 0.475531 -4.8525e-18)
(-0.147313 0.452566 -2.03815e-19)
(-0.124506 0.431163 -2.79683e-18)
(-0.100383 0.411883 4.33833e-18)
(-0.0649612 0.395816 4.02695e-19)
(-0.0801397 0.238245 -5.48187e-19)
(-0.166867 0.512237 -1.53023e-18)
(-0.190388 0.59045 3.9948e-19)
(-0.194472 0.602146 -2.97049e-18)
(-0.195345 0.597932 -2.02393e-18)
(-0.192883 0.588419 -1.14468e-18)
(-0.187604 0.574714 -2.01171e-18)
(-0.178221 0.557399 1.9547e-18)
(-0.165075 0.537061 2.77636e-18)
(-0.147819 0.514714 5.46298e-18)
(-0.12707 0.491464 -2.53064e-19)
(-0.10264 0.468547 6.25425e-18)
(-0.0754762 0.447092 2.47599e-18)
(-0.0490852 0.427757 1.95654e-18)
(-0.00600678 0.413241 -4.3363e-18)
(-0.0673343 0.201605 9.45403e-19)
(-0.15617 0.490393 2.33002e-18)
(-0.1804 0.58704 1.59037e-18)
(-0.182022 0.607567 2.07115e-18)
(-0.179144 0.606939 5.35141e-21)
(-0.172831 0.599372 8.15226e-19)
(-0.163596 0.587071 2.04636e-20)
(-0.150309 0.570791 -1.51143e-18)
(-0.133193 0.551187 2.37944e-18)
(-0.111983 0.529343 -8.35172e-18)
(-0.0873316 0.506465 2.46554e-18)
(-0.0589804 0.483757 -1.63734e-18)
(-0.0268462 0.462351 3.24035e-19)
(0.00075971 0.442886 -2.47812e-18)
(0.0531897 0.431044 -2.81058e-18)
(-0.0537864 0.161832 -1.54239e-18)
(-0.143477 0.461713 2.04796e-18)
(-0.169117 0.578385 -5.08397e-19)
(-0.168959 0.609783 -8.79215e-19)
(-0.162776 0.613694 1.836e-18)
(-0.152912 0.608413 1.93853e-19)
(-0.140019 0.597685 -5.48105e-19)
(-0.123012 0.582618 -6.44029e-20)
(-0.102136 0.56395 -1.53658e-18)
(-0.0770119 0.542766 4.00856e-18)
(-0.0484595 0.520372 2.47674e-18)
(-0.0166075 0.498126 1.31882e-18)
(0.0216264 0.47682 -1.25009e-19)
(0.0488006 0.456686 3.19093e-18)
(0.112886 0.449889 -2.89839e-19)
(-0.0411704 0.120518 4.51351e-19)
(-0.129162 0.425519 -4.8821e-19)
(-0.15655 0.563665 3.8322e-19)
(-0.155347 0.608325 1.62837e-18)
(-0.146343 0.618046 -1.03991e-18)
(-0.133278 0.615485 -6.79995e-19)
(-0.116947 0.606555 -1.27715e-18)
(-0.0964979 0.59284 1.01282e-18)
(-0.0719911 0.575216 -1.06061e-18)
(-0.0430817 0.554831 -1.23144e-18)
(-0.0103861 0.533051 -2.13812e-18)
(0.0241613 0.511503 -1.24772e-18)
(0.0701464 0.490786 4.59874e-18)
(0.0948137 0.468322 -6.34791e-18)
(0.173067 0.469301 -1.72367e-19)
(-0.0308079 0.0802311 1.93036e-18)
(-0.113602 0.38109 -7.47976e-19)
(-0.142668 0.541967 -1.93674e-18)
(-0.141223 0.602503 -5.15862e-19)
(-0.129976 0.619657 2.72718e-18)
(-0.114017 0.62051 -5.8191e-20)
(-0.094601 0.613579 1.33009e-18)
(-0.0708179 0.601361 -7.31187e-19)
(-0.0429689 0.584938 -2.87296e-18)
(-0.0104108 0.565445 6.69964e-18)
(0.02706 0.544174 -4.96381e-18)
(0.0628446 0.523527 1.48227e-18)
(0.119018 0.504471 -6.54638e-18)
(0.138235 0.477184 2.31692e-18)
(0.233881 0.489028 1.91306e-18)
(-0.0224745 0.0442838 -6.88637e-19)
(-0.0970161 0.328008 -2.206e-18)
(-0.127411 0.512384 9.97488e-19)
(-0.126618 0.591348 1.76612e-19)
(-0.11376 0.617986 -2.45471e-18)
(-0.0953362 0.62323 1.52092e-18)
(-0.0730305 0.618742 8.03726e-20)
(-0.0462908 0.608073 -3.74237e-19)
(-0.0150375 0.592817 -2.94165e-18)
(0.0204343 0.574468 -3.40063e-19)
(0.0641307 0.553698 3.96188e-18)
(0.0990237 0.533515 3.34702e-19)
(0.168582 0.518842 9.48255e-19)
(0.178848 0.48215 2.73801e-18)
(0.293966 0.506512 -7.00815e-18)
(-0.014607 0.0156144 -1.044e-18)
(-0.0796857 0.266898 3.24973e-20)
(-0.110757 0.474055 -1.26368e-18)
(-0.111547 0.573577 1.02393e-18)
(-0.0978192 0.612187 1.38953e-18)
(-0.0772951 0.623334 -1.04325e-18)
(-0.0526115 0.621744 -1.80601e-19)
(-0.0229405 0.612901 -8.78532e-19)
(0.0116051 0.598802 2.19825e-18)
(0.0490295 0.581614 4.23259e-19)
(0.100887 0.561348 -5.73962e-18)
(0.131898 0.540078 1.56926e-18)
(0.219299 0.534675 9.81569e-19)
(0.217716 0.486433 -4.4252e-18)
(0.352523 0.517707 1.01101e-18)
(-0.00617345 -0.00422221 2.35869e-19)
(-0.0624934 0.200596 6.33878e-19)
(-0.0929432 0.426111 1.18345e-18)
(-0.0960353 0.547645 -9.99717e-19)
(-0.0822297 0.601121 -3.93371e-20)
(-0.0601937 0.62015 2.52632e-18)
(-0.0332567 0.622495 -1.16907e-19)
(-0.00160131 0.615512 -5.20369e-21)
(0.0374585 0.60237 3.57265e-18)
(0.0743513 0.5867 -2.05205e-18)
(0.137875 0.568145 1.47673e-18)
(0.160629 0.540937 -4.1791e-18)
(0.269683 0.549236 3.61803e-19)
(0.256771 0.493857 -1.12065e-18)
(0.409351 0.525377 1.92903e-18)
(0.00196244 -0.0154426 -1.76364e-19)
(-0.0463648 0.135164 7.91041e-19)
(-0.074593 0.367905 -1.05076e-18)
(-0.0801651 0.511817 2.21007e-18)
(-0.0671366 0.583288 -1.85617e-18)
(-0.0441507 0.612785 -1.66139e-18)
(-0.0155141 0.620136 -1.0353e-18)
(0.0177688 0.616079 -2.23934e-18)
(0.0619335 0.603501 -4.35859e-18)
(0.0963599 0.587956 6.63957e-19)
(0.174356 0.575209 3.44892e-18)
(0.186303 0.537447 2.77533e-18)
(0.317849 0.556481 4.76233e-19)
(0.295181 0.502661 -2.33415e-18)
(0.465164 0.530594 -1.18503e-18)
(0.00827452 -0.0202091 4.23119e-19)
(-0.0309097 0.078614 7.41446e-19)
(-0.0563432 0.299734 -3.16362e-18)
(-0.0641647 0.464612 -2.18533e-18)
(-0.0527059 0.556777 -6.46745e-20)
(-0.0297071 0.599801 1.74592e-18)
(0.00103648 0.614131 -6.42648e-19)
(0.0333442 0.613161 4.97923e-18)
(0.0861684 0.602605 4.10399e-19)
(0.113489 0.584604 -2.81201e-18)
(0.210444 0.581575 -2.65421e-18)
(0.208761 0.532735 -4.25822e-18)
(0.363068 0.556041 4.70378e-18)
(0.33219 0.506709 3.14167e-18)
(0.51724 0.531534 -9.75917e-21)
(0.012275 -0.0213166 -1.17826e-18)
(-0.0153067 0.0365071 -2.18359e-18)
(-0.038909 0.223924 1.57473e-18)
(-0.0484732 0.405009 1.92713e-18)
(-0.0391179 0.51945 1.19865e-18)
(-0.0173763 0.579094 -1.21663e-18)
(0.0155985 0.602743 3.11213e-18)
(0.0461616 0.606992 -4.44893e-18)
(0.107033 0.598906 4.95842e-18)
(0.128127 0.574066 3.18971e-18)
(0.241276 0.585431 -9.96988e-19)
(0.233983 0.529268 -1.40481e-18)
(0.396468 0.548285 -1.88363e-18)
(0.374964 0.508828 -3.77569e-18)
(0.557499 0.519743 4.55126e-18)
(0.0143725 -0.0207729 3.31823e-18)
(-0.000558998 0.00897471 2.54576e-18)
(-0.0231934 0.148411 5.78223e-19)
(-0.033904 0.333467 -3.35461e-20)
(-0.0267143 0.4689 -4.1594e-19)
(-0.00780329 0.548443 -4.89633e-19)
(0.0280644 0.583918 -2.4324e-18)
(0.0536118 0.593262 4.23533e-18)
(0.127476 0.596788 -3.31889e-18)
(0.136853 0.556845 -2.91224e-20)
(0.264266 0.575251 3.22032e-18)
(0.262321 0.531429 2.27543e-18)
(0.41521 0.525967 2.27012e-18)
(0.41575 0.515077 -2.58679e-20)
(0.595771 0.493692 -2.71406e-18)
(0.0154362 -0.0196372 -1.99125e-18)
(0.011624 -0.00708886 -2.06562e-18)
(-0.00845639 0.0857828 6.41036e-19)
(-0.0210949 0.253789 -1.03775e-18)
(-0.0156732 0.403817 -4.89919e-19)
(-0.00193435 0.504352 1.76543e-18)
(0.0375012 0.556703 -4.66604e-19)
(0.0574388 0.569111 -4.33838e-19)
(0.136537 0.585069 -1.34095e-18)
(0.158123 0.550373 -3.10353e-18)
(0.25745 0.543697 1.44098e-18)
(0.313059 0.533387 -1.71209e-18)
(0.398183 0.498722 -2.63651e-18)
(0.49843 0.51379 -1.19653e-18)
(0.552331 0.458472 4.83143e-18)
(0.0164934 -0.0183192 2.24431e-18)
(0.0212918 -0.0154637 -1.76322e-18)
(0.00649161 0.0429835 -2.89893e-18)
(-0.0094219 0.1753 2.97266e-19)
(-0.00629097 0.326093 6.9748e-19)
(0.000610441 0.444445 -4.9148e-19)
(0.0406398 0.516181 1.3412e-18)
(0.0600654 0.537301 2.8447e-19)
(0.133283 0.556583 -2.00998e-19)
(0.173616 0.53507 9.72014e-20)
(0.260129 0.528615 -1.49567e-18)
(0.322136 0.493039 1.93825e-19)
(0.429063 0.505673 8.49773e-19)
(0.48384 0.454818 -6.68993e-19)
(0.613016 0.472245 4.53122e-18)
(0.018237 -0.0171544 4.70739e-19)
(0.0297228 -0.0193918 -1.01053e-18)
(0.0208965 0.0178196 2.81944e-18)
(0.00259872 0.110702 2.18221e-18)
(0.0013822 0.243711 -2.19038e-18)
(0.000324658 0.369854 -1.47967e-19)
(0.0368673 0.459311 -1.00983e-18)
(0.0571545 0.490711 -3.87611e-19)
(0.123699 0.521588 2.77941e-18)
(0.176473 0.49016 1.41919e-18)
(0.255625 0.515287 1.95316e-18)
(0.338423 0.444485 -1.54673e-18)
(0.427588 0.495245 1.04318e-18)
(0.489945 0.400338 -5.99105e-19)
(0.651571 0.481375 -5.77853e-18)
(0.0209405 -0.0165071 3.75712e-19)
(0.0376465 -0.0212789 6.03658e-19)
(0.0332766 0.00402291 -1.55225e-18)
(0.0149846 0.0664719 -1.77082e-18)
(0.00729684 0.169332 -1.62713e-18)
(-0.0017713 0.287042 1.39586e-19)
(0.0256274 0.387794 1.18123e-18)
(0.0496725 0.425619 -2.14448e-18)
(0.0993128 0.470002 -1.13204e-18)
(0.183486 0.441251 6.18563e-19)
(0.214148 0.455053 -1.79225e-18)
(0.385293 0.428969 1.8427e-19)
(0.354224 0.41317 1.24275e-18)
(0.576209 0.39922 -1.67113e-18)
(0.564229 0.403746 1.35743e-18)
(0.0244791 -0.0166236 -8.45717e-19)
(0.0448146 -0.0228924 1.91882e-18)
(0.0425614 -0.00453496 1.26916e-18)
(0.0251416 0.0386544 8.50998e-19)
(0.010887 0.111387 1.39155e-18)
(-0.00554567 0.206936 -1.40018e-19)
(0.00852424 0.306584 -1.09361e-18)
(0.0353286 0.34763 2.39074e-19)
(0.0664629 0.39464 1.48689e-18)
(0.170662 0.382271 -2.34934e-18)
(0.174704 0.369803 -1.10542e-18)
(0.374531 0.380956 9.39154e-20)
(0.278363 0.296909 -3.52962e-19)
(0.612336 0.374723 1.98783e-18)
(0.417388 0.259675 -1.92152e-18)
(0.0282857 -0.0174681 9.2253e-19)
(0.0501859 -0.0252798 6.15548e-19)
(0.0476279 -0.012237 -7.36085e-20)
(0.0299623 0.0186814 -5.52002e-19)
(0.0103361 0.0684495 1.23828e-19)
(-0.0131648 0.137663 -1.62973e-18)
(-0.0110635 0.223982 3.6182e-19)
(0.00881347 0.26131 -7.1397e-19)
(0.0351774 0.308966 -7.27318e-19)
(0.126414 0.290889 1.60486e-18)
(0.151701 0.290397 2.33613e-18)
(0.299551 0.277165 1.09207e-18)
(0.275344 0.228847 1.14741e-18)
(0.584669 0.312586 -1.49211e-18)
(0.516394 0.25487 -1.58703e-18)
(0.031437 -0.0187229 7.62628e-19)
(0.0523764 -0.0287048 -1.45146e-18)
(0.0471921 -0.0212645 -7.01012e-19)
(0.0274046 0.000120329 -1.56834e-18)
(0.00299897 0.03367 7.06575e-19)
(-0.0265419 0.0797098 1.72046e-18)
(-0.0340045 0.146035 -1.96911e-18)
(-0.0270723 0.172357 6.87733e-19)
(-0.00027713 0.218793 1.29807e-18)
(0.0719048 0.184774 3.48625e-19)
(0.112292 0.197709 -1.49201e-18)
(0.257689 0.187436 -6.27619e-19)
(0.365695 0.224252 -2.41323e-21)
(0.659863 0.30773 8.82203e-19)
(0.81475 0.381118 3.52017e-18)
(0.0328751 -0.0198846 -1.23569e-18)
(0.0502018 -0.0327543 -1.23831e-18)
(0.0404405 -0.0318461 6.92355e-19)
(0.0167586 -0.0195514 2.78743e-18)
(-0.012791 0.00130934 -1.81423e-18)
(-0.0466558 0.028622 5.13116e-19)
(-0.0638178 0.0736112 7.67831e-19)
(-0.0674509 0.0859926 -6.25204e-20)
(-0.044637 0.124738 1.65455e-19)
(0.0195613 0.0861185 7.07828e-19)
(0.104235 0.114973 -6.41234e-19)
(0.334369 0.171891 -1.35123e-18)
(0.547565 0.264237 -1.25839e-18)
(0.835398 0.367559 1.0552e-18)
(0.974392 0.435327 3.46797e-19)
(0.0316928 -0.0203858 -3.04217e-19)
(0.0431178 -0.0365807 2.45053e-18)
(0.0275283 -0.0429836 5.13668e-19)
(-0.00111882 -0.039998 7.33535e-19)
(-0.0364134 -0.0308153 6.7055e-19)
(-0.0747256 -0.0182059 6.46079e-19)
(-0.101878 0.00667811 -2.32171e-19)
(-0.110567 0.00658832 4.19559e-19)
(-0.0864138 0.0371818 2.04617e-19)
(0.0247501 0.0313958 8.963e-19)
(0.223497 0.109693 4.58705e-20)
(0.508415 0.218891 9.3737e-19)
(0.754216 0.328992 -8.01986e-19)
(0.953696 0.405694 -8.1882e-19)
(1.04896 0.449581 5.74142e-19)
(0.0273864 -0.0197266 1.09668e-18)
(0.0313391 -0.0390723 -1.00642e-18)
(0.00957051 -0.0527726 1.01761e-19)
(-0.0241924 -0.0587785 -1.49633e-18)
(-0.0653241 -0.059807 -1.2435e-18)
(-0.108749 -0.0581419 2.14676e-18)
(-0.141444 -0.0493851 6.16835e-19)
(-0.138121 -0.0534294 -8.82103e-19)
(-0.072155 -0.0162873 2.4002e-19)
(0.146771 0.0508571 -2.43719e-18)
(0.428287 0.169371 8.39027e-19)
(0.697819 0.283743 -1.02169e-18)
(0.890633 0.369591 1.27021e-18)
(1.02467 0.422031 -1.30496e-19)
(1.11275 0.46377 -8.33943e-19)
(0.0200845 -0.0175672 -1.71057e-18)
(0.0159417 -0.0390189 -1.74075e-18)
(-0.0113533 -0.0586915 -1.78932e-18)
(-0.049224 -0.0713518 -1.34389e-18)
(-0.0933232 -0.0789682 9.06747e-19)
(-0.136579 -0.0826308 -3.67547e-18)
(-0.160764 -0.0795348 3.35117e-19)
(-0.115364 -0.0731626 3.26053e-19)
(0.0409972 -0.00661328 1.73072e-19)
(0.346439 0.116971 1.14145e-18)
(0.625689 0.236219 -9.42557e-19)
(0.837456 0.329136 2.25855e-18)
(0.98129 0.392356 -4.92439e-19)
(1.08397 0.436549 -9.96894e-19)
(1.13739 0.460867 5.68087e-19)
(0.0105957 -0.013878 3.01581e-19)
(-0.00117757 -0.0355307 1.41057e-18)
(-0.0319776 -0.0583062 2.0111e-18)
(-0.0709148 -0.0738828 3.33765e-19)
(-0.111899 -0.0827525 1.60772e-18)
(-0.144281 -0.0836625 9.00502e-19)
(-0.144065 -0.0751966 2.80285e-19)
(-0.0299189 -0.0468959 -1.42476e-18)
(0.229933 0.0632358 -8.63445e-20)
(0.540202 0.18824 6.16721e-19)
(0.776022 0.287811 2.32938e-18)
(0.939601 0.360696 -2.94875e-19)
(1.04859 0.410147 8.45483e-19)
(1.11158 0.437933 8.18032e-19)
(1.1528 0.45593 1.37094e-18)
(0.00017779 -0.00902709 5.53158e-19)
(-0.0179111 -0.0286399 -1.85175e-18)
(-0.0493128 -0.0514009 -4.02619e-19)
(-0.0846718 -0.0660664 2.29959e-20)
(-0.116105 -0.0711265 -2.99306e-18)
(-0.128299 -0.0639125 7.78404e-19)
(-0.0925983 -0.0491554 -3.99004e-19)
(0.113305 0.0167257 4.72551e-19)
(0.426171 0.142981 1.56224e-18)
(0.699982 0.247207 -5.35587e-19)
(0.891184 0.327589 -1.82139e-18)
(1.01474 0.383975 -2.52158e-19)
(1.08626 0.416311 -2.87884e-19)
(1.13256 0.437976 -6.31154e-19)
(1.1645 0.451291 -1.47224e-18)
(-0.00986172 -0.00370201 1.15496e-19)
(-0.0326317 -0.0193708 5.01168e-19)
(-0.0617699 -0.039539 -1.29468e-18)
(-0.0895771 -0.050563 5.44204e-19)
(-0.106824 -0.0495278 1.23925e-18)
(-0.0954229 -0.0345324 -5.32501e-19)
(-0.0106695 -0.0150859 -1.06937e-19)
(0.288139 0.0932801 -1.25799e-18)
(0.59523 0.207938 2.61655e-19)
(0.827645 0.293717 -9.06267e-19)
(0.975867 0.357603 8.80624e-19)
(1.06229 0.396846 -7.36428e-19)
(1.11404 0.420768 1.32327e-18)
(1.14452 0.435933 -5.17837e-19)
(1.1647 0.442301 -1.09422e-18)
(-0.01851 0.0013344 5.90256e-19)
(-0.0444505 -0.00923993 3.6979e-19)
(-0.0692473 -0.0252998 3.34196e-19)
(-0.0870304 -0.03176 8.31283e-20)
(-0.087955 -0.024815 5.64155e-19)
(-0.0534595 -0.00897363 -1.37108e-18)
(0.107428 0.0360891 7.68339e-19)
(0.455824 0.160099 1.8163e-18)
(0.736387 0.261754 -1.84228e-19)
(0.925193 0.33035 1.36913e-18)
(1.0344 0.378328 8.34799e-19)
(1.0967 0.406098 1.38442e-19)
(1.12937 0.421369 2.83469e-19)
(1.1492 0.431218 5.48338e-19)
(1.16911 0.43661 1.28396e-18)
(-0.0252198 0.00546238 8.97011e-19)
(-0.0531752 0.000222915 1.27912e-18)
(-0.0725092 -0.0113029 -1.15289e-18)
(-0.0793622 -0.0136032 1.04868e-18)
(-0.0648838 -0.00315443 -2.42229e-18)
(0.00122704 0.00548343 5.95912e-19)
(0.264599 0.100567 -2.10045e-19)
(0.606965 0.218084 -1.12928e-18)
(0.848843 0.304843 -2.02305e-18)
(0.996472 0.357192 -7.74036e-19)
(1.0759 0.393321 -1.93236e-18)
(1.11667 0.41008 1.21486e-18)
(1.13841 0.420437 -1.6662e-18)
(1.15436 0.428116 1.16045e-18)
(1.16778 0.42945 8.11425e-19)
(-0.0299011 0.00833318 -2.12533e-18)
(-0.0591025 0.00786167 7.36531e-20)
(-0.0726929 0.000517723 1.52292e-19)
(-0.0688144 0.00184092 2.9185e-19)
(-0.0417951 0.00968386 1.61926e-19)
(0.0841613 0.0294043 1.15753e-18)
(0.42882 0.161081 6.38862e-19)
(0.736495 0.266393 -1.81921e-19)
(0.935106 0.337845 9.10182e-19)
(1.04763 0.377198 5.93162e-19)
(1.10202 0.402707 2.76258e-19)
(1.13008 0.41231 -6.89e-19)
(1.1445 0.419624 2.30292e-18)
(1.15445 0.423258 4.08969e-19)
(1.16705 0.42323 -8.63222e-19)
(-0.0328366 0.00988686 1.95487e-18)
(-0.0627989 0.0130384 -1.39871e-18)
(-0.0708401 0.00909694 4.46866e-19)
(-0.0580095 0.0135671 -4.61863e-20)
(-0.0112602 0.0103075 2.31248e-18)
(0.213648 0.080978 -1.89074e-19)
(0.575593 0.214694 -7.69656e-19)
(0.841094 0.305808 1.90042e-18)
(0.99928 0.363001 1.79604e-19)
(1.08207 0.390949 7.82798e-19)
(1.11961 0.409063 -1.57055e-18)
(1.13776 0.412855 3.39444e-20)
(1.14623 0.417584 -7.27844e-19)
(1.15561 0.419525 -1.53436e-19)
(1.16625 0.41826 -5.12105e-19)
(-0.0345481 0.0102804 -5.22709e-19)
(-0.064889 0.0155738 1.46067e-18)
(-0.0675684 0.0147227 8.82929e-19)
(-0.0488562 0.0183898 7.04209e-19)
(0.0410505 0.0118903 -3.82081e-19)
(0.370578 0.141141 -1.52311e-19)
(0.70352 0.260476 1.00697e-18)
(0.9238 0.336874 -8.04036e-19)
(1.04563 0.381178 2.4959e-19)
(1.10549 0.400724 -1.31366e-18)
(1.1297 0.412685 9.16169e-20)
(1.1417 0.412462 2.05242e-19)
(1.14798 0.416473 -3.0342e-19)
(1.15486 0.41556 -1.82796e-18)
(1.1631 0.412792 7.78179e-19)
(-0.0356563 0.00975842 -9.20514e-19)
(-0.0658054 0.015665 -1.15242e-18)
(-0.0640254 0.0181505 6.0587e-19)
(-0.0369202 0.0143112 -7.84982e-20)
(0.131846 0.0437751 -9.44303e-19)
(0.514615 0.194402 -4.11117e-20)
(0.808291 0.298569 -7.05376e-19)
(0.986192 0.361022 -1.41268e-18)
(1.07816 0.394555 -5.8253e-19)
(1.11984 0.407149 5.41997e-19)
(1.13563 0.414774 5.02257e-19)
(1.14396 0.411997 -5.09188e-20)
(1.14723 0.414742 -8.155e-19)
(1.15366 0.4117 1.50367e-18)
(1.16173 0.409157 4.76028e-19)
(-0.0367285 0.00851402 9.0604e-19)
(-0.0657118 0.0142255 1.95059e-21)
(-0.0617804 0.0191017 -1.48587e-18)
(-0.0102449 0.00297348 -3.21256e-20)
(0.267696 0.101796 2.26392e-19)
(0.641333 0.240872 4.14929e-19)
(0.892593 0.329671 -7.51098e-19)
(1.03307 0.379547 3.91621e-19)
(1.1003 0.403814 -1.72802e-20)
(1.12888 0.411514 4.43156e-19)
(1.13853 0.415823 -4.01176e-19)
(1.14396 0.411083 -1.1369e-18)
(1.1466 0.413548 -5.63854e-20)
(1.15247 0.408468 -7.29465e-19)
(1.15798 0.405171 -6.39855e-19)
(-0.0381034 0.00672961 3.69308e-19)
(-0.064881 0.0129292 -7.53994e-19)
(-0.0599497 0.0156259 7.55887e-19)
(0.0435248 0.00304763 -2.41215e-19)
(0.415439 0.158002 -1.29946e-19)
(0.750341 0.279771 -3.75526e-19)
(0.95828 0.354439 5.90314e-19)
(1.0665 0.39343 3.86933e-19)
(1.11474 0.41049 -2.32467e-19)
(1.13352 0.41439 -6.66358e-19)
(1.13932 0.416176 -2.43205e-19)
(1.14359 0.410523 1.16529e-18)
(1.1449 0.412228 7.186e-19)
(1.15004 0.404993 7.16468e-19)
(1.15538 0.402402 -2.24421e-19)
(-0.0397035 0.00470342 -2.31756e-19)
(-0.0641214 0.0126058 8.33455e-20)
(-0.0530754 0.00716454 -3.13381e-19)
(0.130241 0.0371136 -2.59974e-21)
(0.542584 0.206122 -2.42852e-19)
(0.839069 0.313151 -3.65779e-19)
(1.0084 0.374391 1.28176e-19)
(1.09031 0.403934 -7.69003e-19)
(1.12378 0.415074 6.90576e-19)
(1.1358 0.416317 8.88005e-19)
(1.13912 0.416303 1.15868e-19)
(1.14193 0.409832 -1.01343e-18)
(1.14287 0.411009 -9.96077e-19)
(1.14812 0.402321 -7.60197e-19)
(1.15157 0.399864 3.10546e-19)
(-0.0412949 0.00310174 -7.48589e-19)
(-0.0645324 0.0118715 2.05551e-19)
(-0.0320051 -0.00535462 -1.51198e-19)
(0.253706 0.0947261 -3.71611e-22)
(0.654622 0.24826 -6.06268e-20)
(0.911365 0.34058 -1.40174e-19)
(1.04626 0.389993 2.59863e-19)
(1.10633 0.411654 -1.51623e-19)
(1.12888 0.418423 -1.9833e-19)
(1.13611 0.417738 -3.85553e-19)
(1.13772 0.416196 -3.43554e-19)
(1.1401 0.409466 -1.59103e-19)
(1.14055 0.409924 6.18372e-19)
(1.14501 0.399547 -2.49217e-20)
(1.14783 0.397823 4.9679e-19)
(-0.0427275 0.00310326 3.11115e-19)
(-0.0658512 0.00867671 5.16575e-19)
(0.0114108 -0.0111673 8.86082e-20)
(0.390831 0.149262 3.20347e-19)
(0.752247 0.283506 7.06985e-19)
(0.967944 0.362929 2.62356e-19)
(1.07351 0.402325 9.69535e-19)
(1.11683 0.417618 5.13624e-19)
(1.13137 0.42092 3.28389e-19)
(1.13538 0.418798 7.57103e-19)
(1.13606 0.416177 2.35796e-19)
(1.13761 0.409144 4.34337e-19)
(1.13767 0.40877 2.1656e-19)
(1.14222 0.397445 1.0296e-19)
(1.14387 0.396336 3.43665e-19)
(-0.0437571 0.00554817 4.34257e-19)
(-0.0657133 0.00288229 -7.36111e-19)
(0.0774801 0.00541624 -1.43237e-19)
(0.511421 0.195247 3.3742e-19)
(0.833795 0.314915 -7.13827e-19)
(1.01217 0.381546 -2.93337e-19)
(1.09318 0.412012 -5.9937e-19)
(1.12323 0.422129 -2.06123e-20)
(1.13199 0.422925 -1.62855e-19)
(1.13377 0.419789 -6.3836e-19)
(1.13363 0.416161 4.88066e-19)
(1.13485 0.409031 3.73486e-20)
(1.13477 0.407848 -2.09816e-20)
(1.13862 0.395484 1.81337e-19)
(1.13935 0.394922 -4.21391e-19)
(-0.0445068 0.00969613 -3.15688e-20)
(-0.0592319 -0.00564542 3.23409e-19)
(0.167464 0.0478305 9.09642e-20)
(0.614492 0.236052 -4.74773e-19)
(0.900931 0.342014 3.16894e-19)
(1.04605 0.39689 1.01859e-19)
(1.10651 0.419727 -2.67626e-19)
(1.12665 0.425834 -1.27523e-19)
(1.13136 0.424709 -3.88769e-19)
(1.13162 0.420713 6.94557e-20)
(1.1311 0.416324 -4.73146e-19)
(1.13176 0.409042 -3.37597e-19)
(1.13131 0.406876 9.10901e-20)
(1.13503 0.394005 9.51267e-20)
(1.13509 0.39405 -1.65747e-19)
(-0.0455452 0.0126272 -1.61238e-19)
(-0.0407979 -0.0140785 -1.02486e-19)
(0.277778 0.100603 2.20354e-19)
(0.704651 0.270703 4.087e-19)
(0.954741 0.364826 7.96058e-20)
(1.07134 0.409623 -2.19474e-19)
(1.11549 0.426068 2.77226e-19)
(1.12807 0.428947 2.42691e-19)
(1.12984 0.42638 1.26639e-19)
(1.12903 0.421739 2.42441e-20)
(1.12802 0.416601 1.5253e-19)
(1.12832 0.409184 6.7768e-20)
(1.12783 0.406154 -4.81311e-20)
(1.13097 0.392801 -6.08867e-20)
(1.13017 0.393065 5.44019e-20)
(-0.0470967 0.0112084 -7.49944e-20)
(-0.00822083 -0.0165358 -8.80513e-20)
(0.394212 0.15023 7.23257e-20)
(0.783397 0.301145 -9.62497e-20)
(0.997401 0.383801 -2.07301e-19)
(1.08973 0.420048 1.57898e-20)
(1.12089 0.43139 1.28152e-19)
(1.12793 0.43183 -1.16113e-19)
(1.12768 0.428129 7.71166e-20)
(1.12607 0.422841 1.56287e-19)