# Forces      
# CofR        : (0.000000e+00 0.000000e+00 0.000000e+00)
# Time        forces(pressure viscous porous)	moments(pressure viscous porous)
0.005         	((1.598141e+00 -3.600855e-09 8.565720e-20) (2.733747e-02 -1.555414e-11 -1.546923e-21) (0.000000e+00 0.000000e+00 0.000000e+00)) ((-1.334228e-19 3.820712e-19 -2.368101e-18) (1.676883e-19 -2.683024e-20 4.256764e-13) (0.000000e+00 0.000000e+00 0.000000e+00))
0.01          	((7.173062e-03 1.037312e-09 5.624362e-21) (2.227793e-02 6.718472e-11 -7.950286e-22) (0.000000e+00 0.000000e+00 0.000000e+00)) ((-3.451932e-21 1.661504e-21 -4.124210e-20) (1.383079e-21 -6.196783e-22 -1.002063e-10) (0.000000e+00 0.000000e+00 0.000000e+00))
0.015         	((2.101622e-02 5.241231e-10 6.646506e-21) (1.891384e-02 4.822446e-11 -7.127058e-22) (0.000000e+00 0.000000e+00 0.000000e+00)) ((-2.275410e-21 4.950836e-21 -4.661736e-20) (2.568365e-21 -7.452672e-22 -8.230555e-11) (0.000000e+00 0.000000e+00 0.000000e+00))
0.02          	((1.682098e-02 8.272905e-11 6.105854e-21) (1.653257e-02 4.095793e-11 -7.058346e-22) (0.000000e+00 0.000000e+00 0.000000e+00)) ((-1.812053e-21 3.955577e-21 -1.535708e-20) (2.179510e-21 -6.289595e-22 -1.270312e-10) (0.000000e+00 0.000000e+00 0.000000e+00))
0.025         	((1.527878e-02 3.668738e-09 5.695509e-21) (1.466802e-02 4.147601e-11 -6.963810e-22) (0.000000e+00 0.000000e+00 0.000000e+00)) ((-1.596398e-21 3.594219e-21 -2.362417e-20) (1.972882e-21 -5.756014e-22 -1.544723e-10) (0.000000e+00 0.000000e+00 0.000000e+00))
0.03          	((1.391138e-02 2.512447e-09 5.374288e-21) (1.317433e-02 3.520676e-11 -6.907906e-22) (0.000000e+00 0.000000e+00 0.000000e+00)) ((-1.419242e-21 3.272910e-21 4.626196e-21) (1.791557e-21 -5.295947e-22 -1.683120e-10) (0.000000e+00 0.000000e+00 0.000000e+00))
0.035         	((1.273442e-02 2.529958e-09 5.114878e-21) (1.196254e-02 3.052244e-11 -6.872883e-22) (0.000000e+00 0.000000e+00 0.000000e+00)) ((-1.272567e-21 2.995539e-21 -1.821291e-20) (1.636556e-21 -4.901204e-22 -1.712682e-10) (0.000000e+00 0.000000e+00 0.000000e+00))
0.04          	((1.173253e-02 2.021290e-09 4.903081e-21) (1.096875e-02 2.622239e-11 -6.852194e-22) (0.000000e+00 0.000000e+00 0.000000e+00)) ((-1.150402e-21 2.758949e-21 -1.235218e-21) (1.505158e-21 -4.562562e-22 -1.656290e-10) (0.000000e+00 0.000000e+00 0.000000e+00))
0.045         	((1.088192e-02 2.508939e-09 4.728074e-21) (1.014560e-02 2.606644e-11 -6.841432e-22) (0.000000e+00 0.000000e+00 0.000000e+00)) ((-1.048445e-21 2.557777e-21 -5.496949e-21) (1.393884e-21 -4.271229e-22 -1.535044e-10) (0.000000e+00 0.000000e+00 0.000000e+00))
0.05          	((1.015828e-02 2.423641e-09 4.581821e-21) (9.457275e-03 2.670768e-11 -6.837903e-22) (0.000000e+00 0.000000e+00 0.000000e+00)) ((-9.623002e-22 2.386513e-21 -1.109693e-20) (1.299282e-21 -4.019566e-22 -1.369356e-10) (0.000000e+00 0.000000e+00 0.000000e+00))
0.055         	((9.540171e-03 2.550544e-09 4.458048e-21) (8.876367e-03 2.908478e-11 -6.839410e-22) (0.000000e+00 0.000000e+00 0.000000e+00)) ((-8.885031e-22 2.240188e-21 1.183064e-20) (1.218417e-21 -3.801045e-22 -1.175387e-10) (0.000000e+00 0.000000e+00 0.000000e+00))
0.06          	((9.009577e-03 2.622910e-09 4.351809e-21) (8.381670e-03 3.267083e-11 -6.844167e-22) (0.000000e+00 0.000000e+00 0.000000e+00)) ((-8.244224e-22 2.114553e-21 2.780003e-20) (1.148866e-21 -3.610258e-22 -9.663057e-11) (0.000000e+00 0.000000e+00 0.000000e+00))
0.065         	((8.551433e-03 2.621125e-09 4.260312e-21) (7.956666e-03 3.698516e-11 -6.851768e-22) (0.000000e+00 0.000000e+00 0.000000e+00)) ((-7.676381e-22 2.006171e-21 -7.029124e-21) (1.088603e-21 -3.442767e-22 -7.518775e-11) (0.000000e+00 0.000000e+00 0.000000e+00))
0.07          	((8.153848e-03 2.645217e-09 4.179741e-21) (7.588387e-03 4.187318e-11 -6.860525e-22) (0.000000e+00 0.000000e+00 0.000000e+00)) ((-7.175695e-22 1.912075e-21 -2.371933e-22) (1.036124e-21 -3.294898e-22 -5.392859e-11) (0.000000e+00 0.000000e+00 0.000000e+00))
0.075         	((7.807001e-03 2.687301e-09 4.108256e-21) (7.266583e-03 4.724907e-11 -6.870151e-22) (0.000000e+00 0.000000e+00 0.000000e+00)) ((-6.737684e-22 1.829942e-21 -1.107338e-20) (9.901652e-22 -3.163661e-22 -3.334966e-11) (0.000000e+00 0.000000e+00 0.000000e+00))
0.08          	((7.502631e-03 2.697982e-09 4.044776e-21) (6.983135e-03 5.311058e-11 -6.880909e-22) (0.000000e+00 0.000000e+00 0.000000e+00)) ((-6.345356e-22 1.757906e-21 3.177160e-21) (9.496196e-22 -3.046539e-22 -1.378995e-11) (0.000000e+00 0.000000e+00 0.000000e+00))
0.085         	((7.234078e-03 2.733073e-09 3.987914e-21) (6.731581e-03 5.944491e-11 -6.892606e-22) (0.000000e+00 0.000000e+00 0.000000e+00)) ((-5.986232e-22 1.694400e-21 1.749399e-20) (9.136456e-22 -2.941515e-22 4.567028e-12) (0.000000e+00 0.000000e+00 0.000000e+00))
0.09          	((6.996034e-03 2.765017e-09 3.936317e-21) (6.506745e-03 6.624953e-11 -6.904628e-22) (0.000000e+00 0.000000e+00 0.000000e+00)) ((-5.660160e-22 1.638119e-21 1.535498e-20) (8.816059e-22 -2.846892e-22 2.161283e-11) (0.000000e+00 0.000000e+00 0.000000e+00))
0.095         	((6.783802e-03 2.783369e-09 3.889777e-21) (6.304450e-03 7.321013e-11 -6.917459e-22) (0.000000e+00 0.000000e+00 0.000000e+00)) ((-5.355732e-22 1.588055e-21 1.462022e-22) (8.528019e-22 -2.761243e-22 3.730515e-11) (0.000000e+00 0.000000e+00 0.000000e+00))
0.1           	((6.594017e-03 2.817850e-09 3.846995e-21) (6.121304e-03 8.041895e-11 -6.930242e-22) (0.000000e+00 0.000000e+00 0.000000e+00)) ((-5.077553e-22 1.543291e-21 1.263415e-20) (8.268855e-22 -2.683426e-22 5.164555e-11) (0.000000e+00 0.000000e+00 0.000000e+00))
0.105         	((6.423555e-03 2.884299e-09 3.807292e-21) (5.954555e-03 8.791499e-11 -6.943004e-22) (0.000000e+00 0.000000e+00 0.000000e+00)) ((-4.818781e-22 1.503087e-21 7.041097e-21) (8.034579e-22 -2.612441e-22 6.467514e-11) (0.000000e+00 0.000000e+00 0.000000e+00))
0.11          	((6.269678e-03 2.700874e-09 3.771100e-21) (5.801927e-03 9.431400e-11 -6.956331e-22) (0.000000e+00 0.000000e+00 0.000000e+00)) ((-4.572259e-22 1.466915e-21 2.387480e-20) (7.820674e-22 -2.547433e-22 7.644731e-11) (0.000000e+00 0.000000e+00 0.000000e+00))
0.115         	((6.130419e-03 2.914591e-09 3.737375e-21) (5.661544e-03 1.017800e-10 -6.969544e-22) (0.000000e+00 0.000000e+00 0.000000e+00)) ((-4.341778e-22 1.434209e-21 3.507431e-21) (7.625436e-22 -2.487685e-22 8.702229e-11) (0.000000e+00 0.000000e+00 0.000000e+00))
0.12          	((6.004226e-03 2.899267e-09 3.705171e-21) (5.531857e-03 1.086790e-10 -6.981911e-22) (0.000000e+00 0.000000e+00 0.000000e+00)) ((-4.132385e-22 1.404503e-21 1.863462e-20) (7.447610e-22 -2.432621e-22 9.647906e-11) (0.000000e+00 0.000000e+00 0.000000e+00))
0.125         	((5.889100e-03 2.925366e-09 3.675488e-21) (5.411562e-03 1.153909e-10 -6.994644e-22) (0.000000e+00 0.000000e+00 0.000000e+00)) ((-3.927175e-22 1.377524e-21 1.770837e-20) (7.283078e-22 -2.381667e-22 1.048811e-10) (0.000000e+00 0.000000e+00 0.000000e+00))
0.13          	((5.783855e-03 2.949591e-09 3.647623e-21) (5.299557e-03 1.217368e-10 -7.007363e-22) (0.000000e+00 0.000000e+00 0.000000e+00)) ((-3.729898e-22 1.352928e-21 1.259444e-20) (7.130998e-22 -2.334391e-22 1.123016e-10) (0.000000e+00 0.000000e+00 0.000000e+00))
0.135         	((5.687713e-03 3.000395e-09 3.620732e-21) (5.194925e-03 1.279991e-10 -7.019248e-22) (0.000000e+00 0.000000e+00 0.000000e+00)) ((-3.550799e-22 1.330404e-21 -1.220784e-20) (6.990954e-22 -2.290438e-22 1.188102e-10) (0.000000e+00 0.000000e+00 0.000000e+00))
0.14          	((5.599404e-03 2.947542e-09 3.595210e-21) (5.096879e-03 1.336617e-10 -7.030778e-22) (0.000000e+00 0.000000e+00 0.000000e+00)) ((-3.375779e-22 1.309775e-21 1.672693e-20) (6.860826e-22 -2.249424e-22 1.244821e-10) (0.000000e+00 0.000000e+00 0.000000e+00))
0.145         	((5.518117e-03 2.930075e-09 3.570925e-21) (5.004737e-03 1.390242e-10 -7.042231e-22) (0.000000e+00 0.000000e+00 0.000000e+00)) ((-3.207608e-22 1.290833e-21 -8.128118e-21) (6.739690e-22 -2.211075e-22 1.293784e-10) (0.000000e+00 0.000000e+00 0.000000e+00))
0.15          	((5.443118e-03 2.978834e-09 3.547813e-21) (4.917918e-03 1.442081e-10 -7.053557e-22) (0.000000e+00 0.000000e+00 0.000000e+00)) ((-3.043949e-22 1.273412e-21 1.311898e-20) (6.626224e-22 -2.175139e-22 1.335589e-10) (0.000000e+00 0.000000e+00 0.000000e+00))
0.155         	((5.373947e-03 2.971467e-09 3.525312e-21) (4.835929e-03 1.490459e-10 -7.064169e-22) (0.000000e+00 0.000000e+00 0.000000e+00)) ((-2.886214e-22 1.257341e-21 2.742540e-20) (6.520350e-22 -2.141410e-22 1.370707e-10) (0.000000e+00 0.000000e+00 0.000000e+00))
0.16          	((5.309923e-03 2.917801e-09 3.503694e-21) (4.758327e-03 1.533721e-10 -7.074551e-22) (0.000000e+00 0.000000e+00 0.000000e+00)) ((-2.734644e-22 1.242510e-21 -1.171797e-20) (6.421331e-22 -2.109672e-22 1.399724e-10) (0.000000e+00 0.000000e+00 0.000000e+00))
0.165         	((5.250699e-03 2.910879e-09 3.482653e-21) (4.684726e-03 1.574511e-10 -7.084359e-22) (0.000000e+00 0.000000e+00 0.000000e+00)) ((-2.591023e-22 1.228797e-21 1.064876e-20) (6.328713e-22 -2.079765e-22 1.423175e-10) (0.000000e+00 0.000000e+00 0.000000e+00))
0.17          	((5.195538e-03 2.916920e-09 3.462531e-21) (4.614789e-03 1.613161e-10 -7.094313e-22) (0.000000e+00 0.000000e+00 0.000000e+00)) ((-2.444808e-22 1.216121e-21 8.804617e-21) (6.240815e-22 -2.051503e-22 1.441516e-10) (0.000000e+00 0.000000e+00 0.000000e+00))
0.175         	((5.144469e-03 2.947867e-09 3.442728e-21) (4.548225e-03 1.650903e-10 -7.103547e-22) (0.000000e+00 0.000000e+00 0.000000e+00)) ((-2.307066e-22 1.204367e-21 -1.588531e-21) (6.158479e-22 -2.024803e-22 1.455064e-10) (0.000000e+00 0.000000e+00 0.000000e+00))
0.18          	((5.096845e-03 3.000329e-09 3.423619e-21) (4.484770e-03 1.687897e-10 -7.112732e-22) (0.000000e+00 0.000000e+00 0.000000e+00)) ((-2.169025e-22 1.193477e-21 1.971512e-20) (6.080408e-22 -1.999501e-22 1.464265e-10) (0.000000e+00 0.000000e+00 0.000000e+00))
0.185         	((5.052682e-03 3.027896e-09 3.404738e-21) (4.424185e-03 1.722713e-10 -7.121225e-22) (0.000000e+00 0.000000e+00 0.000000e+00)) ((-2.039997e-22 1.183364e-21 1.262504e-20) (6.007278e-22 -1.975522e-22 1.469464e-10) (0.000000e+00 0.000000e+00 0.000000e+00))
0.19          	((5.011487e-03 2.999012e-09 3.386379e-21) (4.366260e-03 1.750099e-10 -7.129483e-22) (0.000000e+00 0.000000e+00 0.000000e+00)) ((-1.911636e-22 1.173985e-21 5.757193e-21) (5.937821e-22 -1.952742e-22 1.471085e-10) (0.000000e+00 0.000000e+00 0.000000e+00))
0.195         	((4.972909e-03 3.008343e-09 3.368551e-21) (4.310804e-03 1.779346e-10 -7.137713e-22) (0.000000e+00 0.000000e+00 0.000000e+00)) ((-1.779897e-22 1.165279e-21 -8.241249e-21) (5.871480e-22 -1.931061e-22 1.469329e-10) (0.000000e+00 0.000000e+00 0.000000e+00))
0.2           	((4.937121e-03 2.910803e-09 3.350911e-21) (4.257652e-03 1.798786e-10 -7.145371e-22) (0.000000e+00 0.000000e+00 0.000000e+00)) ((-1.656901e-22 1.157189e-21 1.545164e-20) (5.808786e-22 -1.910456e-22 1.464563e-10) (0.000000e+00 0.000000e+00 0.000000e+00))
0.205         	((4.903626e-03 2.866459e-09 3.333670e-21) (4.206651e-03 1.814144e-10 -7.152825e-22) (0.000000e+00 0.000000e+00 0.000000e+00)) ((-1.533429e-22 1.149680e-21 1.836607e-20) (5.748983e-22 -1.890810e-22 1.456994e-10) (0.000000e+00 0.000000e+00 0.000000e+00))
0.21          	((4.872443e-03 2.854988e-09 3.316618e-21) (4.157659e-03 1.828797e-10 -7.159839e-22) (0.000000e+00 0.000000e+00 0.000000e+00)) ((-1.415014e-22 1.142702e-21 -1.940167e-20) (5.692390e-22 -1.872079e-22 1.446903e-10) (0.000000e+00 0.000000e+00 0.000000e+00))
0.215         	((4.843351e-03 2.909974e-09 3.299792e-21) (4.110550e-03 1.844841e-10 -7.166508e-22) (0.000000e+00 0.000000e+00 0.000000e+00)) ((-1.298619e-22 1.136225e-21 7.209788e-21) (5.638546e-22 -1.854198e-22 1.434492e-10) (0.000000e+00 0.000000e+00 0.000000e+00))
0.22          	((4.816021e-03 3.017267e-09 3.283382e-21) (4.065205e-03 1.864500e-10 -7.173104e-22) (0.000000e+00 0.000000e+00 0.000000e+00)) ((-1.177665e-22 1.130221e-21 9.209138e-21) (5.586653e-22 -1.837090e-22 1.419929e-10) (0.000000e+00 0.000000e+00 0.000000e+00))
0.225         	((4.790644e-03 3.125656e-09 3.267080e-21) (4.021520e-03 1.885269e-10 -7.179279e-22) (0.000000e+00 0.000000e+00 0.000000e+00)) ((-1.063876e-22 1.124650e-21 2.248508e-22) (5.537438e-22 -1.820751e-22 1.403404e-10) (0.000000e+00 0.000000e+00 0.000000e+00))
0.23          	((4.766962e-03 3.086791e-09 3.251020e-21) (3.979401e-03 1.899349e-10 -7.185203e-22) (0.000000e+00 0.000000e+00 0.000000e+00)) ((-9.514316e-23 1.119492e-21 3.281588e-21) (5.490181e-22 -1.805122e-22 1.385091e-10) (0.000000e+00 0.000000e+00 0.000000e+00))
0.235         	((4.744789e-03 3.065674e-09 3.235215e-21) (3.938756e-03 1.908649e-10 -7.190934e-22) (0.000000e+00 0.000000e+00 0.000000e+00)) ((-8.377577e-23 1.114720e-21 -3.257914e-21) (5.444726e-22 -1.790142e-22 1.365170e-10) (0.000000e+00 0.000000e+00 0.000000e+00))
0.24          	((4.724249e-03 3.088093e-09 3.219432e-21) (3.899505e-03 1.915607e-10 -7.196175e-22) (0.000000e+00 0.000000e+00 0.000000e+00)) ((-7.301040e-23 1.110307e-21 -6.068892e-22) (5.401631e-22 -1.775804e-22 1.343774e-10) (0.000000e+00 0.000000e+00 0.000000e+00))
0.245         	((4.705081e-03 3.035998e-09 3.203816e-21) (3.861571e-03 1.918688e-10 -7.201158e-22) (0.000000e+00 0.000000e+00 0.000000e+00)) ((-6.222289e-23 1.106235e-21 -2.747907e-20) (5.360196e-22 -1.762051e-22 1.320998e-10) (0.000000e+00 0.000000e+00 0.000000e+00))
0.25          	((4.687072e-03 3.080853e-09 3.188495e-21) (3.824884e-03 1.921180e-10 -7.206043e-22) (0.000000e+00 0.000000e+00 0.000000e+00)) ((-5.096723e-23 1.102489e-21 -1.542519e-20) (5.319957e-22 -1.748835e-22 1.297043e-10) (0.000000e+00 0.000000e+00 0.000000e+00))
0.255         	((4.670461e-03 3.042659e-09 3.173222e-21) (3.789378e-03 1.921359e-10 -7.210617e-22) (0.000000e+00 0.000000e+00 0.000000e+00)) ((-4.041184e-23 1.099046e-21 9.956578e-21) (5.281656e-22 -1.736169e-22 1.272013e-10) (0.000000e+00 0.000000e+00 0.000000e+00))
0.26          	((4.654981e-03 3.057623e-09 3.158122e-21) (3.754992e-03 1.920619e-10 -7.214924e-22) (0.000000e+00 0.000000e+00 0.000000e+00)) ((-2.968399e-23 1.095893e-21 8.266003e-21) (5.244727e-22 -1.723996e-22 1.246065e-10) (0.000000e+00 0.000000e+00 0.000000e+00))
0.265         	((4.640756e-03 3.080273e-09 3.143098e-21) (3.721663e-03 1.918248e-10 -7.218958e-22) (0.000000e+00 0.000000e+00 0.000000e+00)) ((-1.942387e-23 1.093014e-21 -7.847152e-21) (5.209313e-22 -1.712311e-22 1.219278e-10) (0.000000e+00 0.000000e+00 0.000000e+00))
0.27          	((4.627288e-03 3.065743e-09 3.128255e-21) (3.689363e-03 1.915710e-10 -7.222796e-22) (0.000000e+00 0.000000e+00 0.000000e+00)) ((-8.841716e-24 1.090390e-21 1.487759e-20) (5.174860e-22 -1.701060e-22 1.191766e-10) (0.000000e+00 0.000000e+00 0.000000e+00))
0.275         	((4.615012e-03 3.060646e-09 3.113418e-21) (3.658034e-03 1.913604e-10 -7.226271e-22) (0.000000e+00 0.000000e+00 0.000000e+00)) ((1.296052e-24 1.088011e-21 2.464130e-21) (5.142025e-22 -1.690257e-22 1.163577e-10) (0.000000e+00 0.000000e+00 0.000000e+00))
0.28          	((4.603795e-03 3.008922e-09 3.098645e-21) (3.627627e-03 1.908743e-10 -7.229403e-22) (0.000000e+00 0.000000e+00 0.000000e+00)) ((1.112037e-23 1.085871e-21 4.035119e-20) (5.110458e-22 -1.679872e-22 1.134862e-10) (0.000000e+00 0.000000e+00 0.000000e+00))
0.285         	((4.593257e-03 3.019431e-09 3.084121e-21) (3.598097e-03 1.906091e-10 -7.232598e-22) (0.000000e+00 0.000000e+00 0.000000e+00)) ((2.167546e-23 1.083950e-21 4.741122e-21) (5.079362e-22 -1.669847e-22 1.105644e-10) (0.000000e+00 0.000000e+00 0.000000e+00))
0.29          	((4.583620e-03 3.040086e-09 3.069634e-21) (3.569403e-03 1.905602e-10 -7.235463e-22) (0.000000e+00 0.000000e+00 0.000000e+00)) ((3.207302e-23 1.082242e-21 -1.124883e-20) (5.049467e-22 -1.660199e-22 1.075986e-10) (0.000000e+00 0.000000e+00 0.000000e+00))
0.295         	((4.574937e-03 2.986353e-09 3.055191e-21) (3.541508e-03 1.901849e-10 -7.238020e-22) (0.000000e+00 0.000000e+00 0.000000e+00)) ((4.190458e-23 1.080739e-21 7.077546e-21) (5.020934e-22 -1.650929e-22 1.045969e-10) (0.000000e+00 0.000000e+00 0.000000e+00))
0.3           	((4.566919e-03 2.969685e-09 3.040856e-21) (3.514380e-03 1.898287e-10 -7.240397e-22) (0.000000e+00 0.000000e+00 0.000000e+00)) ((5.196774e-23 1.079425e-21 9.760209e-21) (4.993175e-22 -1.641985e-22 1.015663e-10) (0.000000e+00 0.000000e+00 0.000000e+00))
0.305         	((4.559677e-03 2.966867e-09 3.026597e-21) (3.487984e-03 1.895338e-10 -7.242560e-22) (0.000000e+00 0.000000e+00 0.000000e+00)) ((6.190345e-23 1.078297e-21 2.309281e-20) (4.966321e-22 -1.633371e-22 9.851054e-11) (0.000000e+00 0.000000e+00 0.000000e+00))
0.31          	((4.553065e-03 3.210740e-09 3.012411e-21) (3.462292e-03 1.902438e-10 -7.244488e-22) (0.000000e+00 0.000000e+00 0.000000e+00)) ((7.201944e-23 1.077342e-21 2.205789e-20) (4.940245e-22 -1.625059e-22 9.543511e-11) (0.000000e+00 0.000000e+00 0.000000e+00))
0.315         	((4.547243e-03 3.555167e-09 2.998259e-21) (3.437273e-03 1.918709e-10 -7.246142e-22) (0.000000e+00 0.000000e+00 0.000000e+00)) ((8.175034e-23 1.076559e-21 1.919681e-20) (4.915259e-22 -1.617062e-22 9.233841e-11) (0.000000e+00 0.000000e+00 0.000000e+00))
0.32          	((4.542197e-03 3.166499e-09 2.984084e-21) (3.412902e-03 1.910675e-10 -7.247448e-22) (0.000000e+00 0.000000e+00 0.000000e+00)) ((9.097042e-23 1.075937e-21 3.044927e-20) (4.891490e-22 -1.609368e-22 8.922381e-11) (0.000000e+00 0.000000e+00 0.000000e+00))
0.325         	((4.537525e-03 2.505813e-09 2.970068e-21) (3.389153e-03 1.872955e-10 -7.248840e-22) (0.000000e+00 0.000000e+00 0.000000e+00)) ((1.009233e-22 1.075465e-21 1.575230e-20) (4.867682e-22 -1.601916e-22 8.610664e-11) (0.000000e+00 0.000000e+00 0.000000e+00))
0.33          	((4.533490e-03 3.505057e-09 2.956117e-21) (3.366000e-03 1.889071e-10 -7.249918e-22) (0.000000e+00 0.000000e+00 0.000000e+00)) ((1.107215e-22 1.075145e-21 2.422342e-20) (4.844692e-22 -1.594738e-22 8.299261e-11) (0.000000e+00 0.000000e+00 0.000000e+00))
0.335         	((4.530036e-03 3.005847e-09 2.942220e-21) (3.343423e-03 1.875754e-10 -7.250790e-22) (0.000000e+00 0.000000e+00 0.000000e+00)) ((1.204311e-22 1.074965e-21 -5.829044e-21) (4.822428e-22 -1.587810e-22 7.987652e-11) (0.000000e+00 0.000000e+00 0.000000e+00))
0.34          	((4.527180e-03 2.848397e-09 2.928374e-21) (3.321399e-03 1.855371e-10 -7.251491e-22) (0.000000e+00 0.000000e+00 0.000000e+00)) ((1.303683e-22 1.074926e-21 6.148999e-21) (4.800608e-22 -1.581125e-22 7.676521e-11) (0.000000e+00 0.000000e+00 0.000000e+00))
0.345         	((4.524612e-03 2.670158e-09 2.914582e-21) (3.299905e-03 1.831557e-10 -7.251977e-22) (0.000000e+00 0.000000e+00 0.000000e+00)) ((1.400814e-22 1.075004e-21 1.381787e-20) (4.779572e-22 -1.574673e-22 7.366041e-11) (0.000000e+00 0.000000e+00 0.000000e+00))
0.35          	((4.522673e-03 3.381129e-09 2.900827e-21) (3.278921e-03 1.845507e-10 -7.252236e-22) (0.000000e+00 0.000000e+00 0.000000e+00)) ((1.495802e-22 1.075211e-21 2.683417e-20) (4.759274e-22 -1.568457e-22 7.056316e-11) (0.000000e+00 0.000000e+00 0.000000e+00))
0.355         	((4.521224e-03 3.196662e-09 2.887119e-21) (3.258430e-03 1.845637e-10 -7.252320e-22) (0.000000e+00 0.000000e+00 0.000000e+00)) ((1.592585e-22 1.075543e-21 -3.268754e-21) (4.739422e-22 -1.562455e-22 6.747737e-11) (0.000000e+00 0.000000e+00 0.000000e+00))
0.36          	((4.520241e-03 3.112353e-09 2.873461e-21) (3.238413e-03 1.837680e-10 -7.252213e-22) (0.000000e+00 0.000000e+00 0.000000e+00)) ((1.688336e-22 1.075990e-21 -1.041222e-20) (4.720167e-22 -1.556665e-22 6.440700e-11) (0.000000e+00 0.000000e+00 0.000000e+00))
0.365         	((4.519637e-03 3.189153e-09 2.859863e-21) (3.218853e-03 1.822491e-10 -7.251850e-22) (0.000000e+00 0.000000e+00 0.000000e+00)) ((1.785029e-22 1.076546e-21 2.876762e-20) (4.701421e-22 -1.551071e-22 6.135594e-11) (0.000000e+00 0.000000e+00 0.000000e+00))
0.37          	((4.519510e-03 3.188324e-09 2.846243e-21) (3.199735e-03 1.817778e-10 -7.251471e-22) (0.000000e+00 0.000000e+00 0.000000e+00)) ((1.880804e-22 1.077209e-21 1.031358e-20) (4.683176e-22 -1.545677e-22 5.831966e-11) (0.000000e+00 0.000000e+00 0.000000e+00))
0.375         	((4.519840e-03 3.010102e-09 2.832651e-21) (3.181044e-03 1.803466e-10 -7.250735e-22) (0.000000e+00 0.000000e+00 0.000000e+00)) ((1.973993e-22 1.077976e-21 9.110810e-21) (4.665682e-22 -1.540481e-22 5.530360e-11) (0.000000e+00 0.000000e+00 0.000000e+00))
0.38          	((4.520531e-03 3.074482e-09 2.819119e-21) (3.162766e-03 1.792526e-10 -7.249852e-22) (0.000000e+00 0.000000e+00 0.000000e+00)) ((2.069075e-22 1.078844e-21 -2.507410e-20) (4.648500e-22 -1.535462e-22 5.231042e-11) (0.000000e+00 0.000000e+00 0.000000e+00))
0.385         	((4.521508e-03 3.116917e-09 2.805673e-21) (3.144887e-03 1.784243e-10 -7.248865e-22) (0.000000e+00 0.000000e+00 0.000000e+00)) ((2.165420e-22 1.079803e-21 1.758896e-20) (4.631651e-22 -1.530608e-22 4.933926e-11) (0.000000e+00 0.000000e+00 0.000000e+00))
0.39          	((4.522887e-03 3.089986e-09 2.792250e-21) (3.127394e-03 1.774709e-10 -7.247687e-22) (0.000000e+00 0.000000e+00 0.000000e+00)) ((2.261122e-22 1.080859e-21 3.372033e-20) (4.615330e-22 -1.525930e-22 4.639274e-11) (0.000000e+00 0.000000e+00 0.000000e+00))
0.395         	((4.524570e-03 3.084551e-09 2.778876e-21) (3.110276e-03 1.765078e-10 -7.246340e-22) (0.000000e+00 0.000000e+00 0.000000e+00)) ((2.357248e-22 1.081998e-21 1.432824e-20) (4.599329e-22 -1.521411e-22 4.347227e-11) (0.000000e+00 0.000000e+00 0.000000e+00))
0.4           	((4.526651e-03 3.122515e-09 2.765511e-21) (3.093520e-03 1.756781e-10 -7.244810e-22) (0.000000e+00 0.000000e+00 0.000000e+00)) ((2.453330e-22 1.083226e-21 4.375488e-20) (4.583744e-22 -1.517057e-22 4.057889e-11) (0.000000e+00 0.000000e+00 0.000000e+00))
0.405         	((4.528917e-03 3.133119e-09 2.752208e-21) (3.077115e-03 1.747644e-10 -7.243180e-22) (0.000000e+00 0.000000e+00 0.000000e+00)) ((2.548986e-22 1.084531e-21 -8.115741e-21) (4.568532e-22 -1.512850e-22 3.771346e-11) (0.000000e+00 0.000000e+00 0.000000e+00))
0.41          	((4.531472e-03 3.141026e-09 2.738949e-21) (3.061051e-03 1.738054e-10 -7.241357e-22) (0.000000e+00 0.000000e+00 0.000000e+00)) ((2.645925e-22 1.085908e-21 7.861857e-21) (4.553496e-22 -1.508788e-22 3.487745e-11) (0.000000e+00 0.000000e+00 0.000000e+00))
0.415         	((4.534364e-03 3.155087e-09 2.725711e-21) (3.045314e-03 1.729298e-10 -7.239359e-22) (0.000000e+00 0.000000e+00 0.000000e+00)) ((2.742878e-22 1.087369e-21 2.019142e-20) (4.538871e-22 -1.504876e-22 3.207084e-11) (0.000000e+00 0.000000e+00 0.000000e+00))
0.42          	((4.537638e-03 3.121147e-09 2.712498e-21) (3.029897e-03 1.718886e-10 -7.237162e-22) (0.000000e+00 0.000000e+00 0.000000e+00)) ((2.836553e-22 1.088907e-21 -1.269904e-20) (4.524850e-22 -1.501117e-22 2.929482e-11) (0.000000e+00 0.000000e+00 0.000000e+00))
0.425         	((4.541058e-03 3.232091e-09 2.699330e-21) (3.014788e-03 1.714158e-10 -7.234943e-22) (0.000000e+00 0.000000e+00 0.000000e+00)) ((2.933092e-22 1.090508e-21 1.202793e-20) (4.510868e-22 -1.497477e-22 2.655101e-11) (0.000000e+00 0.000000e+00 0.000000e+00))
0.43          	((4.544761e-03 2.411659e-09 2.686185e-21) (2.999978e-03 1.672349e-10 -7.232508e-22) (0.000000e+00 0.000000e+00 0.000000e+00)) ((3.029636e-22 1.092180e-21 1.951599e-20) (4.497247e-22 -1.493970e-22 2.383949e-11) (0.000000e+00 0.000000e+00 0.000000e+00))
0.435         	((4.548726e-03 3.050401e-09 2.673120e-21) (2.985460e-03 1.671377e-10 -7.229919e-22) (0.000000e+00 0.000000e+00 0.000000e+00)) ((3.125260e-22 1.093915e-21 1.631474e-20) (4.483999e-22 -1.490592e-22 2.116174e-11) (0.000000e+00 0.000000e+00 0.000000e+00))
0.44          	((4.552934e-03 3.688421e-09 2.660029e-21) (2.971225e-03 1.699193e-10 -7.227135e-22) (0.000000e+00 0.000000e+00 0.000000e+00)) ((3.221614e-22 1.095716e-21 1.889839e-20) (4.471050e-22 -1.487341e-22 1.851707e-11) (0.000000e+00 0.000000e+00 0.000000e+00))
0.445         	((4.557372e-03 3.219452e-09 2.646998e-21) (2.957263e-03 1.694135e-10 -7.224277e-22) (0.000000e+00 0.000000e+00 0.000000e+00)) ((3.317179e-22 1.097576e-21 -2.051510e-20) (4.458389e-22 -1.484208e-22 1.590450e-11) (0.000000e+00 0.000000e+00 0.000000e+00))
0.45          	((4.562069e-03 3.142143e-09 2.633986e-21) (2.943568e-03 1.683451e-10 -7.221223e-22) (0.000000e+00 0.000000e+00 0.000000e+00)) ((3.411964e-22 1.099497e-21 1.343355e-20) (4.446100e-22 -1.481197e-22 1.332551e-11) (0.000000e+00 0.000000e+00 0.000000e+00))
0.455         	((4.566996e-03 3.131734e-09 2.621003e-21) (2.930133e-03 1.673173e-10 -7.218006e-22) (0.000000e+00 0.000000e+00 0.000000e+00)) ((3.506446e-22 1.101474e-21 1.152011e-20) (4.434121e-22 -1.478301e-22 1.078161e-11) (0.000000e+00 0.000000e+00 0.000000e+00))
0.46          	((4.572130e-03 3.271829e-09 2.608057e-21) (2.916949e-03 1.670282e-10 -7.214727e-22) (0.000000e+00 0.000000e+00 0.000000e+00)) ((3.603881e-22 1.103515e-21 2.308032e-21) (4.422135e-22 -1.475509e-22 8.274081e-12) (0.000000e+00 0.000000e+00 0.000000e+00))
0.465         	((4.577270e-03 3.110761e-09 2.595202e-21) (2.904009e-03 1.659035e-10 -7.211331e-22) (0.000000e+00 0.000000e+00 0.000000e+00)) ((3.700863e-22 1.105585e-21 5.546698e-21) (4.410380e-22 -1.472808e-22 5.799753e-12) (0.000000e+00 0.000000e+00 0.000000e+00))
0.47          	((4.582623e-03 3.141610e-09 2.582375e-21) (2.891307e-03 1.650574e-10 -7.207801e-22) (0.000000e+00 0.000000e+00 0.000000e+00)) ((3.797966e-22 1.107708e-21 6.891046e-21) (4.398854e-22 -1.470213e-22 3.360882e-12) (0.000000e+00 0.000000e+00 0.000000e+00))
0.475         	((4.588277e-03 3.126482e-09 2.569560e-21) (2.878836e-03 1.643377e-10 -7.204123e-22) (0.000000e+00 0.000000e+00 0.000000e+00)) ((3.894396e-22 1.109891e-21 1.576257e-20) (4.387663e-22 -1.467730e-22 9.566026e-13) (0.000000e+00 0.000000e+00 0.000000e+00))
0.48          	((4.594019e-03 2.828824e-09 2.556809e-21) (2.866591e-03 1.622938e-10 -7.200327e-22) (0.000000e+00 0.000000e+00 0.000000e+00)) ((3.991088e-22 1.112110e-21 2.419266e-20) (4.376633e-22 -1.465335e-22 -1.409342e-12) (0.000000e+00 0.000000e+00 0.000000e+00))
0.485         	((4.599956e-03 3.465140e-09 2.544054e-21) (2.854566e-03 1.637935e-10 -7.196430e-22) (0.000000e+00 0.000000e+00 0.000000e+00)) ((4.088294e-22 1.114379e-21 -1.927713e-21) (4.365762e-22 -1.463039e-22 -3.743433e-12) (0.000000e+00 0.000000e+00 0.000000e+00))
0.49          	((4.606054e-03 2.706636e-09 2.531348e-21) (2.842756e-03 1.612496e-10 -7.192396e-22) (0.000000e+00 0.000000e+00 0.000000e+00)) ((4.185936e-22 1.116692e-21 3.761531e-21) (4.355065e-22 -1.460835e-22 -6.039583e-12) (0.000000e+00 0.000000e+00 0.000000e+00))
0.495         	((4.612300e-03 2.878038e-09 2.518694e-21) (2.831156e-03 1.602958e-10 -7.188252e-22) (0.000000e+00 0.000000e+00 0.000000e+00)) ((4.282953e-22 1.119041e-21 1.358705e-21) (4.344620e-22 -1.458719e-22 -8.299505e-12) (0.000000e+00 0.000000e+00 0.000000e+00))
0.5           	((4.618646e-03 3.003938e-09 2.506068e-21) (2.819761e-03 1.603003e-10 -7.183998e-22) (0.000000e+00 0.000000e+00 0.000000e+00)) ((4.381845e-22 1.121431e-21 1.953245e-20) (4.334148e-22 -1.456687e-22 -1.052304e-11) (0.000000e+00 0.000000e+00 0.000000e+00))
0.505         	((4.625145e-03 3.161842e-09 2.493494e-21) (2.808565e-03 1.609568e-10 -7.179635e-22) (0.000000e+00 0.000000e+00 0.000000e+00)) ((4.479513e-22 1.123853e-21 1.650088e-20) (4.323962e-22 -1.454742e-22 -1.271134e-11) (0.000000e+00 0.000000e+00 0.000000e+00))
0.51          	((4.631874e-03 3.282226e-09 2.480922e-21) (2.797562e-03 1.619666e-10 -7.175128e-22) (0.000000e+00 0.000000e+00 0.000000e+00)) ((4.576039e-22 1.126329e-21 1.874834e-21) (4.314120e-22 -1.452897e-22 -1.486589e-11) (0.000000e+00 0.000000e+00 0.000000e+00))
0.515         	((4.638659e-03 3.235856e-09 2.468415e-21) (2.786748e-03 1.623647e-10 -7.170542e-22) (0.000000e+00 0.000000e+00 0.000000e+00)) ((4.673822e-22 1.128828e-21 2.861612e-20) (4.304308e-22 -1.451119e-22 -1.698746e-11) (0.000000e+00 0.000000e+00 0.000000e+00))
0.52          	((4.645620e-03 3.173726e-09 2.455930e-21) (2.776117e-03 1.621719e-10 -7.165847e-22) (0.000000e+00 0.000000e+00 0.000000e+00)) ((4.772216e-22 1.131368e-21 3.256006e-20) (4.294620e-22 -1.449423e-22 -1.907007e-11) (0.000000e+00 0.000000e+00 0.000000e+00))
0.525         	((4.652621e-03 3.286530e-09 2.443515e-21) (2.765666e-03 1.624005e-10 -7.161075e-22) (0.000000e+00 0.000000e+00 0.000000e+00)) ((4.869964e-22 1.133929e-21 2.673240e-20) (4.285166e-22 -1.447797e-22 -2.111752e-11) (0.000000e+00 0.000000e+00 0.000000e+00))
0.53          	((4.659782e-03 3.362540e-09 2.431110e-21) (2.755389e-03 1.626967e-10 -7.156113e-22) (0.000000e+00 0.000000e+00 0.000000e+00)) ((4.966150e-22 1.136521e-21 1.440537e-20) (4.275998e-22 -1.446252e-22 -2.313086e-11) (0.000000e+00 0.000000e+00 0.000000e+00))
0.535         	((4.666869e-03 3.257621e-09 2.418838e-21) (2.745282e-03 1.623556e-10 -7.151147e-22) (0.000000e+00 0.000000e+00 0.000000e+00)) ((5.063779e-22 1.139116e-21 2.006674e-20) (4.266759e-22 -1.444753e-22 -2.511480e-11) (0.000000e+00 0.000000e+00 0.000000e+00))
0.54          	((4.674382e-03 3.247783e-09 2.406456e-21) (2.735342e-03 1.619559e-10 -7.145994e-22) (0.000000e+00 0.000000e+00 0.000000e+00)) ((5.157906e-22 1.141785e-21 1.022521e-20) (4.258041e-22 -1.443374e-22 -2.706423e-11) (0.000000e+00 0.000000e+00 0.000000e+00))
0.545         	((4.681813e-03 3.239114e-09 2.394186e-21) (2.725565e-03 1.615567e-10 -7.140834e-22) (0.000000e+00 0.000000e+00 0.000000e+00)) ((5.256403e-22 1.144461e-21 3.348181e-20) (4.249027e-22 -1.442030e-22 -2.897841e-11) (0.000000e+00 0.000000e+00 0.000000e+00))
0.55          	((4.689297e-03 3.267179e-09 2.381962e-21) (2.715946e-03 1.613118e-10 -7.135591e-22) (0.000000e+00 0.000000e+00 0.000000e+00)) ((5.354446e-22 1.147154e-21 -1.688566e-20) (4.240152e-22 -1.440749e-22 -3.085779e-11) (0.000000e+00 0.000000e+00 0.000000e+00))
0.555         	((4.696929e-03 3.290874e-09 2.369779e-21) (2.706483e-03 1.611879e-10 -7.130207e-22) (0.000000e+00 0.000000e+00 0.000000e+00)) ((5.452098e-22 1.149878e-21 1.250428e-20) (4.231462e-22 -1.439540e-22 -3.270587e-11) (0.000000e+00 0.000000e+00 0.000000e+00))