/*--------------------------------*- C++ -*----------------------------------*\
  =========                 |
  \\      /  F ield         | OpenFOAM: The Open Source CFD Toolbox
   \\    /   O peration     | Website:  https://openfoam.org
    \\  /    A nd           | Version:  7
     \\/     M anipulation  |
\*---------------------------------------------------------------------------*/
FoamFile
{
    version     2.0;
    format      ascii;
    class       volVectorField;
    location    "11.9988";
    object      U;
}
// * * * * * * * * * * * * * * * * * * * * * * * * * * * * * * * * * * * * * //

dimensions      [0 1 -1 0 0 0 0];

internalField   nonuniform List<vector> 
18750
(
(-0.0477591 0.0293929 -1.91437e-20)
(-0.164048 0.0345548 6.04343e-21)
(-0.284767 0.0319359 5.76186e-20)
(-0.389949 0.0298973 1.24781e-20)
(-0.492494 0.0278476 -2.78455e-20)
(-0.585798 0.0259182 -6.60681e-20)
(-0.674394 0.0240391 6.55066e-20)
(-0.755431 0.0222733 4.21791e-20)
(-0.831705 0.0206335 -3.11264e-20)
(-0.901936 0.0191774 -8.22385e-20)
(-0.968254 0.0179118 3.08445e-19)
(-1.02988 0.0168309 -2.50243e-19)
(-1.08842 0.0158954 1.47363e-19)
(-1.14331 0.0151104 -2.8453e-19)
(-1.19575 0.0145074 6.62423e-20)
(-0.0496305 0.0876832 1.20399e-20)
(-0.165316 0.103243 1.55863e-20)
(-0.284531 0.0954577 5.72672e-21)
(-0.388254 0.0893693 7.99096e-20)
(-0.489273 0.0832444 1.60439e-19)
(-0.580988 0.0774699 2.08191e-19)
(-0.667871 0.0718421 -1.72517e-19)
(-0.747058 0.0665494 2.74678e-19)
(-0.821308 0.0616305 2.52279e-19)
(-0.889343 0.0572583 -7.69057e-20)
(-0.953298 0.0534572 -3.26129e-19)
(-1.01238 0.0502178 1.76971e-20)
(-1.06814 0.0474229 7.27454e-20)
(-1.11993 0.0450728 1.86437e-19)
(-1.16884 0.0432395 -2.81009e-19)
(-0.0533008 0.14451 3.26873e-20)
(-0.167818 0.170693 4.32281e-20)
(-0.284085 0.157958 -1.3758e-19)
(-0.384958 0.147907 6.62657e-21)
(-0.483018 0.137784 -3.00159e-19)
(-0.571684 0.128211 9.48611e-20)
(-0.65531 0.118868 -2.60712e-19)
(-0.731021 0.11007 -3.2631e-20)
(-0.801512 0.101884 -1.94777e-19)
(-0.865521 0.0945953 5.66949e-19)
(-0.925193 0.0882591 7.37859e-19)
(-0.979756 0.0828811 6.39664e-19)
(-1.03066 0.0782716 3.71893e-19)
(-1.0771 0.0743894 2.49923e-19)
(-1.12004 0.0712919 -4.57675e-19)
(-0.0586295 0.198946 -1.53415e-19)
(-0.171488 0.236113 1.76287e-19)
(-0.283475 0.218791 -1.28196e-19)
(-0.380219 0.204936 -2.61276e-19)
(-0.474052 0.190953 4.3893e-19)
(-0.55842 0.17767 -4.01383e-19)
(-0.637525 0.16468 5.76658e-19)
(-0.708489 0.152424 -4.78359e-19)
(-0.773932 0.141003 3.28113e-19)
(-0.832628 0.130816 -7.95161e-19)
(-0.88675 0.121961 -1.12066e-18)
(-0.935582 0.114485 5.98756e-20)
(-0.980504 0.108138 -2.09509e-19)
(-1.02054 0.1028 -4.48578e-19)
(-1.05644 0.0984488 1.68262e-18)
(-0.0654114 0.250124 -1.08378e-19)
(-0.176212 0.298742 2.43069e-19)
(-0.282742 0.27736 5.95114e-20)
(-0.374229 0.259948 2.10456e-19)
(-0.46277 0.242314 -2.66654e-19)
(-0.541842 0.22546 1.13731e-19)
(-0.615471 0.208935 1.35548e-18)
(-0.680801 0.193308 2.03671e-19)
(-0.740373 0.178724 3.56035e-19)
(-0.79301 0.165689 -1.20781e-19)
(-0.840935 0.154359 1.09574e-19)
(-0.883542 0.144847 -4.08806e-20)
(-0.922173 0.136864 -1.17437e-18)
(-0.955662 0.130191 -6.53424e-19)
(-0.984511 0.124662 -1.90954e-18)
(-0.0734385 0.297315 2.47558e-19)
(-0.181873 0.357852 6.84747e-20)
(-0.281899 0.333131 -1.15456e-19)
(-0.36717 0.312513 -8.31929e-20)
(-0.449577 0.291511 8.39317e-20)
(-0.522607 0.271291 -1.17697e-18)
(-0.590103 0.251397 -1.51257e-19)
(-0.649258 0.232535 7.48049e-20)
(-0.702532 0.214901 -5.30209e-19)
(-0.748816 0.199112 -7.15967e-19)
(-0.790382 0.185386 5.14485e-19)
(-0.82677 0.173918 -5.03986e-19)
(-0.859321 0.164414 1.54105e-18)
(-0.886676 0.156548 -1.19305e-18)
(-0.908959 0.149955 2.60552e-18)
(-0.0824544 0.339794 -2.12515e-19)
(-0.188264 0.412762 -3.68141e-19)
(-0.280885 0.385675 1.44841e-19)
(-0.359199 0.362295 1.07684e-18)
(-0.434852 0.338281 1.07258e-18)
(-0.501323 0.314961 -3.62916e-19)
(-0.562279 0.291923 1.82164e-19)
(-0.614996 0.270012 1.14092e-19)
(-0.661849 0.249495 1.12904e-18)
(-0.701797 0.231091 1.54287e-18)
(-0.737138 0.215085 -7.44705e-19)
(-0.767558 0.201761 -1.40684e-18)
(-0.794416 0.19084 -2.59005e-18)
(-0.816154 0.181914 4.42204e-19)
(-0.832403 0.174365 -3.18303e-18)
(-0.0921406 0.376801 -1.79492e-19)
(-0.195134 0.462927 -2.13645e-19)
(-0.279598 0.434676 -1.5561e-18)
(-0.350437 0.40904 5.41656e-19)
(-0.418913 0.382431 -6.50361e-19)
(-0.478504 0.356344 4.3087e-19)
(-0.532716 0.330447 4.44089e-19)
(-0.578925 0.305726 -1.94441e-18)
(-0.61942 0.282538 -1.27481e-18)
(-0.653215 0.261702 -2.12355e-18)
(-0.682575 0.243561 -3.56658e-19)
(-0.707297 0.22848 1.4952e-18)
(-0.728757 0.21622 5.79854e-18)
(-0.745237 0.206328 -8.80113e-19)
(-0.75581 0.197916 1.56597e-18)
(-0.102092 0.407637 9.71139e-19)
(-0.202171 0.507905 3.91841e-19)
(-0.277914 0.47992 1.70007e-18)
(-0.340964 0.452576 -1.24157e-18)
(-0.402016 0.423846 5.7618e-19)
(-0.454562 0.395389 -9.5057e-19)
(-0.501966 0.366969 -2.15761e-18)
(-0.541719 0.339721 1.90377e-18)
(-0.576011 0.314108 2.22011e-19)
(-0.60388 0.291048 3.15931e-18)
(-0.62749 0.270933 -1.01779e-18)
(-0.646691 0.254192 -4.53757e-18)
(-0.662865 0.240645 -2.74848e-18)
(-0.674231 0.229843 2.84685e-19)
(-0.679366 0.220645 -1.31984e-18)
(-0.111812 0.431681 -7.97698e-19)
(-0.208981 0.547351 -4.56463e-19)
(-0.27568 0.521263 5.7156e-19)
(-0.330834 0.492793 8.79669e-20)
(-0.384339 0.462462 -2.2559e-19)
(-0.429799 0.432078 -2.56727e-19)
(-0.470434 0.401517 9.87774e-19)
(-0.503848 0.372059 -1.14719e-18)
(-0.532109 0.344289 1.11737e-18)
(-0.554263 0.319226 1.37343e-18)
(-0.572304 0.297304 -2.41896e-18)
(-0.586067 0.278993 4.54246e-18)
(-0.596928 0.26417 5.2814e-19)
(-0.603184 0.252451 7.0919e-19)
(-0.603095 0.242546 1.62757e-18)
(-0.120735 0.44841 1.47501e-18)
(-0.21512 0.580986 -4.82707e-19)
(-0.272724 0.558634 -2.15615e-18)
(-0.320041 0.529628 8.45015e-19)
(-0.366004 0.498264 -4.88302e-19)
(-0.404431 0.466454 5.71378e-19)
(-0.438399 0.43416 4.16143e-18)
(-0.465616 0.402824 1.97626e-18)
(-0.488014 0.373171 1.29536e-18)
(-0.504622 0.346321 -4.30055e-18)
(-0.517227 0.322751 4.64057e-18)
(-0.525582 0.302951 1.67138e-18)
(-0.531024 0.28684 -2.68477e-18)
(-0.532063 0.274166 3.24015e-18)
(-0.526926 0.263655 -1.0713e-19)
(-0.128181 0.457364 2.85568e-19)
(-0.220111 0.60874 7.84208e-20)
(-0.268875 0.591945 -1.36835e-19)
(-0.308591 0.563062 -1.50712e-18)
(-0.347062 0.531278 2.98642e-18)
(-0.378588 0.498548 -1.51571e-18)
(-0.406048 0.464952 -4.40557e-18)
(-0.42722 0.432087 1.32227e-18)
(-0.443894 0.400827 -2.1022e-18)
(-0.455079 0.372394 3.22142e-18)
(-0.462336 0.347325 -5.73981e-18)
(-0.465307 0.326123 4.42431e-19)
(-0.465227 0.308729 2.39316e-18)
(-0.460839 0.295013 -4.99044e-18)
(-0.450631 0.283858 -1.16834e-18)
(-0.133305 0.458092 -9.63649e-19)
(-0.223448 0.630484 2.78844e-19)
(-0.263966 0.621108 8.51947e-19)
(-0.296377 0.593113 -3.84527e-20)
(-0.327543 0.561554 -4.04515e-18)
(-0.35237 0.528461 3.90294e-19)
(-0.373492 0.493979 1.43249e-18)
(-0.388777 0.45993 -3.84338e-18)
(-0.399843 0.427329 2.83361e-18)
(-0.405691 0.397505 -2.57976e-18)
(-0.407657 0.371073 6.98876e-18)
(-0.405279 0.348569 -2.89433e-18)
(-0.399604 0.32991 3.47101e-18)
(-0.38942 0.315005 7.0053e-18)
(-0.373878 0.302957 3.01185e-18)
(-0.135441 0.451009 -3.75853e-19)
(-0.224746 0.646358 -4.05991e-21)
(-0.257923 0.645943 -3.6324e-20)
(-0.28338 0.619885 -9.55437e-20)
(-0.307422 0.58919 -1.94541e-18)
(-0.325804 0.556216 -8.58013e-19)
(-0.340818 0.52128 1.39193e-18)
(-0.350358 0.486403 8.31658e-19)
(-0.355917 0.452732 -4.81507e-18)
(-0.356477 0.421701 -2.69831e-19)
(-0.353158 0.39402 -1.37184e-18)
(-0.345422 0.370292 2.76869e-18)
(-0.334158 0.350454 -3.83757e-18)
(-0.317969 0.334273 -5.33043e-19)
(-0.296202 0.320778 -3.40419e-18)
(-0.134021 0.436323 1.66493e-18)
(-0.223497 0.655837 -1.4729e-18)
(-0.250526 0.666404 -2.02361e-18)
(-0.269386 0.643477 3.60452e-18)
(-0.286718 0.614239 3.18094e-18)
(-0.298971 0.581956 4.05643e-18)
(-0.308058 0.546938 1.7087e-19)
(-0.312011 0.511575 2.72118e-18)
(-0.312143 0.477083 3.62812e-18)
(-0.307449 0.44502 5.36224e-18)
(-0.298822 0.416197 -2.45153e-18)
(-0.285658 0.39132 5.11716e-18)
(-0.268858 0.370386 -3.71387e-20)
(-0.246739 0.352968 -2.56922e-18)
(-0.217095 0.337369 -6.3401e-18)
(-0.128699 0.413897 -1.04258e-18)
(-0.219236 0.658434 1.64029e-18)
(-0.241698 0.682684 1.09064e-18)
(-0.254435 0.664066 -3.38497e-18)
(-0.265413 0.636881 -1.58191e-18)
(-0.271821 0.605608 -2.89172e-19)
(-0.27529 0.570944 -2.10786e-18)
(-0.273776 0.535462 -3.59569e-18)
(-0.268555 0.500412 -6.07532e-18)
(-0.25862 0.467499 -2.61206e-18)
(-0.244653 0.437641 3.63256e-18)
(-0.225898 0.411604 -7.54466e-18)
(-0.203373 0.389587 2.6009e-19)
(-0.176262 0.371169 4.73628e-18)
(-0.136751 0.3537 6.79249e-18)
(-0.119265 0.383571 -2.49034e-18)
(-0.211683 0.653924 1.94437e-18)
(-0.2312 0.694725 -3.3692e-18)
(-0.238537 0.681863 -1.6171e-18)
(-0.243708 0.657283 -9.16577e-20)
(-0.24448 0.627241 2.23038e-18)
(-0.242505 0.593413 3.58936e-18)
(-0.235694 0.558095 1.17359e-18)
(-0.225177 0.522716 1.69513e-18)
(-0.209988 0.489118 -4.77829e-18)
(-0.190682 0.458353 1.22411e-19)
(-0.166218 0.431235 -3.60633e-18)
(-0.137541 0.408088 -2.65852e-18)
(-0.105761 0.3885 -7.58042e-18)
(-0.0568721 0.370611 -9.94015e-20)
(-0.105692 0.345458 2.19201e-18)
(-0.200785 0.642193 3.4663e-19)
(-0.218955 0.702325 5.30011e-19)
(-0.221709 0.696751 4.01913e-18)
(-0.221595 0.675299 1.69243e-18)
(-0.217112 0.647049 -2.07083e-18)
(-0.209846 0.614368 1.62522e-18)
(-0.197881 0.579472 -9.35798e-19)
(-0.182111 0.544015 -1.85204e-18)
(-0.161597 0.509892 2.10865e-18)
(-0.136926 0.478362 -7.02389e-18)
(-0.106742 0.450172 -2.78828e-19)
(-0.0713667 0.42571 -3.91406e-18)
(-0.035828 0.405499 6.04353e-18)
(0.0246757 0.388772 5.54151e-19)
(-0.0883726 0.299995 -8.32597e-19)
(-0.186717 0.622946 -2.34198e-18)
(-0.205084 0.705027 6.23184e-19)
(-0.204066 0.708523 -4.61244e-18)
(-0.199129 0.690933 -3.14827e-18)
(-0.18978 0.664985 -1.76679e-18)
(-0.177447 0.633746 -3.0761e-18)
(-0.160454 0.599554 2.96549e-18)
(-0.139478 0.564243 4.14018e-18)
(-0.113524 0.529752 8.00907e-18)
(-0.0833937 0.497612 -3.42449e-19)
(-0.0477367 0.468734 8.89225e-18)
(-0.00416552 0.442798 3.48029e-18)
(0.0329341 0.421459 2.69884e-18)
(0.108431 0.408018 -5.97785e-18)
(-0.0684965 0.247855 1.43079e-18)
(-0.169909 0.595541 3.56198e-18)
(-0.18983 0.702052 2.44827e-18)
(-0.185805 0.716868 3.20957e-18)
(-0.176469 0.704151 1.07462e-20)
(-0.162592 0.680962 1.25647e-18)
(-0.145451 0.651425 3.99814e-20)
(-0.123562 0.618207 -2.26623e-18)
(-0.0974621 0.583316 3.52634e-18)
(-0.0659351 0.548635 -1.22144e-17)
(-0.029915 0.515876 3.54723e-18)
(0.0101835 0.486635 -2.33943e-18)
(0.0642956 0.459158 4.53414e-19)
(0.0999953 0.436596 -3.43298e-18)
(0.197228 0.431474 -3.83853e-18)
(-0.0489048 0.190033 -2.33737e-18)
(-0.151091 0.558883 3.12321e-18)
(-0.173458 0.692189 -7.86854e-19)
(-0.167155 0.721241 -1.35119e-18)
(-0.153836 0.714795 2.82729e-18)
(-0.135756 0.694836 2.91701e-19)
(-0.114067 0.667325 -8.41108e-19)
(-0.0873763 0.635289 -9.92093e-20)
(-0.0562693 0.60098 -2.2703e-18)
(-0.0192645 0.566376 5.85157e-18)
(0.0238756 0.532933 3.53615e-18)
(0.0665643 0.504277 1.8621e-18)
(0.135363 0.475336 -1.63692e-19)
(0.161428 0.443827 4.3838e-18)
(0.290645 0.458984 -3.84682e-19)
(-0.0340315 0.129384 6.85513e-19)
(-0.131314 0.511476 -7.41403e-19)
(-0.156158 0.673856 5.83502e-19)
(-0.148338 0.720771 2.50244e-18)
(-0.131509 0.722483 -1.59684e-18)
(-0.109523 0.706448 -1.03478e-18)
(-0.0835874 0.681213 -1.9313e-18)
(-0.0522 0.650563 1.51573e-18)
(-0.0160406 0.616993 -1.56867e-18)
(0.0256733 0.582795 -1.77898e-18)
(0.0782457 0.547969 -3.06861e-18)
(0.119765 0.520076 -1.77561e-18)
(0.211852 0.498004 6.3413e-18)
(0.218572 0.444703 -8.7075e-18)
(0.382462 0.476775 -2.22774e-19)
(-0.0256625 0.0719498 2.94555e-18)
(-0.111532 0.45154 -1.14012e-18)
(-0.137992 0.645275 -2.96581e-18)
(-0.129513 0.7142 -7.91246e-19)
(-0.109785 0.726536 4.16732e-18)
(-0.0842309 0.715431 -8.62918e-20)
(-0.0543622 0.692965 1.99454e-18)
(-0.0184996 0.663785 -1.09583e-18)
(0.0232229 0.630773 -4.19694e-18)
(0.0677573 0.597786 9.68111e-18)
(0.133938 0.561593 -7.04249e-18)
(0.166985 0.528004 2.06241e-18)
(0.291502 0.524662 -9.02179e-18)
(0.277644 0.453225 3.19227e-18)
(0.47079 0.486768 2.58619e-18)
(-0.0198596 0.0247137 -1.04618e-18)
(-0.0915875 0.377365 -3.37586e-18)
(-0.118891 0.604895 1.5276e-18)
(-0.110825 0.699784 2.70355e-19)
(-0.0889667 0.725834 -3.74464e-18)
(-0.060197 0.721265 2.30852e-18)
(-0.0267752 0.702084 1.09164e-19)
(0.0128435 0.674825 -5.6436e-19)
(0.0617013 0.641818 -4.27465e-18)
(0.10544 0.609962 -5.14181e-19)
(0.191662 0.577569 5.56111e-18)
(0.208674 0.527534 4.53105e-19)
(0.367968 0.542601 1.29564e-18)
(0.339386 0.466941 3.67757e-18)
(0.554318 0.495439 -9.31702e-18)
(-0.0117154 -0.00798923 -1.59809e-18)
(-0.0718834 0.289361 4.60515e-20)
(-0.0987524 0.551263 -1.93411e-18)
(-0.0924118 0.67529 1.56754e-18)
(-0.0693773 0.718787 2.11469e-18)
(-0.0379291 0.723128 -1.57676e-18)
(-0.000986074 0.708212 -2.7126e-19)
(0.0406712 0.683214 -1.28e-18)
(0.0994057 0.650019 3.23365e-18)
(0.137239 0.615851 6.17343e-19)
(0.249338 0.595715 -7.99562e-18)
(0.248996 0.52786 2.13769e-18)
(0.437081 0.548375 1.32158e-18)
(0.401058 0.477651 -5.9438e-18)
(0.629757 0.497974 1.37946e-18)
(-0.00127183 -0.0254 3.62742e-19)
(-0.0549281 0.19505 9.67397e-19)
(-0.0784494 0.48293 1.82716e-18)
(-0.0744472 0.637961 -1.53104e-18)
(-0.051316 0.703257 -5.38585e-20)
(-0.0180946 0.719751 3.81614e-18)
(0.0227585 0.710315 -1.66485e-19)
(0.0637741 0.68851 1.79291e-20)
(0.136073 0.656884 5.14305e-18)
(0.16302 0.613406 -2.90293e-18)
(0.302241 0.608436 2.05714e-18)
(0.290165 0.53224 -5.70873e-18)
(0.497121 0.54789 4.82809e-19)
(0.461443 0.484401 -1.44925e-18)
(0.694682 0.49599 2.56434e-18)
(0.00771506 -0.0309386 -2.67187e-19)
(-0.040511 0.109707 1.22401e-18)
(-0.0591815 0.399345 -1.61072e-18)
(-0.0574526 0.585076 3.40022e-18)
(-0.0350897 0.676627 -2.82344e-18)
(-0.00175614 0.709411 -2.50969e-18)
(0.0443156 0.70731 -1.55286e-18)
(0.0809961 0.688036 -3.26776e-18)
(0.169841 0.663422 -6.21231e-18)
(0.184862 0.606316 9.51116e-19)
(0.345513 0.609026 4.7252e-18)
(0.331341 0.53545 3.71163e-18)
(0.544859 0.540111 6.1605e-19)
(0.520571 0.487648 -3.03427e-18)
(0.74682 0.487114 -1.4916e-18)
(0.0133422 -0.0301135 6.55155e-19)
(-0.0241232 0.047398 1.15509e-18)
(-0.0411165 0.30129 -4.90171e-18)
(-0.0418546 0.514793 -3.3715e-18)
(-0.0210262 0.6356 -9.92876e-20)
(0.00990319 0.689345 2.64635e-18)
(0.0626751 0.698235 -9.32565e-19)
(0.0923242 0.679969 7.24508e-18)
(0.197343 0.665378 6.09394e-19)
(0.204851 0.599443 -3.84396e-18)
(0.375173 0.598103 -3.61657e-18)
(0.371698 0.532718 -5.64261e-18)
(0.575541 0.522908 6.20818e-18)
(0.575491 0.483959 4.03368e-18)
(0.785832 0.46655 4.44699e-21)
(0.0160399 -0.0269723 -1.82181e-18)
(-0.00534446 0.00964109 -3.3979e-18)
(-0.0253945 0.19721 2.44487e-18)
(-0.0288807 0.426801 2.99419e-18)
(-0.00926079 0.577297 1.84608e-18)
(0.0157461 0.655364 -1.82646e-18)
(0.0759833 0.680476 4.62306e-18)
(0.0977391 0.663424 -6.41051e-18)
(0.214332 0.658702 6.99926e-18)
(0.224806 0.589853 4.37969e-18)
(0.387191 0.581393 -1.31646e-18)
(0.411198 0.520433 -1.80026e-18)
(0.587218 0.500281 -2.48076e-18)
(0.62281 0.469399 -4.8137e-18)
(0.809089 0.435904 5.75666e-18)
(0.0172393 -0.0238762 5.15619e-18)
(0.0112636 -0.00970672 3.97254e-18)
(-0.0108479 0.109491 9.08367e-19)
(-0.0193848 0.325996 -4.86679e-20)
(-0.000956132 0.499071 -6.33948e-19)
(0.015939 0.604502 -7.61911e-19)
(0.0811013 0.649801 -3.6062e-18)
(0.0980201 0.635678 6.09734e-18)
(0.215014 0.6408 -4.63903e-18)
(0.244133 0.571526 -2.93394e-20)
(0.379986 0.557479 4.31051e-18)
(0.451803 0.500022 2.92732e-18)
(0.578752 0.472036 2.94097e-18)
(0.665076 0.444627 -3.159e-20)
(0.807798 0.39381 -3.46342e-18)
(0.0189658 -0.0214388 -3.09608e-18)
(0.0243139 -0.0177597 -3.22012e-18)
(0.00580415 0.0529349 1.01443e-18)
(-0.0117522 0.22421 -1.63949e-18)
(0.00388705 0.403567 -7.53673e-19)
(0.00971771 0.531734 2.70671e-18)
(0.0760264 0.605338 -7.24554e-19)
(0.0932538 0.591844 -6.38563e-19)
(0.195204 0.606378 -1.86003e-18)
(0.263833 0.544757 -4.10604e-18)
(0.345739 0.515783 1.88853e-18)
(0.501563 0.474875 -2.20414e-18)
(0.53491 0.432384 -3.39787e-18)
(0.715936 0.393436 -1.51396e-18)
(0.779153 0.375371 6.12677e-18)
(0.022238 -0.0199939 3.49847e-18)
(0.035729 -0.0206039 -2.75758e-18)
(0.0234321 0.0233708 -4.56186e-18)
(-0.00190954 0.139805 4.65303e-19)
(0.00471291 0.303204 1.11688e-18)
(0.000591107 0.4383 -7.42704e-19)
(0.0545257 0.538895 2.0626e-18)
(0.0883622 0.539501 4.42976e-19)
(0.150752 0.541961 -3.00893e-19)
(0.276595 0.514678 7.10659e-20)
(0.289493 0.441508 -1.96459e-18)
(0.529745 0.448537 2.34638e-19)
(0.428667 0.325959 1.09195e-18)
(0.786427 0.374914 -8.42092e-19)
(0.609381 0.24665 5.90574e-18)
(0.027179 -0.0198687 7.34411e-19)
(0.0464285 -0.0220327 -1.57501e-18)
(0.0384039 0.00922473 4.43729e-18)
(0.0105744 0.0845431 3.46051e-18)
(0.00164365 0.213241 -3.47445e-18)
(-0.00953199 0.337555 -2.14744e-19)
(0.0219135 0.44856 -1.55007e-18)
(0.0677057 0.472272 -5.39733e-19)
(0.108379 0.465518 3.89998e-18)
(0.235061 0.441241 1.88834e-18)
(0.266363 0.378513 2.57325e-18)
(0.438913 0.348452 -2.07507e-18)
(0.398752 0.248805 1.34521e-18)
(0.737346 0.301491 -8.01488e-19)
(0.596768 0.169875 -7.55188e-18)
(0.0332997 -0.0211898 5.84356e-19)
(0.0557888 -0.0242887 9.47851e-19)
(0.0485389 0.000553688 -2.44136e-18)
(0.0205067 0.0524268 -2.80751e-18)
(-0.00347637 0.1428 -2.58578e-18)
(-0.0233116 0.245112 2.23656e-19)
(-0.0130795 0.347521 1.81815e-18)
(0.0254718 0.382263 -3.24286e-18)
(0.0659336 0.386738 -1.66971e-18)
(0.16336 0.333298 8.92335e-19)
(0.221605 0.304314 -2.40531e-18)
(0.338819 0.229347 1.9959e-19)
(0.469349 0.232397 1.65042e-18)
(0.741215 0.246169 -2.3227e-18)
(0.92818 0.301398 1.84006e-18)
(0.0395241 -0.0236391 -1.31175e-18)
(0.0621712 -0.0283138 2.98231e-18)
(0.0524158 -0.0085773 1.9882e-18)
(0.0226719 0.0302212 1.34734e-18)
(-0.0117039 0.091189 2.21357e-18)
(-0.0429577 0.167843 -2.22756e-19)
(-0.0497759 0.249867 -1.71104e-18)
(-0.0296157 0.279881 3.64931e-19)
(0.0112872 0.295006 2.15064e-18)
(0.0815001 0.222116 -3.57061e-18)
(0.147592 0.191676 -1.73271e-18)
(0.367075 0.180612 8.86348e-20)
(0.596241 0.219034 -5.07751e-19)
(0.92676 0.294301 2.86759e-18)
(1.09743 0.341362 -2.57717e-18)
(0.0443955 -0.0265296 1.42026e-18)
(0.0637985 -0.033931 9.39425e-19)
(0.0488955 -0.0201975 -1.23439e-19)
(0.0150575 0.00902554 -8.72248e-19)
(-0.0268651 0.0505201 1.98348e-19)
(-0.0691733 0.103425 -2.56778e-18)
(-0.0912486 0.161883 5.74536e-19)
(-0.0902233 0.177819 -1.14612e-18)
(-0.0648929 0.187254 -1.26119e-18)
(0.00333338 0.115974 2.48955e-18)
(0.188766 0.124161 3.69332e-18)
(0.512677 0.188844 1.78363e-18)
(0.806649 0.256792 1.75636e-18)
(1.06361 0.326745 -2.22012e-18)
(1.15084 0.331691 -2.29583e-18)
(0.0464554 -0.0289846 1.16157e-18)
(0.0594411 -0.0401819 -2.24784e-18)
(0.0375413 -0.0340139 -1.08776e-18)
(-0.0019804 -0.0142908 -2.4205e-18)
(-0.0512142 0.0133308 1.09808e-18)
(-0.103799 0.0470738 2.71508e-18)
(-0.143876 0.082651 -3.12937e-18)
(-0.163154 0.0795501 1.0901e-18)
(-0.137272 0.0803461 2.02292e-18)
(0.0414241 0.0680568 6.34531e-19)
(0.374531 0.140769 -2.58611e-18)
(0.710335 0.22421 -1.02483e-18)
(0.971227 0.292886 7.82219e-21)
(1.12112 0.324132 1.27377e-18)
(1.2338 0.35642 4.86412e-18)
(0.0446635 -0.0301008 -1.89285e-18)
(0.0489204 -0.0456498 -1.89542e-18)
(0.0190933 -0.0481381 1.05471e-18)
(-0.0271633 -0.0381301 4.29964e-18)
(-0.0844864 -0.0216616 -2.80452e-18)
(-0.148094 -0.00219308 8.23523e-19)
(-0.203725 0.0142381 1.24179e-18)
(-0.215299 0.00131659 -8.89969e-20)
(-0.109861 0.0207276 2.46178e-19)
(0.227006 0.0936587 1.32999e-18)
(0.591789 0.183311 -1.27094e-18)
(0.881827 0.263989 -2.42822e-18)
(1.06174 0.301815 -2.06272e-18)
(1.20034 0.346568 1.69124e-18)
(1.26445 0.35685 4.8671e-19)
(0.0387241 -0.0291849 -4.60947e-19)
(0.0332326 -0.0486135 3.7142e-18)
(-0.00403358 -0.05928 7.63334e-19)
(-0.0565669 -0.0576152 1.09724e-18)
(-0.119583 -0.048557 1.01593e-18)
(-0.187292 -0.0356212 1.0069e-18)
(-0.238122 -0.0253823 -3.79262e-19)
(-0.194435 -0.0302537 6.92611e-19)
(0.0567041 0.0417823 3.83549e-19)
(0.451767 0.146137 1.74461e-18)
(0.778609 0.228376 6.2967e-20)
(0.998261 0.286519 1.68688e-18)
(1.15302 0.326667 -1.29494e-18)
(1.23341 0.350396 -1.19068e-18)
(1.27203 0.351179 7.83087e-19)
(0.0293243 -0.0259063 1.65282e-18)
(0.0145111 -0.0474098 -1.52895e-18)
(-0.027783 -0.0637863 1.35638e-19)
(-0.0827107 -0.0669141 -2.25069e-18)
(-0.14343 -0.0591717 -1.8565e-18)
(-0.199523 -0.0417553 3.20399e-18)
(-0.223877 -0.0236662 9.99539e-19)
(-0.0839291 -0.00148352 -1.48759e-18)
(0.282104 0.107884 3.94149e-19)
(0.651737 0.200609 -4.68595e-18)
(0.920344 0.265425 1.6144e-18)
(1.09951 0.315388 -1.84412e-18)
(1.19754 0.335097 2.08395e-18)
(1.25017 0.350504 -2.62848e-19)
(1.29025 0.355881 -1.15909e-18)
(0.0179554 -0.0205107 -2.57133e-18)
(-0.00443628 -0.0413785 -2.60562e-18)
(-0.0479291 -0.0598551 -2.67556e-18)
(-0.0989456 -0.063798 -1.97738e-18)
(-0.147643 -0.0522215 1.34801e-18)
(-0.178901 -0.0235014 -5.47662e-18)
(-0.166139 0.00041755 5.07352e-19)
(0.0962195 0.0677421 5.05789e-19)
(0.490345 0.17283 2.94985e-19)
(0.81505 0.247879 2.20561e-18)
(1.0343 0.299734 -1.74175e-18)
(1.15839 0.330136 4.00649e-18)
(1.22805 0.341878 -8.11986e-19)
(1.26906 0.356144 -1.49989e-18)
(1.28627 0.349847 8.28979e-19)
(0.00634496 -0.0138439 4.52195e-19)
(-0.0212179 -0.0313793 2.10748e-18)
(-0.0616819 -0.0486749 2.97647e-18)
(-0.102735 -0.0503755 5.05931e-19)
(-0.131598 -0.0318583 2.32481e-18)
(-0.13431 0.00919044 1.32463e-18)
(-0.0680353 0.030967 4.0458e-19)
(0.292183 0.133975 -2.37736e-18)
(0.6701 0.227352 -1.61141e-19)
(0.94564 0.287245 1.1077e-18)
(1.11029 0.323277 4.24711e-18)
(1.20124 0.342825 -5.60344e-19)
(1.24937 0.348809 1.36522e-18)
(1.26811 0.353107 1.25174e-18)
(1.28535 0.347561 1.93579e-18)
(-0.00408029 -0.00706255 8.23254e-19)
(-0.0345993 -0.0194879 -2.74826e-18)
(-0.0687059 -0.0335381 -6.02872e-19)
(-0.0958576 -0.032079 4.38298e-20)
(-0.100876 -0.00640803 -4.27781e-18)
(-0.0834798 0.0355828 1.09031e-18)
(0.0619861 0.0740115 -5.94615e-19)
(0.474258 0.188502 7.32933e-19)
(0.818832 0.271129 2.63311e-18)
(1.04158 0.316406 -9.83531e-19)
(1.16554 0.341512 -3.18446e-18)
(1.22744 0.350936 -4.35178e-19)
(1.25453 0.349405 -4.57076e-19)
(1.27066 0.353236 -9.84878e-19)
(1.28392 0.345713 -2.10094e-18)
(-0.0125333 -0.00118832 1.72102e-19)
(-0.044409 -0.00795879 7.42751e-19)
(-0.0705189 -0.0182011 -1.89837e-18)
(-0.0822715 -0.0148794 7.95179e-19)
(-0.0660863 0.0151003 1.75515e-18)
(-0.0279942 0.0391489 -7.49553e-19)
(0.226164 0.120987 -9.83352e-20)
(0.640297 0.23209 -1.81838e-18)
(0.936988 0.304196 3.95566e-19)
(1.11208 0.337808 -1.52199e-18)
(1.20004 0.353573 1.48499e-18)
(1.24013 0.354607 -1.19434e-18)
(1.26003 0.352047 2.03715e-18)
(1.26903 0.35225 -7.35226e-19)
(1.2774 0.342143 -1.49716e-18)
(-0.018928 0.00316571 8.77273e-19)
(-0.0512471 0.00141723 5.49976e-19)
(-0.0692586 -0.00568985 4.94915e-19)
(-0.0660946 -0.00197477 1.32426e-19)
(-0.0390052 0.0229971 7.77351e-19)
(0.0445029 0.0366451 -1.80776e-18)
(0.411014 0.164215 1.0455e-18)
(0.784285 0.267697 2.62367e-18)
(1.02668 0.328726 -3.31478e-19)
(1.15927 0.352357 2.18945e-18)
(1.22102 0.361072 1.29434e-18)
(1.24872 0.357595 2.41543e-19)
(1.25906 0.352491 3.9782e-19)
(1.2646 0.350109 7.77457e-19)
(1.27316 0.340011 1.75108e-18)
(-0.0236748 0.0058481 1.32054e-18)
(-0.0560705 0.0076678 1.87167e-18)
(-0.0670919 0.00236377 -1.6674e-18)
(-0.0525692 0.00579317 1.49933e-18)
(-0.0171044 0.0104812 -3.33718e-18)
(0.169496 0.0632931 8.00481e-19)
(0.584557 0.205851 -2.74604e-19)
(0.901124 0.296246 -1.59938e-18)
(1.09191 0.34557 -3.06509e-18)
(1.19079 0.361568 -1.23808e-18)
(1.23355 0.365961 -3.08593e-18)
(1.25024 0.358295 1.87711e-18)
(1.25671 0.352863 -2.46731e-18)
(1.26144 0.348886 1.62694e-18)
(1.26791 0.33825 1.075e-18)
(-0.027471 0.00708783 -3.1249e-18)
(-0.0599143 0.0106994 1.04623e-19)
(-0.0654234 0.00626965 2.20991e-19)
(-0.0461291 0.00628992 4.08381e-19)
(0.0229342 -0.00913437 2.3317e-19)
(0.350026 0.115665 1.51449e-18)
(0.734084 0.241964 8.62616e-19)
(0.991978 0.317913 -2.58522e-19)
(1.13846 0.35713 1.35523e-18)
(1.21042 0.367563 9.08389e-19)
(1.23887 0.368394 4.08944e-19)
(1.25032 0.358755 -1.04756e-18)
(1.25386 0.353393 3.3739e-18)
(1.2568 0.347292 5.59563e-19)
(1.2615 0.336137 -1.18143e-18)
(-0.0310466 0.00731537 2.86801e-18)
(-0.0636089 0.011098 -2.04027e-18)
(-0.0652676 0.00781925 6.47918e-19)
(-0.0426153 -0.00360183 -6.18947e-20)
(0.109439 0.00686489 3.1453e-18)
(0.525804 0.166539 -2.6149e-19)
(0.855166 0.272204 -1.03696e-18)
(1.0606 0.334628 2.63902e-18)
(1.17076 0.364859 2.61978e-19)
(1.22201 0.370855 1.14582e-18)
(1.24115 0.369743 -2.35153e-18)
(1.24814 0.3588 5.38157e-20)
(1.24946 0.353624 -1.04925e-18)
(1.25173 0.345469 -2.12341e-19)
(1.25608 0.335073 -6.76225e-19)
(-0.0349458 0.00695428 -7.65493e-19)
(-0.0674179 0.0100871 2.13323e-18)
(-0.0676228 0.00784548 1.28205e-18)
(-0.0238898 -0.021436 1.01311e-18)
(0.259507 0.0678901 -4.9842e-19)
(0.672261 0.209092 -2.14601e-19)
(0.951087 0.297324 1.38573e-18)
(1.11182 0.347414 -1.11302e-18)
(1.19261 0.370037 3.54485e-19)
(1.22821 0.372987 -1.93275e-18)
(1.24027 0.370267 1.48729e-19)
(1.24488 0.358756 2.89125e-19)
(1.2452 0.353894 -4.31584e-19)
(1.2475 0.344391 -2.50761e-18)
(1.25014 0.334375 1.03089e-18)
(-0.039366 0.00631432 -1.3489e-18)
(-0.0707933 0.00957414 -1.6833e-18)
(-0.0713557 0.00443907 8.98912e-19)
(0.0284497 -0.0276861 -1.16837e-19)
(0.432833 0.128422 -1.32085e-18)
(0.79728 0.244788 -6.36629e-20)
(1.02599 0.317925 -9.58922e-19)
(1.14895 0.357437 -1.96934e-18)
(1.20678 0.373625 -8.37019e-19)
(1.23074 0.374082 7.89367e-19)
(1.23835 0.3704 7.29695e-19)
(1.24122 0.358826 -7.9042e-20)
(1.24069 0.354423 -1.14706e-18)
(1.24197 0.342941 2.06333e-18)
(1.24342 0.333543 6.23305e-19)
(-0.0439881 0.00549222 1.32952e-18)
(-0.0733726 0.0110297 1.16048e-21)
(-0.0704464 -0.00251364 -2.19844e-18)
(0.120021 0.00850994 -4.49355e-20)
(0.575892 0.175483 3.28108e-19)
(0.89736 0.275684 5.78462e-19)
(1.08293 0.335271 -1.04925e-18)
(1.17536 0.365312 5.48072e-19)
(1.21552 0.376208 -2.35266e-20)
(1.23101 0.374994 6.36575e-19)
(1.23526 0.370534 -5.76045e-19)
(1.23695 0.359151 -1.61098e-18)
(1.23563 0.354642 -7.41847e-20)
(1.2372 0.342033 -9.91573e-19)
(1.23816 0.334106 -8.42366e-19)
(-0.0482667 0.00481292 5.43486e-19)
(-0.0763485 0.0125711 -1.10647e-18)
(-0.053763 -0.0149826 1.12418e-18)
(0.255571 0.0730012 -3.49514e-19)
(0.698687 0.216908 -1.87771e-19)
(0.978689 0.302078 -5.29764e-19)
(1.12625 0.3496 8.246e-19)
(1.19357 0.371682 5.43699e-19)
(1.22035 0.378332 -3.2809e-19)
(1.22975 0.375714 -9.44846e-19)
(1.23182 0.370667 -3.43923e-19)
(1.23256 0.359526 1.64268e-18)
(1.23105 0.355269 9.97065e-19)
(1.23196 0.341435 9.71618e-19)
(1.2309 0.333986 -2.93638e-19)
(-0.0517208 0.00553663 -3.40157e-19)
(-0.0802688 0.0114054 1.21441e-19)
(-0.0113302 -0.0238006 -4.65069e-19)
(0.408769 0.12866 -1.27957e-20)
(0.806717 0.250652 -3.51458e-19)
(1.04221 0.323706 -5.22086e-19)
(1.15749 0.361465 1.78853e-19)
(1.20551 0.376987 -1.08372e-18)
(1.22251 0.380248 9.75108e-19)
(1.22754 0.376648 1.25836e-18)
(1.22793 0.371075 1.62119e-19)
(1.228 0.360376 -1.41428e-18)
(1.22577 0.355705 -1.36746e-18)
(1.22646 0.340881 -1.02259e-18)
(1.2255 0.335139 4.05731e-19)
(-0.0536675 0.00904161 -1.10161e-18)
(-0.0832879 0.00759672 3.01976e-19)
(0.0573108 -0.0100116 -2.16001e-19)
(0.541218 0.172758 -3.13671e-21)
(0.896097 0.281292 -9.4147e-20)
(1.09163 0.342558 -2.02913e-19)
(1.18009 0.371454 3.67427e-19)
(1.213 0.381605 -2.15774e-19)
(1.22278 0.382221 -2.79871e-19)
(1.22471 0.377739 -5.43279e-19)
(1.22395 0.371701 -4.82994e-19)
(1.22322 0.361198 -2.19667e-19)
(1.2209 0.356369 8.4747e-19)
(1.22135 0.341081 -3.16272e-20)
(1.21851 0.335919 6.48633e-19)
(-0.0541944 0.0149957 4.58259e-19)
(-0.0809013 -0.000276255 7.78677e-19)
(0.151747 0.0314004 1.25232e-19)
(0.653016 0.212153 4.8198e-19)
(0.970147 0.308241 1.03878e-18)
(1.12973 0.358409 3.75063e-19)
(1.19553 0.379805 1.38153e-18)
(1.21702 0.385721 7.25763e-19)
(1.22175 0.384301 4.62947e-19)
(1.22144 0.379155 1.06469e-18)
(1.21968 0.372631 3.31252e-19)
(1.21846 0.362512 6.03736e-19)
(1.21557 0.357135 2.97966e-19)
(1.21539 0.341153 1.38788e-19)
(1.21258 0.337268 4.46055e-19)
(-0.0544822 0.0199154 6.39626e-19)
(-0.0659899 -0.0109707 -1.10136e-18)
(0.270732 0.0837839 -2.08424e-19)
(0.751241 0.245288 4.97185e-19)
(1.02939 0.331189 -1.04785e-18)
(1.158 0.372069 -4.22607e-19)
(1.20588 0.387147 -8.53119e-19)
(1.21877 0.389661 -2.85307e-20)
(1.21979 0.38664 -2.29333e-19)
(1.21786 0.380842 -8.9586e-19)
(1.21539 0.373884 6.8104e-19)
(1.21343 0.363818 5.09311e-20)
(1.21034 0.357953 -2.92537e-20)
(1.21008 0.341979 2.4143e-19)
(1.20601 0.338651 -5.48647e-19)
(-0.0555513 0.0199544 -4.65702e-20)
(-0.0358081 -0.0180853 4.77163e-19)
(0.399245 0.132188 1.27845e-19)
(0.836893 0.274186 -6.94357e-19)
(1.07632 0.35046 4.62368e-19)
(1.17867 0.38352 1.46449e-19)
(1.21223 0.393587 -3.83221e-19)
(1.21873 0.393489 -1.81448e-19)
(1.21715 0.389205 -5.48531e-19)
(1.21399 0.382857 9.72464e-20)
(1.21079 0.375395 -6.58906e-19)
(1.2084 0.365524 -4.64865e-19)
(1.20492 0.359074 1.23057e-19)
(1.20389 0.342743 1.26074e-19)
(1.19964 0.340072 -2.18216e-19)
(-0.0576651 0.0125679 -2.37722e-19)
(0.00938965 -0.0165016 -1.49993e-19)
(0.518354 0.174576 3.35776e-19)
(0.912015 0.300773 5.97125e-19)
(1.11346 0.366996 1.15535e-19)
(1.19306 0.393374 -3.16612e-19)
(1.21561 0.399534 3.96303e-19)
(1.21751 0.397424 3.44642e-19)
(1.214 0.392099 1.78707e-19)
(1.20988 0.38516 3.39016e-20)
(1.20618 0.377255 2.11706e-19)
(1.20313 0.367288 9.34807e-20)
(1.19935 0.360173 -6.47273e-20)
(1.19824 0.344054 -8.11361e-20)
(1.19329 0.341715 7.07134e-20)
(-0.060388 -0.0026202 -1.11052e-19)
(0.0714461 -0.00439577 -1.29642e-19)
(0.621351 0.211177 1.0592e-19)
(0.975795 0.325744 -1.42176e-19)
(1.14274 0.381822 -3.00977e-19)
(1.2029 0.402008 2.29265e-20)
(1.21674 0.405056 1.83599e-19)
(1.21526 0.401426 -1.6506e-19)
(1.21041 0.395245 1.09029e-19)
(1.20553 0.387767 2.19591e-19)
(1.20122 0.379324 3.50038e-20)
(1.19776 0.369339 8.69134e-20)
(1.19371 0.361635 -1.04239e-19)