/*--------------------------------*- C++ -*----------------------------------*\
  =========                 |
  \\      /  F ield         | OpenFOAM: The Open Source CFD Toolbox
   \\    /   O peration     | Website:  https://openfoam.org
    \\  /    A nd           | Version:  7
     \\/     M anipulation  |
\*---------------------------------------------------------------------------*/
FoamFile
{
    version     2.0;
    format      ascii;
    class       surfaceScalarField;
    location    "15";
    object      phi;
}
// * * * * * * * * * * * * * * * * * * * * * * * * * * * * * * * * * * * * * //

dimensions      [0 3 -1 0 0 0 0];

internalField   nonuniform List<scalar> 
16735
(
-2.27891e-06
2.27942e-06
-5.1175e-10
-7.53639e-06
5.25865e-06
-1.16617e-09
-1.50389e-05
7.50406e-06
-1.59021e-09
-2.43602e-05
9.32323e-06
-1.86801e-09
-3.53837e-05
1.10256e-05
-2.08912e-09
-4.82544e-05
1.2873e-05
-2.31322e-09
-6.33034e-05
1.50515e-05
-2.5611e-09
-8.09816e-05
1.76811e-05
-2.828e-09
-0.000101821
2.08427e-05
-3.09537e-09
2.47224e-05
-3.32773e-09
-0.00012654
-2.18864e-06
4.46805e-06
-7.27426e-06
1.03443e-05
-1.45609e-05
1.47907e-05
-2.36296e-05
1.83919e-05
-3.43484e-05
2.17444e-05
-4.68343e-05
2.53589e-05
-6.13827e-05
2.95999e-05
-7.84048e-05
3.47031e-05
-9.83788e-05
4.08168e-05
4.82839e-05
-0.00012194
-2.01386e-06
6.48191e-06
-6.76411e-06
1.50945e-05
-1.36276e-05
2.16543e-05
-2.22001e-05
2.69643e-05
-3.23216e-05
3.1866e-05
-4.40551e-05
3.70924e-05
-5.76269e-05
4.31717e-05
-7.33716e-05
5.04479e-05
-9.16673e-05
5.91124e-05
6.95992e-05
-0.000112983
-1.76567e-06
8.24759e-06
-6.03336e-06
1.93622e-05
-1.22831e-05
2.7904e-05
-2.01339e-05
3.48151e-05
-2.93888e-05
4.11209e-05
-4.00352e-05
4.77388e-05
-5.22014e-05
5.53379e-05
-6.61135e-05
6.436e-05
-8.20177e-05
7.50167e-05
8.771e-05
-0.000100129
-1.45969e-06
9.70727e-06
-5.12131e-06
2.30238e-05
-1.0591e-05
3.33737e-05
-1.7521e-05
4.17451e-05
-2.5673e-05
4.92729e-05
-3.49439e-05
5.70097e-05
-4.53411e-05
6.57351e-05
-5.69553e-05
7.59742e-05
-6.98919e-05
8.79532e-05
0.000101836
-8.40183e-05
-1.11491e-06
1.08222e-05
-4.07698e-06
2.59859e-05
-8.63221e-06
3.79289e-05
-1.44757e-05
4.75885e-05
-2.13296e-05
5.61268e-05
-2.89929e-05
6.46729e-05
-3.7337e-05
7.40792e-05
-4.62936e-05
8.49308e-05
-5.58449e-05
9.75045e-05
0.000111414
-6.5423e-05
-7.52311e-07
1.15745e-05
-2.95637e-06
2.819e-05
-6.50074e-06
4.14733e-05
-1.11322e-05
5.222e-05
-1.65401e-05
6.15347e-05
-2.24263e-05
7.05592e-05
-2.85219e-05
8.01749e-05
-3.45745e-05
9.09834e-05
-4.04828e-05
0.000103413
0.000116133
-4.52016e-05
-3.93357e-07
1.19678e-05
-1.81925e-06
2.96159e-05
-4.2999e-06
4.39539e-05
-7.63938e-06
5.55595e-05
-1.15053e-05
6.54006e-05
-1.55112e-05
7.45651e-05
-1.92563e-05
8.39201e-05
-2.22812e-05
9.40082e-05
-2.44134e-05
0.000105545
0.000116006
-2.42863e-05
-5.89622e-08
1.20268e-05
-7.25322e-07
3.02822e-05
-2.13725e-06
4.53659e-05
-4.15512e-06
5.75773e-05
-6.43849e-06
6.7684e-05
-8.5276e-06
7.66542e-05
-9.91301e-06
8.53055e-05
-9.94297e-06
9.40382e-05
-8.14779e-06
0.00010375
0.000111711
-3.85234e-06
2.34854e-07
1.1792e-05
2.67378e-07
3.02497e-05
-1.17323e-07
4.57506e-05
-8.39555e-07
5.82996e-05
-1.55808e-06
6.84025e-05
-1.75987e-06
7.6856e-05
-8.25124e-07
8.43707e-05
1.8573e-06
9.13558e-05
7.3861e-06
9.82211e-05
0.000102642
1.64549e-05
4.71055e-07
1.13209e-05
1.10971e-06
2.9611e-05
1.65564e-06
4.52046e-05
2.15158e-06
5.78036e-05
2.92162e-06
6.76324e-05
4.50643e-06
7.52711e-05
7.58183e-06
8.12953e-05
1.29756e-05
8.5962e-05
2.14662e-05
8.97304e-05
8.89682e-05
3.51398e-05
6.40654e-07
1.06802e-05
1.76249e-06
2.84892e-05
3.10108e-06
4.3866e-05
4.6778e-06
5.62269e-05
6.79978e-06
6.55105e-05
1.00142e-05
7.20567e-05
1.50352e-05
7.62743e-05
2.26991e-05
7.82981e-05
3.39043e-05
7.85252e-05
7.1214e-05
5.16586e-05
7.37368e-07
9.94288e-06
2.19674e-06
2.70298e-05
4.15072e-06
4.19121e-05
6.62224e-06
5.37554e-05
9.90354e-06
6.22292e-05
1.45324e-05
6.74279e-05
2.12342e-05
6.95725e-05
3.07592e-05
6.87731e-05
4.4201e-05
6.50834e-05
4.97226e-05
6.56924e-05
7.59304e-07
9.18358e-06
2.39836e-06
2.53908e-05
4.76354e-06
3.95469e-05
7.90416e-06
5.06148e-05
1.21063e-05
5.80271e-05
1.78912e-05
6.16429e-05
2.5991e-05
6.14727e-05
3.69502e-05
5.7814e-05
5.232e-05
4.97136e-05
2.46439e-05
7.73987e-05
7.08688e-07
8.47489e-06
2.36831e-06
2.37312e-05
4.92955e-06
3.69856e-05
8.49252e-06
4.70518e-05
1.33529e-05
5.31667e-05
2.00249e-05
5.49709e-05
2.92755e-05
5.22221e-05
4.13374e-05
4.57521e-05
5.89333e-05
3.21177e-05
-4.22525e-06
8.78025e-05
5.91916e-07
7.88297e-06
2.12406e-06
2.2199e-05
4.67551e-06
3.44342e-05
8.42074e-06
4.33066e-05
1.36909e-05
4.78965e-05
2.10284e-05
4.76334e-05
3.13155e-05
4.1935e-05
4.4464e-05
3.26036e-05
6.56517e-05
1.093e-05
-3.74435e-05
9.887e-05
4.1997e-07
7.463e-06
1.70115e-06
2.09178e-05
4.07042e-06
3.20649e-05
7.80167e-06
3.95753e-05
1.33043e-05
4.23939e-05
2.12259e-05
3.97119e-05
3.27137e-05
3.04472e-05
4.76086e-05
1.77086e-05
7.4885e-05
-1.63463e-05
-7.53113e-05
0.000112753
2.09056e-07
7.25394e-06
1.15433e-06
1.99726e-05
3.22933e-06
2.99899e-05
6.8385e-06
3.59661e-05
1.25392e-05
3.66932e-05
2.1217e-05
3.10342e-05
3.44648e-05
1.71993e-05
5.28785e-05
-7.05054e-07
8.89977e-05
-5.24655e-05
-0.000116746
0.000130433
-1.9078e-08
7.27302e-06
5.58405e-07
1.93951e-05
2.31251e-06
2.82358e-05
5.82396e-06
3.24547e-05
1.19013e-05
3.06159e-05
2.18607e-05
2.10747e-05
3.78581e-05
1.20183e-06
6.28243e-05
-2.56712e-05
0.000109183
-9.88239e-05
-0.000158432
0.000150868
-2.38104e-07
7.51113e-06
1.52668e-08
1.91417e-05
1.51478e-06
2.67363e-05
5.11887e-06
2.88506e-05
1.20081e-05
2.37266e-05
2.41523e-05
8.93053e-06
4.43412e-05
-1.8987e-05
7.9282e-05
-6.0612e-05
0.000134363
-0.000153905
-0.00019912
0.000175052
-4.22496e-07
7.93362e-06
-4.1697e-07
1.91362e-05
1.03949e-06
2.52798e-05
5.10633e-06
2.47838e-05
1.34985e-05
1.53344e-05
2.90523e-05
-6.62332e-06
5.54031e-05
-4.53378e-05
0.000101318
-0.000106527
0.000159246
-0.000211833
-0.000281186
0.000241312
-5.45937e-07
8.47956e-06
-6.22334e-07
1.92126e-05
1.0748e-06
2.35827e-05
6.12822e-06
1.97303e-05
1.69185e-05
4.5442e-06
3.72528e-05
-2.69577e-05
7.18636e-05
-7.99486e-05
0.000126753
-0.000161416
0.000191834
-0.000276914
-0.000369347
0.000279995
-5.90999e-07
9.07056e-06
-5.46942e-07
1.91685e-05
1.7578e-06
2.1278e-05
8.42857e-06
1.30596e-05
2.2629e-05
-9.6562e-06
4.9062e-05
-5.33907e-05
9.27733e-05
-0.00012366
0.000155055
-0.000223698
0.000224524
-0.000346383
-0.000449996
0.000305173
-5.5093e-07
9.62149e-06
-1.53085e-07
1.87707e-05
3.16118e-06
1.79637e-05
1.21271e-05
4.09365e-06
3.07613e-05
-2.82904e-05
6.4321e-05
-8.69504e-05
0.000116338
-0.000175677
0.000182921
-0.000290282
0.000250518
-0.000413979
-0.000519607
0.00032013
-4.31347e-07
1.00528e-05
5.33262e-07
1.78061e-05
5.29288e-06
1.32041e-05
1.72368e-05
-7.85022e-06
4.12238e-05
-5.22775e-05
8.22421e-05
-0.000127969
0.000140284
-0.000233718
0.000206584
-0.000356583
0.000268715
-0.00047611
-0.000577646
0.000326754
-2.43344e-07
1.02962e-05
1.51522e-06
1.60475e-05
8.12828e-06
6.59101e-06
2.37074e-05
-2.34293e-05
5.37097e-05
-8.22798e-05
0.000101413
-0.000175672
0.000162049
-0.000294354
0.000224301
-0.000418835
0.000278882
-0.000530691
-0.000624766
0.000326003
2.99961e-08
1.02662e-05
2.77026e-06
1.33073e-05
1.16334e-05
-2.2721e-06
3.14543e-05
-4.32503e-05
6.76359e-05
-0.000118461
0.000120058
-0.000228094
0.000179701
-0.000353997
0.000235551
-0.000474684
0.000281993
-0.000577133
-0.000663118
0.000320345
3.30298e-07
9.93589e-06
4.27545e-06
9.3621e-06
1.57841e-05
-1.37807e-05
4.0331e-05
-6.77972e-05
8.2094e-05
-0.000160224
0.000136495
-0.000282495
0.000192299
-0.000409802
0.000240787
-0.000523173
0.000279625
-0.000615971
-0.000694401
0.000310907
6.91204e-07
9.24468e-06
6.03147e-06
4.02183e-06
2.05644e-05
-2.83136e-05
5.00462e-05
-9.7279e-05
9.59539e-05
-0.000206132
0.000149537
-0.000336077
0.000199776
-0.000460041
0.000240939
-0.000564336
0.000273098
-0.00064813
-0.000720227
0.000298924
1.10981e-06
8.13487e-06
8.0449e-06
-2.91326e-06
2.59404e-05
-4.62091e-05
6.01033e-05
-0.000131442
0.00010812
-0.000254149
0.000158652
-0.000386609
0.000202604
-0.000503993
0.000237026
-0.000598758
0.000263622
-0.000674726
-0.000741847
0.000285242
1.59319e-06
6.54167e-06
1.03238e-05
-1.16438e-05
3.18098e-05
-6.76952e-05
6.98374e-05
-0.000169469
0.000117795
-0.000302107
0.00016385
-0.000432664
0.000201494
-0.000541637
0.000230022
-0.000627286
0.000252082
-0.000696786
-0.000760186
0.000270421
2.14885e-06
4.39282e-06
1.28659e-05
-2.23609e-05
3.79585e-05
-9.27877e-05
7.85481e-05
-0.000210059
0.000124593
-0.000348152
0.000165471
-0.000473542
0.000197213
-0.000573378
0.000220745
-0.000650818
0.000239149
-0.000715191
-0.000775927
0.000254891
2.78086e-06
1.61196e-06
1.56451e-05
-3.52251e-05
4.40646e-05
-0.000121207
8.56633e-05
-0.000251658
0.000128485
-0.000390973
0.000164023
-0.00050908
0.000190473
-0.000599829
0.00020985
-0.000670195
0.000225298
-0.000730638
-0.000789521
0.000238892
3.48753e-06
-1.87558e-06
1.85972e-05
-5.03348e-05
4.97478e-05
-0.000152358
9.0845e-05
-0.000292755
0.000129672
-0.0004298
0.000160052
-0.000539461
0.000181892
-0.000621669
0.00019784
-0.000686142
0.000210855
-0.000743653
-0.000801273
0.000222607
4.26076e-06
-6.13634e-06
2.16152e-05
-6.76892e-05
5.46398e-05
-0.000185382
9.39958e-05
-0.000332111
0.00012848
-0.000464283
0.000154084
-0.000565065
0.000171975
-0.00063956
0.000185085
-0.000699252
0.000196045
-0.000754613
-0.000811369
0.000206141
5.08677e-06
-1.12231e-05
2.45569e-05
-8.71593e-05
5.84585e-05
-0.000219284
9.5195e-05
-0.000368847
0.000125284
-0.000494372
0.000146583
-0.000586364
0.000161119
-0.000654096
0.000171853
-0.000709987
0.000181019
-0.000763779
-0.000819923
0.000189574
5.94648e-06
-1.71696e-05
2.72635e-05
-0.000108476
6.10461e-05
-0.000253067
9.46219e-05
-0.000402423
0.00012046
-0.00052021
0.000137943
-0.000603848
0.000149632
-0.000665784
0.000158336
-0.000718691
0.000165882
-0.000771325
-0.000827002
0.00017296
6.81575e-06
-2.39853e-05
2.95837e-05
-0.000131244
6.23691e-05
-0.000285852
9.25063e-05
-0.00043256
0.000114353
-0.000542057
0.000128489
-0.000617984
0.000137743
-0.000675038
0.000144668
-0.000725616
0.000150706
-0.000777363
-0.000832642
0.000156346
7.66617e-06
-3.16515e-05
3.13959e-05
-0.000154974
6.24933e-05
-0.000316949
8.90959e-05
-0.000459163
0.000107269
-0.00056023
0.000118478
-0.000629193
0.000125624
-0.000682185
0.000130945
-0.000730937
0.000135546
-0.000781964
-0.000836868
0.000139772
8.46663e-06
-4.01181e-05
3.26208e-05
-0.000179128
6.15356e-05
-0.000345864
8.46339e-05
-0.000482261
9.94648e-05
-0.000575061
0.000108111
-0.00063784
0.0001134
-0.000687474
0.000117236
-0.000734772
0.000120441
-0.000785169
-0.0008397
0.000123273
9.18491e-06
-4.9303e-05
3.32247e-05
-0.000203168
5.96365e-05
-0.000372276
7.93448e-05
-0.00050197
9.11546e-05
-0.000586871
9.7543e-05
-0.000644228
0.000101162
-0.000691092
0.000103589
-0.000737199
0.000105426
-0.000787006
-0.000841149
0.000106875
9.78914e-06
-5.90922e-05
3.32142e-05
-0.000226593
5.69415e-05
-0.000396003
7.34269e-05
-0.000518455
8.25119e-05
-0.000595956
8.68898e-05
-0.000648606
8.89742e-05
-0.000693177
9.0044e-05
-0.000738269
9.05255e-05
-0.000787487
-0.000841206
9.05819e-05
1.02495e-05
-6.93416e-05
3.2626e-05
-0.00024897
5.35912e-05
-0.000416968
6.70501e-05
-0.000531914
7.36761e-05
-0.000602582
7.62406e-05
-0.000651171
7.68862e-05
-0.000693822
7.66273e-05
-0.00073801
7.57599e-05
-0.00078662
-0.000839853
7.44075e-05
1.05411e-05
-7.98827e-05
3.15133e-05
-0.000269942
4.97162e-05
-0.000435171
6.03573e-05
-0.000542555
6.47574e-05
-0.000606982
6.56631e-05
-0.000652076
6.49349e-05
-0.000693094
6.33599e-05
-0.000736435
6.11455e-05
-0.000784405
-0.000837078
5.83699e-05
1.06489e-05
-9.05316e-05
2.99549e-05
-0.000289248
4.54378e-05
-0.000450654
5.34661e-05
-0.000550583
5.58409e-05
-0.000609356
5.52088e-05
-0.000651444
5.31533e-05
-0.000691038
5.02642e-05
-0.000733546
4.66939e-05
-0.000780835
-0.000832862
4.24786e-05
1.05694e-05
-0.000101101
2.80353e-05
-0.000306714
4.08655e-05
-0.000463484
4.64727e-05
-0.000556191
4.69917e-05
-0.000609876
4.49158e-05
-0.000649368
4.15715e-05
-0.000687694
3.73786e-05
-0.000729353
3.24149e-05
-0.000775871
-0.00082717
2.67224e-05
1.03081e-05
-0.000111409
2.58206e-05
-0.000322226
3.60923e-05
-0.000473756
3.94548e-05
-0.000559553
3.82595e-05
-0.00060868
3.48109e-05
-0.00064592
3.02082e-05
-0.000683091
2.47575e-05
-0.000723903
1.8359e-05
-0.000769473
-0.000819841
1.10304e-05
9.87758e-06
-0.000121287
2.33728e-05
-0.000335722
3.11958e-05
-0.000481579
3.24751e-05
-0.000560832
2.96831e-05
-0.000605888
2.49167e-05
-0.000641153
1.90639e-05
-0.000677239
1.23985e-05
-0.000717237
4.77077e-06
-0.000761845
-0.000810632
-4.43795e-06
9.29619e-06
-0.000130583
2.07489e-05
-0.000347174
2.62408e-05
-0.000487071
2.55823e-05
-0.000560174
2.12926e-05
-0.000601598
1.52549e-05
-0.000635115
8.14703e-06
-0.000670131
-5.81024e-08
-0.000709032
-8.74687e-06
-0.000753156
-0.000800506
-1.88736e-05
8.58571e-06
-0.000139169
1.80007e-05
-0.000356589
2.12808e-05
-0.000490351
1.88133e-05
-0.000557706
1.31085e-05
-0.000595894
5.81994e-06
-0.000627827
-2.50585e-06
-0.000661805
-1.15693e-05
-0.000699969
-2.19948e-05
-0.000742731
-0.000789283
-3.32174e-05
7.76944e-06
-0.000146938
1.51754e-05
-0.000363995
1.63596e-05
-0.000491535
1.21953e-05
-0.000553542
5.13215e-06
-0.00058883
-3.3507e-06
-0.000619344
-1.27412e-05
-0.000652414
-2.31221e-05
-0.000689588
-3.4804e-05
-0.000731049
-0.000776779
-4.73079e-05
6.8703e-06
-0.000153808
1.23153e-05
-0.00036944
1.15127e-05
-0.000490733
5.75758e-06
-0.000547787
-2.61005e-06
-0.000580463
-1.21849e-05
-0.000609769
-2.27593e-05
-0.00064184
-3.43919e-05
-0.000677955
-4.72643e-05
-0.000718176
-0.000762979
-6.10643e-05
5.91071e-06
-0.000159719
9.45592e-06
-0.000372985
6.77366e-06
-0.00048805
-4.71528e-07
-0.000540542
-1.00162e-05
-0.000570918
-2.07766e-05
-0.000599009
-3.25067e-05
-0.00063011
-4.53357e-05
-0.000665126
-5.9397e-05
-0.000704115
-0.000747914
-7.4462e-05
4.91563e-06
-0.000164635
6.6264e-06
-0.000374696
2.20311e-06
-0.000483627
-6.48387e-06
-0.000531855
-1.72197e-05
-0.000560182
-2.90994e-05
-0.000587129
-4.19621e-05
-0.000617247
-5.59522e-05
-0.000651136
-7.11904e-05
-0.000688877
-0.000731664
-8.74412e-05
3.9136e-06
-0.000168548
3.87134e-06
-0.000374654
-2.30385e-06
-0.000477452
-1.23049e-05
-0.000521854
-2.41804e-05
-0.000548307
-3.71468e-05
-0.000574163
-5.11146e-05
-0.00060328
-6.62369e-05
-0.000636014
-8.26193e-05
-0.000672495
-0.000714316
-9.99669e-05
2.91528e-06
-0.000171464
1.32208e-06
-0.000373061
-6.62143e-06
-0.000469508
-1.79219e-05
-0.000510553
-3.08922e-05
-0.000535337
-4.49143e-05
-0.00056014
-5.9957e-05
-0.000588237
-7.61803e-05
-0.00061979
-9.36701e-05
-0.000655005
-0.000695865
-0.000112121
1.87924e-06
-0.000173343
-1.38895e-06
-0.000369793
-1.07582e-05
-0.000460139
-2.33149e-05
-0.000497997
-3.73511e-05
-0.0005213
-5.23998e-05
-0.000545092
-6.84892e-05
-0.000572148
-8.57805e-05
-0.000602499
-0.000104376
-0.00063641
-0.00067621
-0.000124031
8.20714e-07
-0.000174164
-4.27498e-06
-0.000364697
-1.48231e-05
-0.000449591
-2.84841e-05
-0.000484336
-4.35471e-05
-0.000506238
-5.96011e-05
-0.000529038
-7.67215e-05
-0.000555027
-9.50555e-05
-0.000584165
-0.000114697
-0.000616768
-0.000655443
-0.000135464
-1.74428e-07
-0.000173989
-6.88512e-06
-0.000357986
-1.87322e-05
-0.000437744
-3.34334e-05
-0.000469634
-4.94759e-05
-0.000490195
-6.65129e-05
-0.000512001
-8.46594e-05
-0.000536881
-0.00010403
-0.000564794
-0.000124423
-0.000596375
-0.00063374
-0.000146126
-1.27914e-06
-0.00017271
-9.35139e-06
-0.000349914
-2.24495e-05
-0.000424646
-3.81582e-05
-0.000453926
-5.51375e-05
-0.000473216
-7.31256e-05
-0.000494012
-9.22603e-05
-0.000517746
-0.000112661
-0.000544393
-0.000134359
-0.000574678
-0.00061375
-0.000154348
-2.2904e-06
-0.00017042
-1.16979e-05
-0.000340506
-2.59725e-05
-0.000410371
-4.26516e-05
-0.000437247
-6.05334e-05
-0.000455334
-7.9435e-05
-0.000475111
-9.94713e-05
-0.00049771
-0.000120556
-0.000523308
-0.000142274
-0.00055296
-0.000586469
-0.000169555
-3.25055e-06
-0.000167169
-1.39276e-05
-0.000329829
-2.93075e-05
-0.000394991
-4.69127e-05
-0.000419642
-6.56639e-05
-0.000436583
-8.54377e-05
-0.000455337
-0.000106296
-0.000476852
-0.00012812
-0.000501484
-0.000151217
-0.000529864
-0.000560028
-0.000177657
-4.16496e-06
-0.000163004
-1.60408e-05
-0.000317954
-3.24572e-05
-0.000378575
-5.09409e-05
-0.000401158
-7.0523e-05
-0.000417001
-9.11268e-05
-0.000434733
-0.000112828
-0.000455151
-0.000135715
-0.000478597
-0.000160322
-0.000505256
-0.000533421
-0.000186929
-5.03377e-06
-0.00015797
-1.80364e-05
-0.000304951
-3.54231e-05
-0.000361188
-5.47365e-05
-0.000381844
-7.51075e-05
-0.00039663
-9.6494e-05
-0.000413347
-0.000118986
-0.000432659
-0.000142739
-0.000454844
-0.000168176
-0.000479819
-0.000506296
-0.000195301
-5.85544e-06
-0.000152115
-1.99133e-05
-0.000290893
-3.82061e-05
-0.000342895
-5.83003e-05
-0.00036175
-7.9419e-05
-0.000375511
-0.000101558
-0.000391208
-0.000124842
-0.000409375
-0.00014947
-0.000430217
-0.000175732
-0.000453556
-0.000478519
-0.000203509
-6.62792e-06
-0.000145487
-2.16706e-05
-0.00027585
-4.08068e-05
-0.000323759
-6.16325e-05
-0.000340924
-8.34545e-05
-0.000353689
-0.0001063
-0.000368362
-0.000130312
-0.000385364
-0.000155687
-0.000404841
-0.000182652
-0.000426592
-0.000450019
-0.000211152
-7.34848e-06
-0.000138138
-2.33073e-05
-0.000259892
-4.32264e-05
-0.00030384
-6.47347e-05
-0.000319416
-8.72175e-05
-0.000331206
-0.000110732
-0.000344847
-0.000135433
-0.000360663
-0.000161512
-0.000378762
-0.000189155
-0.000398948
-0.00042083
-0.000218345
-8.01663e-06
-0.000130122
-2.48234e-05
-0.000243085
-4.54658e-05
-0.000283198
-6.76075e-05
-0.000297274
-9.07056e-05
-0.000308108
-0.000114841
-0.000320712
-0.000140174
-0.000335329
-0.000166891
-0.000352045
-0.000195165
-0.000370674
-0.000390979
-0.000225016
-8.63871e-06
-0.000121483
-2.62202e-05
-0.000225503
-4.75265e-05
-0.000261891
-7.02527e-05
-0.000274548
-9.39208e-05
-0.00028444
-0.000118631
-0.000296001
-0.000144548
-0.000309413
-0.000171853
-0.000324741
-0.000200714
-0.000341813
-0.000360517
-0.000231176
-9.21182e-06
-0.000112271
-2.74984e-05
-0.000207217
-4.94095e-05
-0.00023998
-7.26712e-05
-0.000251286
-9.68625e-05
-0.000260249
-0.0001221
-0.000270764
-0.000148549
-0.000282963
-0.00017639
-0.0002969
-0.00020579
-0.000312413
-0.000329492
-0.000236814
-9.73427e-06
-0.000102537
-2.86585e-05
-0.000188292
-5.11164e-05
-0.000217522
-7.48643e-05
-0.000227539
-9.9532e-05
-0.000235581
-0.000125249
-0.000245047
-0.000152181
-0.000256031
-0.000180508
-0.000268573
-0.000210394
-0.000282527
-0.000297957
-0.000241929
-1.02052e-05
-9.23318e-05
-2.97008e-05
-0.000168797
-5.26484e-05
-0.000194575
-7.68334e-05
-0.000203354
-0.00010193
-0.000210484
-0.000128077
-0.0002189
-0.000155443
-0.000228666
-0.000184205
-0.00023981
-0.000214528
-0.000252204
-0.000265966
-0.000246519
-1.06242e-05
-8.17075e-05
-3.06256e-05
-0.000148796
-5.40067e-05
-0.000171194
-7.85796e-05
-0.000178781
-0.000104057
-0.000185007
-0.000130587
-0.000192371
-0.000158336
-0.000200916
-0.000187483
-0.000210663
-0.000218191
-0.000221497
-0.000233572
-0.000250585
-1.09911e-05
-7.07165e-05
-3.14334e-05
-0.000128353
-5.51923e-05
-0.000147435
-8.01043e-05
-0.000153869
-0.000105915
-0.000159195
-0.000132779
-0.000165507
-0.000160864
-0.000172831
-0.000190345
-0.000181182
-0.000221385
-0.000190457
-0.00020083
-0.000254127
-1.13056e-05
-5.94109e-05
-3.21247e-05
-0.000107534
-5.62063e-05
-0.000123353
-8.14086e-05
-0.000128666
-0.000107505
-0.000133099
-0.000134655
-0.000138358
-0.000163025
-0.000144461
-0.000192792
-0.000151415
-0.000224114
-0.000159135
-0.000167793
-0.00025715
-1.15677e-05
-4.78432e-05
-3.26999e-05
-8.64019e-05
-5.70498e-05
-9.90033e-05
-8.24936e-05
-0.000103223
-0.000108828
-0.000106764
-0.000136215
-0.000110971
-0.000164824
-0.000115852
-0.000194826
-0.000121412
-0.00022638
-0.000127581
-0.000134516
-0.000259658
-1.17773e-05
-3.60659e-05
-3.31596e-05
-6.50197e-05
-5.77235e-05
-7.44394e-05
-8.33603e-05
-7.75858e-05
-0.000109885
-8.02393e-05
-0.000137462
-8.3394e-05
-0.00016626
-8.70544e-05
-0.00019645
-9.12219e-05
-0.000228187
-9.58433e-05
-0.000101049
-0.000261654
-1.19346e-05
-2.41313e-05
-3.35039e-05
-4.34503e-05
-5.82281e-05
-4.97152e-05
-8.40096e-05
-5.18043e-05
-0.000110677
-5.35721e-05
-0.000138396
-5.5675e-05
-0.000167335
-5.81149e-05
-0.000197665
-6.08919e-05
-0.000229538
-6.39702e-05
-6.74427e-05
-0.000263145
-1.20394e-05
-1.20919e-05
-3.37333e-05
-2.17564e-05
-5.85642e-05
-2.48844e-05
-8.44421e-05
-2.59264e-05
-0.000111204
-2.68099e-05
-0.000139018
-2.78613e-05
-0.000168052
-2.90811e-05
-0.000198474
-3.04692e-05
-0.000230437
-3.20075e-05
-3.37442e-05
-0.000264136
-1.20918e-05
-1.28051e-10
-3.3848e-05
-2.28313e-10
-5.87321e-05
-2.56886e-10
-8.46582e-05
-2.62003e-10
-0.000111468
-2.64102e-10
-0.000139329
-2.66397e-10
-0.00016841
-2.68726e-10
-0.000198879
-2.70985e-10
-0.000230886
-2.72873e-10
-2.74213e-10
-0.00026463
-1.20918e-05
1.20917e-05
-3.3848e-05
2.17559e-05
-5.87321e-05
2.48839e-05
-8.46582e-05
2.59258e-05
-0.000111468
2.68094e-05
-0.000139329
2.78607e-05
-0.00016841
2.90806e-05
-0.000198879
3.04687e-05
-0.000230886
3.2007e-05
3.37437e-05
-0.00026463
-1.20394e-05
2.41311e-05
-3.37333e-05
4.34499e-05
-5.85642e-05
4.97147e-05
-8.44421e-05
5.18038e-05
-0.000111204
5.35715e-05
-0.000139018
5.56745e-05
-0.000168052
5.81143e-05
-0.000198474
6.08914e-05
-0.000230437
6.39697e-05
6.74421e-05
-0.000264136
-1.19346e-05
3.60656e-05
-3.35039e-05
6.50192e-05
-5.82281e-05
7.44389e-05
-8.40096e-05
7.75853e-05
-0.000110677
8.02388e-05
-0.000138396
8.33935e-05
-0.000167335
8.70539e-05
-0.000197665
9.12214e-05
-0.000229538
9.58427e-05
0.000101049
-0.000263145
-1.17773e-05
4.7843e-05
-3.31596e-05
8.64014e-05
-5.77235e-05
9.90028e-05
-8.33603e-05
0.000103222
-0.000109885
0.000106764
-0.000137462
0.00011097
-0.00016626
0.000115852
-0.00019645
0.000121412
-0.000228187
0.00012758
0.000134516
-0.000261654
-1.15677e-05
5.94106e-05
-3.26999e-05
0.000107534
-5.70498e-05
0.000123353
-8.24936e-05
0.000128666
-0.000108828
0.000133098
-0.000136215
0.000138357
-0.000164824
0.00014446
-0.000194826
0.000151414
-0.00022638
0.000159134
0.000167793
-0.000259658
-1.13056e-05
7.07162e-05
-3.21247e-05
0.000128353
-5.62063e-05
0.000147434
-8.14086e-05
0.000153868
-0.000107505
0.000159195
-0.000134655
0.000165507
-0.000163025
0.000172831
-0.000192792
0.000181181
-0.000224114
0.000190456
0.000200829
-0.00025715
-1.09911e-05
8.17073e-05
-3.14334e-05
0.000148795
-5.51923e-05
0.000171193
-8.01043e-05
0.00017878
-0.000105915
0.000185006
-0.000132779
0.00019237
-0.000160864
0.000200915
-0.000190345
0.000210663
-0.000221385
0.000221496
0.000233571
-0.000254127
-1.06242e-05
9.23315e-05
-3.06256e-05
0.000168797
-5.40067e-05
0.000194574
-7.85796e-05
0.000203353
-0.000104057
0.000210484
-0.000130587
0.000218899
-0.000158336
0.000228665
-0.000187483
0.00023981
-0.000218191
0.000252203
0.000265965
-0.000250585
-1.02052e-05
0.000102537
-2.97008e-05
0.000188292
-5.26484e-05
0.000217522
-7.68334e-05
0.000227538
-0.00010193
0.00023558
-0.000128077
0.000245047
-0.000155443
0.000256031
-0.000184205
0.000268572
-0.000214528
0.000282526
0.000297957
-0.000246519
-9.73427e-06
0.000112271
-2.86585e-05
0.000207216
-5.11164e-05
0.00023998
-7.48643e-05
0.000251286
-9.9532e-05
0.000260248
-0.000125249
0.000270763
-0.000152181
0.000282963
-0.000180508
0.000296899
-0.000210394
0.000312413
0.000329492
-0.000241929
-9.21182e-06
0.000121483
-2.74984e-05
0.000225503
-4.94095e-05
0.000261891
-7.26712e-05
0.000274548
-9.68625e-05
0.00028444
-0.0001221
0.000296001
-0.000148549
0.000309412
-0.00017639
0.00032474
-0.00020579
0.000341812
0.000360516
-0.000236814
-8.63871e-06
0.000130122
-2.62202e-05
0.000243084
-4.75265e-05
0.000283197
-7.02527e-05
0.000297274
-9.39208e-05
0.000308108
-0.000118631
0.000320711
-0.000144548
0.000335329
-0.000171853
0.000352045
-0.000200714
0.000370674
0.000390978
-0.000231176
-8.01663e-06
0.000138138
-2.48234e-05
0.000259891
-4.54658e-05
0.00030384
-6.76075e-05
0.000319416
-9.07056e-05
0.000331206
-0.000114841
0.000344846
-0.000140174
0.000360662
-0.000166891
0.000378762
-0.000195165
0.000398948
0.000420829
-0.000225016
-7.34849e-06
0.000145487
-2.33073e-05
0.00027585
-4.32264e-05
0.000323759
-6.47347e-05
0.000340924
-8.72175e-05
0.000353688
-0.000110732
0.000368361
-0.000135433
0.000385363
-0.000161512
0.000404841
-0.000189155
0.000426591
0.000450019
-0.000218345
-6.62793e-06
0.000152115
-2.16706e-05
0.000290893
-4.08068e-05
0.000342895
-6.16325e-05
0.00036175
-8.34545e-05
0.00037551
-0.0001063
0.000391207
-0.000130312
0.000409375
-0.000155687
0.000430216
-0.000182652
0.000453556
0.000478519
-0.000211152
-5.85544e-06
0.00015797
-1.99133e-05
0.00030495
-3.82061e-05
0.000361188
-5.83004e-05
0.000381844
-7.9419e-05
0.000396629
-0.000101558
0.000413346
-0.000124842
0.000432658
-0.00014947
0.000454844
-0.000175732
0.000479818
0.000506296
-0.000203509
-5.03377e-06
0.000163004
-1.80364e-05
0.000317953
-3.54231e-05
0.000378574
-5.47365e-05
0.000401157
-7.51075e-05
0.000417
-9.6494e-05
0.000434733
-0.000118986
0.00045515
-0.000142739
0.000478597
-0.000168176
0.000505256
0.000533421
-0.000195301
-4.16496e-06
0.000167169
-1.60408e-05
0.000329829
-3.24572e-05
0.000394991
-5.09409e-05
0.000419641
-7.0523e-05
0.000436582
-9.11268e-05
0.000455336
-0.000112828
0.000476851
-0.000135715
0.000501483
-0.000160322
0.000529863
0.000560027
-0.000186929
-3.25056e-06
0.000170419
-1.39276e-05
0.000340506
-2.93075e-05
0.000410371
-4.69127e-05
0.000437246
-6.56639e-05
0.000455333
-8.54377e-05
0.00047511
-0.000106296
0.000497709
-0.00012812
0.000523308
-0.000151217
0.000552959
0.000586468
-0.000177657
-2.29041e-06
0.00017271
-1.16979e-05
0.000349913
-2.59725e-05
0.000424645
-4.26516e-05
0.000453925
-6.05335e-05
0.000473215
-7.9435e-05
0.000494012
-9.94713e-05
0.000517746
-0.000120556
0.000544392
-0.000142274
0.000574678
0.000613749
-0.000169555
-1.27915e-06
0.000173989
-9.3514e-06
0.000357986
-2.24495e-05
0.000437743
-3.81582e-05
0.000469634
-5.51375e-05
0.000490195
-7.31257e-05
0.000512
-9.22603e-05
0.00053688
-0.000112661
0.000564793
-0.000134359
0.000596375
0.000633739
-0.000154348
-1.74437e-07
0.000174163
-6.88514e-06
0.000364696
-1.87322e-05
0.000449591
-3.34335e-05
0.000484335
-4.94759e-05
0.000506237
-6.65129e-05
0.000529037
-8.46594e-05
0.000555027
-0.00010403
0.000584164
-0.000124423
0.000616768
0.000655442
-0.000146126
8.20707e-07
0.000173343
-4.27499e-06
0.000369792
-1.48231e-05
0.000460139
-2.84841e-05
0.000497996
-4.35471e-05
0.0005213
-5.96012e-05
0.000545091
-7.67216e-05
0.000572147
-9.50555e-05
0.000602498
-0.000114697
0.000636409
0.000676209
-0.000135464
1.87923e-06
0.000171463
-1.38897e-06
0.00037306
-1.07583e-05
0.000469508
-2.33149e-05
0.000510553
-3.73511e-05
0.000535336
-5.23998e-05
0.00056014
-6.84892e-05
0.000588236
-8.57805e-05
0.00061979
-0.000104376
0.000655004
0.000695865
-0.000124031
2.91527e-06
0.000168548
1.32207e-06
0.000374653
-6.62145e-06
0.000477451
-1.79219e-05
0.000521853
-3.08922e-05
0.000548306
-4.49143e-05
0.000574162
-5.9957e-05
0.000603279
-7.61803e-05
0.000636013
-9.36701e-05
0.000672494
0.000714315
-0.000112121
3.91359e-06
0.000164635
3.87132e-06
0.000374696
-2.30387e-06
0.000483627
-1.23049e-05
0.000531854
-2.41804e-05
0.000560182
-3.71469e-05
0.000587128
-5.11146e-05
0.000617247
-6.6237e-05
0.000651135
-8.26193e-05
0.000688876
0.000731663
-9.99669e-05
4.91562e-06
0.000159719
6.62638e-06
0.000372985
2.20309e-06
0.00048805
-6.48389e-06
0.000540541
-1.72197e-05
0.000570918
-2.90995e-05
0.000599008
-4.19621e-05
0.00063011
-5.59523e-05
0.000665125
-7.11905e-05
0.000704115
0.000747914
-8.74412e-05
5.9107e-06
0.000153808
9.4559e-06
0.00036944
6.77363e-06
0.000490732
-4.71555e-07
0.000547787
-1.00162e-05
0.000580462
-2.07766e-05
0.000609769
-3.25067e-05
0.00064184
-4.53357e-05
0.000677955
-5.9397e-05
0.000718176
0.000762979
-7.4462e-05
6.87029e-06
0.000146938
1.23153e-05
0.000363995
1.15127e-05
0.000491535
5.75755e-06
0.000553542
-2.61008e-06
0.00058883
-1.2185e-05
0.000619344
-2.27593e-05
0.000652414
-3.4392e-05
0.000689587
-4.72644e-05
0.000731048
0.000776779
-6.10643e-05
7.76942e-06
0.000139168
1.51754e-05
0.000356589
1.63596e-05
0.000490351
1.21953e-05
0.000557706
5.13212e-06
0.000595893
-3.35073e-06
0.000627826
-1.27413e-05
0.000661804
-2.31221e-05
0.000699968
-3.48041e-05
0.00074273
0.000789283
-4.73079e-05
8.5857e-06
0.000130583
1.80006e-05
0.000347174
2.12807e-05
0.000487071
1.88133e-05
0.000560173
1.31084e-05
0.000601598
5.8199e-06
0.000635115
-2.50588e-06
0.00067013
-1.15694e-05
0.000709032
-2.19949e-05
0.000753156
0.000800505
-3.32175e-05
9.29618e-06
0.000121287
2.07489e-05
0.000335721
2.62408e-05
0.000481579
2.55823e-05
0.000560832
2.12926e-05
0.000605888
1.52548e-05
0.000641153
8.14699e-06
0.000677238
-5.81338e-08
0.000717237
-8.74691e-06
0.000761845
0.000810632
-1.88736e-05
9.87757e-06
0.000111409
2.33728e-05
0.000322226
3.11958e-05
0.000473756
3.2475e-05
0.000559553
2.9683e-05
0.00060868
2.49166e-05
0.000645919
1.90639e-05
0.000683091
1.23985e-05
0.000723902
4.77073e-06
0.000769472
0.000819841
-4.43799e-06
1.03081e-05
0.000101101
2.58206e-05
0.000306713
3.60923e-05
0.000463484
3.94548e-05
0.00055619
3.82594e-05
0.000609875
3.48109e-05
0.000649368
3.02082e-05
0.000687694
2.47574e-05
0.000729353
1.83589e-05
0.000775871
0.000827169
1.10303e-05
1.05694e-05
9.05316e-05
2.80353e-05
0.000289248
4.08655e-05
0.000450654
4.64727e-05
0.000550583
4.69917e-05
0.000609356
4.49157e-05
0.000651444
4.15714e-05
0.000691038
3.73786e-05
0.000733546
3.24149e-05
0.000780834
0.000832862
2.67224e-05
1.06489e-05
7.98827e-05
2.99548e-05
0.000269942
4.54378e-05
0.000435171
5.34661e-05
0.000542555
5.58409e-05
0.000606981
5.52087e-05
0.000652076
5.31532e-05
0.000693093
5.02641e-05
0.000736435
4.66938e-05
0.000784405
0.000837077
4.24785e-05
1.0541e-05
6.93416e-05
3.15132e-05
0.00024897
4.97161e-05
0.000416968
6.03572e-05
0.000531914
6.47573e-05
0.000602581
6.5663e-05
0.00065117
6.49348e-05
0.000693822
6.33599e-05
0.00073801
6.11455e-05
0.000786619
0.000839853
5.83698e-05
1.02494e-05
5.90922e-05
3.26259e-05
0.000226593
5.35911e-05
0.000396003
6.705e-05
0.000518455