/*--------------------------------*- C++ -*----------------------------------*\
  =========                 |
  \\      /  F ield         | OpenFOAM: The Open Source CFD Toolbox
   \\    /   O peration     | Website:  https://openfoam.org
    \\  /    A nd           | Version:  7
     \\/     M anipulation  |
\*---------------------------------------------------------------------------*/
FoamFile
{
    version     2.0;
    format      ascii;
    class       volVectorField;
    location    "10";
    object      U;
}
// * * * * * * * * * * * * * * * * * * * * * * * * * * * * * * * * * * * * * //

dimensions      [0 1 -1 0 0 0 0];

internalField   nonuniform List<vector> 
8500
(
(-0.00826171 0.00637119 -6.99995e-20)
(-0.0386186 0.0122045 -1.63663e-19)
(-0.0879386 0.0144546 -2.75384e-19)
(-0.140142 0.0151309 2.76097e-19)
(-0.193513 0.0153254 -2.57924e-19)
(-0.247783 0.0154963 -1.42013e-19)
(-0.30314 0.0157259 2.52951e-19)
(-0.359633 0.0159617 3.26734e-19)
(-0.417327 0.0161391 -5.81369e-20)
(-0.476564 0.016286 1.77185e-19)
(-0.00882436 0.0188198 3.66947e-20)
(-0.0389456 0.0362036 2.30036e-19)
(-0.0871763 0.0430038 -6.62276e-19)
(-0.138163 0.0450888 6.0425e-19)
(-0.190203 0.0456953 2.54679e-20)
(-0.242952 0.0462043 4.63937e-19)
(-0.296522 0.0468753 -8.38624e-19)
(-0.350875 0.0475581 -1.28974e-18)
(-0.405911 0.0480556 -2.69905e-19)
(-0.46192 0.0484532 6.37212e-19)
(-0.00989509 0.030402 8.65571e-20)
(-0.0395649 0.0589811 6.22613e-19)
(-0.0856738 0.0704715 1.4587e-18)
(-0.134278 0.0741312 -1.33663e-18)
(-0.183709 0.0752215 -3.12863e-19)
(-0.233488 0.0760602 -2.90973e-19)
(-0.283578 0.077122 1.51066e-18)
(-0.333789 0.0781846 9.77415e-19)
(-0.383707 0.0789068 2.60965e-19)
(-0.43351 0.0794269 -1.97756e-18)
(-0.0113702 0.0406041 3.07563e-19)
(-0.0404093 0.0797775 -3.62888e-19)
(-0.0834741 0.0961646 -2.74012e-18)
(-0.128629 0.101667 2.39533e-19)
(-0.17428 0.103365 7.67253e-19)
(-0.21977 0.104528 -6.20047e-19)
(-0.264861 0.105905 -3.40599e-20)
(-0.309182 0.107248 -2.74769e-19)
(-0.351884 0.108063 6.48065e-19)
(-0.392928 0.108488 2.00082e-18)
(-0.0131072 0.0490038 2.16258e-19)
(-0.0413848 0.0979146 -1.19441e-18)
(-0.08064 0.119431 2.85035e-18)
(-0.121419 0.127134 -1.30652e-18)
(-0.162264 0.129621 -3.56058e-21)
(-0.202328 0.131115 1.88224e-18)
(-0.24113 0.132717 -8.91333e-19)
(-0.278134 0.134224 1.26736e-19)
(-0.312016 0.135004 -3.82628e-19)
(-0.342217 0.135016 1.4347e-19)
(-0.0149393 0.0552974 2.60039e-18)
(-0.0423778 0.112825 3.08459e-18)
(-0.0772518 0.139677 -7.80195e-19)
(-0.112903 0.150001 1.50302e-18)
(-0.148095 0.153519 4.83271e-19)
(-0.181805 0.155377 -6.91634e-19)
(-0.213287 0.157115 -2.66156e-19)
(-0.241885 0.158657 -1.29423e-18)
(-0.265922 0.159325 2.75509e-19)
(-0.283592 0.158523 -1.88767e-18)
(-0.0166915 0.0593188 -2.50934e-18)
(-0.0432642 0.124081 -1.61379e-18)
(-0.073406 0.15638 1.31878e-18)
(-0.103381 0.169777 -2.29398e-18)
(-0.132264 0.174626 2.79046e-19)
(-0.158919 0.17692 2.80788e-18)
(-0.182323 0.178716 -5.03888e-19)
(-0.201715 0.180154 -2.24351e-19)
(-0.215519 0.180707 1.74721e-18)
(-0.219247 0.178685 -4.05808e-19)
(-0.0181989 0.0610476 2.14159e-18)
(-0.04392 0.131415 -3.77841e-18)
(-0.0692148 0.169109 -1.49696e-18)
(-0.0931855 0.18601 1.74719e-18)
(-0.115313 0.192541 6.81985e-20)
(-0.134434 0.195389 -5.26556e-18)
(-0.149281 0.197198 1.73804e-18)
(-0.158879 0.198379 1.18233e-18)
(-0.162674 0.198826 -3.43125e-18)
(-0.151369 0.195512 1.92769e-18)
(-0.0193232 0.0606046 -1.19824e-18)
(-0.0442276 0.134732 5.59195e-19)
(-0.0648053 0.177556 1.37713e-18)
(-0.0826791 0.198296 -1.24799e-18)
(-0.0978137 0.206884 -4.41614e-18)
(-0.109131 0.210455 1.55735e-18)
(-0.115229 0.212278 -7.96333e-19)
(-0.114628 0.213087 6.81595e-19)
(-0.108939 0.213145 5.88748e-18)
(-0.0824204 0.209696 -2.77576e-18)
(-0.0199728 0.0582417 1.91003e-18)
(-0.0441 0.134164 1.69366e-18)
(-0.0603018 0.181532 -2.4384e-19)
(-0.0722482 0.206284 6.19352e-18)
(-0.08037 0.217288 2.64036e-18)
(-0.0838025 0.221799 2.02683e-18)
(-0.0812016 0.223671 1.39216e-18)
(-0.0703449 0.224114 -4.04969e-18)
(-0.0553972 0.223345 -1.96884e-18)
(-0.0146272 0.220763 -3.41843e-18)
(-0.0200946 0.0543161 -1.68914e-19)
(-0.043497 0.130032 -2.67073e-18)
(-0.0558533 0.181003 -1.91049e-18)
(-0.0622731 0.2097 -3.06165e-18)
(-0.0635988 0.223396 -2.47215e-18)
(-0.0592603 0.229084 2.49708e-18)
(-0.0481801 0.23108 -1.96043e-18)
(-0.0272546 0.231187 1.80321e-18)
(-0.00384334 0.229399 2.35074e-19)
(0.0516547 0.227508 8.98014e-19)
(-0.019697 0.0492475 -5.27776e-18)
(-0.042413 0.12282 2.4498e-18)
(-0.0516203 0.176154 1.77336e-18)
(-0.0531404 0.208391 2.20406e-18)
(-0.0481235 0.22487 -3.12538e-18)
(-0.0363272 0.231946 -1.88762e-18)
(-0.0171997 0.234154 2.78211e-18)
(0.0135825 0.233989 8.35516e-19)
(0.0439783 0.231045 1.98183e-18)
(0.114568 0.229316 -2.67424e-18)
(-0.0188468 0.043486 4.41455e-18)
(-0.0409059 0.113181 1.73833e-18)
(-0.0477635 0.167376 1.04953e-19)
(-0.0452142 0.202369 -1.04399e-18)
(-0.0345495 0.221446 -7.28403e-19)
(-0.015833 0.230009 1.46248e-18)
(0.0107236 0.232467 -1.62767e-18)
(0.050942 0.232283 -2.65479e-18)
(0.0867344 0.227818 -5.44265e-18)
(0.171757 0.225343 4.05312e-18)
(-0.0176635 0.0374735 2.96139e-18)
(-0.0391057 0.101876 -4.68629e-18)
(-0.0444502 0.15527 -3.56783e-18)
(-0.0388098 0.19186 1.52491e-18)
(-0.0234144 0.213 3.12912e-18)
(0.00142986 0.222937 3.53242e-18)
(0.0346613 0.225549 -1.93275e-18)
(0.0834666 0.225717 5.8867e-18)
(0.123277 0.219504 -1.75556e-18)
(0.221586 0.214468 -4.76251e-18)
(-0.0163114 0.0316101 -2.14112e-19)
(-0.0372144 0.0897043 2.61671e-18)
(-0.041855 0.14062 -1.21756e-18)
(-0.0341665 0.177354 1.22819e-19)
(-0.0151191 0.199646 1.27319e-18)
(0.0148069 0.210543 -4.20477e-18)
(0.0539237 0.213023 3.84531e-18)
(0.109873 0.213872 -3.79072e-18)
(0.152732 0.205837 6.43336e-18)
(0.265074 0.196638 2.47866e-18)
(-0.014988 0.0262309 -1.36822e-18)
(-0.0354946 0.0774366 5.02195e-18)
(-0.0401508 0.124334 -1.23063e-18)
(-0.031412 0.159604 1.24789e-18)
(-0.00983353 0.181832 1.41447e-18)
(0.0239766 0.192953 -4.04053e-19)
(0.0683531 0.194878 3.15773e-18)
(0.129393 0.1966 1.18608e-19)
(0.175888 0.186183 -4.17147e-18)
(0.307635 0.174458 5.74699e-18)
(-0.0139073 0.0215927 -2.4988e-18)
(-0.0342393 0.0657519 -4.73575e-18)
(-0.039478 0.107368 4.06059e-18)
(-0.0305075 0.139603 1.99653e-18)
(-0.0073686 0.160409 -9.29661e-18)
(0.0292617 0.170781 7.55302e-18)
(0.0788218 0.17184 -6.95705e-18)
(0.142676 0.174351 5.12045e-20)
(0.198768 0.160875 -1.69004e-18)
(0.358275 0.152781 -5.39248e-18)
(-0.0132776 0.017869 2.1214e-18)
(-0.0337187 0.0551968 -2.64298e-19)
(-0.0398814 0.0906478 -9.99122e-19)
(-0.0311547 0.118515 -1.30798e-19)
(-0.00699374 0.136632 -5.35395e-19)
(0.0320499 0.145282 -2.44478e-18)
(0.0878818 0.145688 1.10539e-18)
(0.153601 0.148185 -1.67387e-18)
(0.235568 0.133923 4.79023e-19)
(0.422831 0.136877 1.23697e-19)
(-0.0132707 0.0151475 -4.31813e-18)
(-0.0341102 0.0461613 -2.80215e-19)
(-0.0412171 0.0750029 4.43053e-19)
(-0.0326701 0.0975969 1.71535e-19)
(-0.00721629 0.112108 3.00843e-18)
(0.0352054 0.118396 -8.66153e-18)
(0.100221 0.11924 5.90879e-18)
(0.171485 0.119892 -4.46703e-18)
(0.30474 0.113851 3.98411e-18)
(0.496693 0.128883 4.78248e-18)
(-0.0139857 0.013427 -5.01658e-19)
(-0.0354222 0.0388673 2.34638e-18)
(-0.0430593 0.0611204 -2.89437e-18)
(-0.0338696 0.078092 -8.95475e-19)
(-0.00563108 0.0886463 1.70286e-18)
(0.043194 0.0926292 8.18181e-18)
(0.122319 0.0956981 -1.67265e-18)
(0.210673 0.0932296 8.24454e-19)
(0.412658 0.10816 -4.48517e-18)
(0.568219 0.124318 2.17223e-18)
(-0.015421 0.0126183 -1.52966e-18)
(-0.0374354 0.0333535 -1.16138e-18)
(-0.0446579 0.0494943 2.80564e-19)
(-0.0330607 0.0610936 1.12747e-18)
(0.000965493 0.0680241 -3.27836e-18)
(0.0615711 0.0706511 -1.32418e-18)
(0.161457 0.0774763 -4.13249e-18)
(0.28497 0.0758585 4.42559e-18)
(0.54023 0.114498 4.80878e-18)
(0.632054 0.111714 -2.22677e-18)
(-0.0174629 0.0125398 -7.07808e-19)
(-0.0397151 0.0294863 2.92845e-18)
(-0.044974 0.0403624 -3.23617e-18)
(-0.0282208 0.0473743 -3.62953e-19)
(0.0160747 0.0516481 -1.48359e-18)
(0.0956403 0.0545981 3.2339e-18)
(0.224223 0.0661755 4.20176e-18)
(0.396934 0.0750075 -4.08871e-18)
(0.658874 0.120263 4.48806e-18)
(0.806315 0.120978 6.25517e-19)
(-0.0198861 0.0129412 -2.0656e-18)
(-0.0416724 0.0269659 -5.87404e-18)
(-0.0428349 0.0336515 5.68624e-18)
(-0.0173212 0.0372465 8.17568e-19)
(0.0428186 0.0402681 1.1881e-18)
(0.149122 0.0456537 6.92578e-19)
(0.314047 0.0636171 3.20009e-18)
(0.530976 0.0869447 2.39983e-18)
(0.789179 0.131698 -8.72918e-18)
(0.964417 0.147436 -4.47782e-18)
(-0.0223953 0.0135355 2.85642e-18)
(-0.0426316 0.0253446 -6.9124e-19)
(-0.0371224 0.0290029 -3.19208e-18)
(0.00135036 0.0305286 6.17429e-19)
(0.0834561 0.0339328 9.88085e-19)
(0.223574 0.0441568 -7.03012e-18)
(0.427927 0.0707857 3.09738e-18)
(0.672542 0.10543 -2.15675e-18)
(0.915549 0.150184 2.28626e-18)
(1.07265 0.167501 -8.18706e-19)
(-0.0246781 0.0140397 2.84173e-18)
(-0.0419148 0.0241053 6.33377e-18)
(-0.0268767 0.0258648 1.88408e-19)
(0.0290684 0.0266803 -8.67644e-19)
(0.139298 0.0322931 3.85204e-20)
(0.31816 0.049975 7.78243e-20)
(0.556733 0.086248 -4.72501e-18)
(0.808327 0.127256 5.68373e-19)
(1.02108 0.168681 6.1194e-18)
(1.15601 0.183284 2.92297e-18)
(-0.0264572 0.0142216 -4.75981e-21)
(-0.0389319 0.0227859 -1.2775e-18)
(-0.0112597 0.0236276 5.20551e-18)
(0.0667909 0.0250867 1.36768e-19)
(0.21084 0.0351202 -2.2253e-18)
(0.429142 0.0626049 5.98919e-18)
(0.688608 0.106924 1.32746e-18)
(0.927552 0.149393 1.00189e-19)
(1.10568 0.185361 -2.65195e-18)
(1.21031 0.19614 -3.62728e-18)
(-0.0274837 0.0139327 3.58589e-18)
(-0.0331752 0.0210348 -9.96504e-19)
(0.0104683 0.0218035 -3.13346e-18)
(0.115369 0.0254162 2.04911e-19)
(0.297601 0.0426117 3.64166e-18)
(0.549733 0.0808312 -3.62208e-18)
(0.812772 0.129705 -2.04452e-18)
(1.02643 0.170115 -4.62149e-19)
(1.16835 0.199689 -1.51861e-18)
(1.24611 0.205684 1.77884e-18)
(-0.0275486 0.0131244 -1.32194e-18)
(-0.0241221 0.0186818 -7.72911e-18)
(0.0390444 0.020201 8.04159e-19)
(0.175583 0.0278778 2.08033e-18)
(0.397421 0.0550728 1.35052e-18)
(0.671491 0.102723 -4.7721e-18)
(0.922472 0.152459 4.33717e-18)
(1.10438 0.188711 -4.92516e-18)
(1.21328 0.211571 -7.43489e-19)
(1.2679 0.213622 8.90025e-19)
(-0.026494 0.0118366 -1.44111e-18)
(-0.0112362 0.0157626 2.74586e-18)
(0.0752977 0.0189834 3.54889e-18)
(0.247835 0.0332656 -4.3478e-18)
(0.50591 0.0722405 2.47689e-18)
(0.786833 0.126307 3.73039e-18)
(1.01476 0.174019 1.11421e-18)
(1.16359 0.205023 3.07511e-18)
(1.24375 0.221584 2.20993e-18)
(1.27988 0.220077 -2.45374e-18)
(-0.0241632 0.0101591 -1.85769e-18)
(0.00603187 0.012499 -6.17548e-19)
(0.120086 0.0186994 -6.42017e-18)
(0.331485 0.0425823 -1.00231e-18)
(0.617088 0.0930802 -1.22563e-19)
(0.890638 0.150117 3.3311e-19)
(1.08949 0.193878 -6.77281e-18)
(1.20689 0.219273 1.24243e-18)
(1.26335 0.230062 4.94922e-20)
(1.2856 0.225875 1.67203e-18)
(-0.0203716 0.0082161 -4.84753e-19)
(0.0282445 0.00925704 2.23602e-18)
(0.174087 0.0202499 3.13271e-18)
(0.424261 0.0563908 1.94748e-18)
(0.725032 0.116243 -5.79715e-19)
(0.980381 0.173267 -4.79361e-19)
(1.14805 0.211938 5.16777e-18)
(1.2374 0.231773 4.93833e-19)
(1.275 0.237543 7.61865e-19)
(1.28691 0.231321 -1.02253e-18)
(-0.0149101 0.00614993 4.61473e-18)
(0.0559503 0.00650782 2.95489e-18)
(0.237454 0.0247311 -2.97098e-18)
(0.522351 0.074458 -5.89449e-19)
(0.825239 0.140565 3.09755e-19)
(1.05549 0.195315 -1.13067e-18)
(1.19258 0.228323 -8.99439e-19)
(1.25791 0.242925 -1.9795e-18)
(1.28094 0.244381 -3.27579e-18)
(1.28552 0.236734 1.63526e-18)
(-0.00755454 0.00410916 5.73512e-19)
(0.0896194 0.00481473 -1.60826e-18)
(0.30947 0.0331194 3.78085e-18)
(0.621272 0.0959777 2.45756e-18)
(0.914995 0.165244 7.65068e-20)
(1.11664 0.216111 1.75447e-18)
(1.22538 0.243281 -4.25246e-19)
(1.27084 0.253094 -1.6071e-18)
(1.28289 0.250925 4.09174e-18)
(1.28223 0.242303 1.10161e-18)
(0.00191725 0.00224657 -3.80816e-18)
(0.129547 0.00483048 -1.10788e-18)
(0.388399 0.0459451 -9.9254e-19)
(0.716942 0.120022 -1.7287e-18)
(0.993099 0.189793 4.05648e-19)
(1.16517 0.235687 1.22335e-20)
(1.24866 0.257103 1.37489e-18)
(1.27808 0.262622 -1.63013e-18)
(1.28203 0.257409 -2.45463e-18)
(1.27771 0.248122 -1.68131e-18)
(0.0137052 0.00072942 3.10921e-19)
(0.175738 0.00727041 1.79922e-18)
(0.471667 0.0631885 8.68141e-19)
(0.806321 0.14581 -2.70476e-18)
(1.0594 0.213951 -1.4071e-19)
(1.20268 0.254175 -1.1689e-18)
(1.26435 0.270087 3.12793e-20)
(1.28112 0.271786 5.64012e-19)
(1.27919 0.264014 -6.51047e-19)
(1.27226 0.254251 1.85991e-18)
(0.0279665 -0.000243396 7.35545e-19)
(0.227797 0.0128368 -1.76965e-18)
(0.556313 0.0844354 -4.14709e-18)
(0.887506 0.172775 3.80438e-18)
(1.11443 0.237599 -2.85242e-19)
(1.23081 0.271762 8.40356e-19)
(1.27408 0.282505 -1.23553e-19)
(1.28103 0.280805 8.38353e-19)
(1.27488 0.270851 -5.49556e-20)
(1.26607 0.260689 -1.44591e-18)
(0.0447968 -0.000426514 -1.51074e-18)
(0.284883 0.0221106 2.31398e-18)
(0.639491 0.109108 1.88992e-18)
(0.95952 0.200527 -2.72266e-18)
(1.15905 0.260713 -4.5183e-19)
(1.25106 0.288644 1.70839e-19)
(1.27911 0.294588 1.75675e-18)
(1.27858 0.28984 9.58494e-20)
(1.26943 0.277987 3.61523e-19)
(1.25921 0.26742 -7.82634e-19)
(0.0642091 0.000474124 1.14739e-18)
(0.345739 0.0354646 -1.01481e-18)
(0.718819 0.136617 -8.65482e-19)
(1.02204 0.228793 1.46663e-18)
(1.19432 0.283325 5.02764e-19)
(1.26476 0.305011 3.83311e-19)
(1.28045 0.306517 -1.78869e-18)
(1.27429 0.298998 -6.28457e-19)
(1.26301 0.285443 -5.75784e-19)
(1.25174 0.274397 2.56962e-19)
(0.0861134 0.00278194 -3.44781e-19)
(0.408807 0.0530314 -3.20366e-19)
(0.792531 0.166428 1.64001e-18)
(1.07515 0.257371 -5.93239e-19)
(1.22128 0.305496 -2.62079e-19)
(1.27302 0.321029 -1.71695e-19)
(1.27883 0.318424 4.34716e-19)
(1.2685 0.308338 7.64118e-19)
(1.25574 0.293209 -2.315e-20)
(1.24365 0.281568 2.92778e-19)
(0.110303 0.00681128 -1.06388e-19)
(0.472383 0.0747216 4.19945e-19)
(0.859443 0.198081 -3.61225e-19)
(1.11922 0.286097 -2.2185e-19)
(1.24093 0.327283 1.73115e-19)
(1.27674 0.336825 1.20993e-19)
(1.27478 0.330391 -6.85645e-20)
(1.26143 0.317882 1.19189e-19)
(1.24764 0.301243 3.1093e-20)
(1.23495 0.288862 -9.41582e-20)
(0.136455 0.0128249 4.64162e-20)
(0.534779 0.100267 3.49828e-19)
(0.918848 0.231178 -2.72916e-19)
(1.15474 0.314824 -2.61801e-19)
(1.25418 0.348732 1.74497e-19)
(1.27662 0.352486 1.13622e-19)
(1.26867 0.342455 -1.81675e-19)
(1.25318 0.327611 1.85149e-19)
(1.23873 0.309481 1.68661e-20)
(1.22563 0.29621 -9.08763e-20)
(0.164132 0.0210037 1.81319e-19)
(0.59445 0.129261 -1.60024e-19)
(0.970401 0.265363 1.15757e-18)
(1.18229 0.343418 -5.06064e-19)
(1.26178 0.369861 -2.43397e-19)
(1.27323 0.368058 -2.75745e-19)
(1.26076 0.354614 5.66969e-19)
(1.24381 0.337481 3.84945e-19)
(1.22899 0.317842 3.13883e-19)
(1.21569 0.303544 1.7675e-19)
(0.192807 0.0314374 1.86326e-18)
(0.65008 0.161202 -9.99622e-19)
(1.01402 0.300295 -1.10389e-18)
(1.2025 0.371749 1.47442e-18)
(1.26442 0.390662 7.67683e-19)
(1.26697 0.383542 -5.19436e-20)
(1.25118 0.366828 -9.50967e-19)
(1.23334 0.347419 -6.91605e-19)
(1.21841 0.326228 -7.4145e-19)
(1.20511 0.310793 4.50857e-19)
(0.221873 0.0441316 -2.53266e-18)
(0.700631 0.195522 2.3305e-18)
(1.04979 0.33563 2.62384e-18)
(1.21594 0.399688 -2.51637e-18)
(1.26263 0.411104 -8.56315e-19)
(1.25816 0.398907 5.50393e-19)
(1.24005 0.379034 1.00392e-18)
(1.22175 0.357339 1.60687e-19)
(1.20694 0.334529 -3.25055e-20)
(1.19382 0.317873 -6.24602e-19)
(0.250685 0.0590202 -3.75384e-19)
(0.745359 0.231628 -3.30763e-18)
(1.0779 0.371021 -3.44387e-18)
(1.22318 0.427105 3.75694e-18)
(1.25689 0.431126 -4.21872e-19)
(1.247 0.414089 7.7368e-19)
(1.22742 0.391147 1.55433e-19)
(1.20904 0.367147 -4.35694e-19)
(1.19453 0.342641 2.32471e-19)
(1.18171 0.324689 -3.12431e-20)
(0.278591 0.0759667 7.59242e-19)
(0.783801 0.268945 2.07194e-18)
(1.09862 0.406125 1.13103e-18)
(1.22472 0.453849 -8.69038e-19)
(1.24756 0.450643 -1.33579e-18)
(1.23369 0.428994 -1.23213e-18)
(1.21332 0.403065 -2.50879e-19)
(1.1952 0.376754 6.74768e-19)
(1.18115 0.350503 -1.41038e-19)
(1.16856 0.331171 3.42458e-19)
(0.304968 0.094768 -2.92604e-18)
(0.815692 0.306923 -2.62827e-18)
(1.11228 0.440604 -4.02321e-19)
(1.22103 0.479753 -4.44653e-19)
(1.23498 0.469545 -9.91267e-19)
(1.21834 0.443505 6.01238e-19)
(1.19778 0.414663 -1.08722e-19)
(1.18023 0.386059 -1.08198e-18)
(1.16683 0.358131 -1.91342e-19)
(1.15424 0.337324 -1.5075e-18)
(0.329248 0.115163 6.6505e-19)
(0.840926 0.345034 2.22547e-18)
(1.11925 0.474129 1.86003e-18)
(1.21253 0.504635 1.97929e-18)
(1.2194 0.4877 3.43396e-20)
(1.20104 0.457491 1.6957e-18)
(1.18081 0.425799 -1.03871e-18)
(1.16415 0.394917 5.71543e-19)
(1.15162 0.365541 1.26638e-18)
(1.13897 0.343176 7.34602e-19)
(0.350936 0.13684 1.92055e-18)
(0.859523 0.382777 4.18563e-18)
(1.11993 0.506379 -5.17694e-19)
(1.19962 0.528306 -2.5093e-18)
(1.20103 0.504962 1.10831e-18)
(1.18187 0.470805 -1.14524e-18)
(1.16245 0.436333 -9.18021e-19)
(1.14698 0.403177 -7.00218e-19)
(1.13536 0.372553 -1.22955e-18)
(1.12321 0.348506 4.87918e-19)
(0.36963 0.159452 9.19619e-19)
(0.871606 0.419674 6.79065e-19)
(1.11471 0.537048 4.9983e-18)
(1.18264 0.550568 8.95495e-19)
(1.18007 0.521168 -7.7709e-19)
(1.16095 0.483289 -3.94415e-19)
(1.1428 0.44613 2.47723e-18)
(1.12881 0.410809 -9.59223e-20)
(1.11801 0.378922 9.89375e-19)
(1.10701 0.353321 -1.3609e-19)
(0.385022 0.182623 1.88989e-19)
(0.87738 0.455277 -4.29093e-18)
(1.10402 0.565846 -5.88071e-18)
(1.16195 0.571227 1.75717e-19)
(1.15671 0.53614 1.09405e-18)
(1.13841 0.49477 -1.50837e-18)
(1.12195 0.455026 -3.67734e-18)
(1.10958 0.417706 1.09707e-18)
(1.09972 0.384565 -6.29689e-20)
(1.09026 0.357381 5.29259e-19)
(0.396897 0.205965 -1.61523e-18)
(0.877117 0.489159 3.96131e-18)
(1.0883 0.592502 3.5503e-18)
(1.13786 0.590091 -1.18309e-18)
(1.13117 0.549696 -1.15888e-18)
(1.11435 0.505065 3.65329e-18)
(1.09988 0.46291 -8.13946e-19)
(1.08928 0.423736 1.38508e-18)
(1.08063 0.389368 6.29676e-19)
(1.07295 0.360658 -4.74166e-19)
(0.405137 0.229086 -3.70986e-18)
(0.871154 0.52092 -6.22438e-18)
(1.06796 0.616756 -1.16213e-18)
(1.11068 0.606955 2.26559e-18)
(1.10365 0.561668 1.2709e-18)
(1.08883 0.514002 -3.25337e-18)
(1.07666 0.46963 2.28837e-18)
(1.06801 0.428775 -1.55474e-18)
(1.06083 0.39322 -2.71327e-19)
(1.05513 0.363044 2.09201e-20)
(0.409728 0.251607 2.83531e-18)
(0.859906 0.550215 1.77123e-19)
(1.04333 0.63833 -5.83551e-19)
(1.08069 0.621606 -2.27662e-18)
(1.0743 0.571875 1.43676e-18)
(1.06196 0.521435 -5.29828e-19)
(1.05238 0.475056 -1.03923e-18)
(1.04586 0.4327 1.97175e-19)
(1.04036 0.396003 -2.42245e-19)
(1.03685 0.364468 1.42103e-19)
(0.410776 0.273159 2.25579e-19)
(0.84384 0.576816 -1.07196e-18)
(1.01463 0.656911 2.50348e-18)
(1.04822 0.633826 1.1242e-18)
(1.04333 0.580137 -1.48594e-18)
(1.03389 0.527224 2.07107e-18)
(1.02714 0.479065 1.54118e-19)
(1.02292 0.435402 1.78802e-19)
(1.0193 0.3976 -1.57493e-20)
(1.01817 0.364829 2.73792e-21)
(0.408484 0.293349 2.29871e-18)
(0.823336 0.600587 3.75885e-18)
(0.982212 0.672333 -2.46682e-19)
(1.0136 0.643314 -5.22016e-19)
(1.01092 0.586294 -6.05297e-19)
(1.00477 0.531239 -2.9717e-19)
(1.00106 0.481549 1.72082e-19)
(0.999278 0.436785 1.52324e-19)
(0.997737 0.397923 4.64707e-20)
(0.999167 0.364097 -1.96051e-19)
(0.403047 0.31174 5.27331e-19)
(0.798514 0.621101 7.04986e-19)
(0.946849 0.684726 -3.23965e-18)
(0.977213 0.649891 1.39468e-18)
(0.977304 0.590161 3.54394e-19)
(0.974744 0.533349 -7.88228e-19)
(0.974244 0.482402 2.81764e-19)
(0.975017 0.436751 1.04082e-19)
(0.975842 0.396904 -2.75456e-19)
(0.980258 0.362282 2.67858e-19)
(0.394524 0.328077 -1.98598e-18)
(0.769495 0.637707 -1.42446e-18)
(0.909087 0.693886 1.00563e-18)
(0.939358 0.653601 2.52215e-19)
(0.942702 0.591621 -5.35942e-19)
(0.943969 0.533437 4.78681e-19)
(0.946783 0.481516 1.80297e-19)
(0.950252 0.435179 -5.87016e-19)
(0.953983 0.394451 1.59641e-18)
(0.962184 0.359404 6.4316e-19)
(0.383035 0.342241 -1.56966e-18)
(0.736992 0.650244 3.76345e-18)
(0.869297 0.699483 -2.18428e-18)
(0.900315 0.654416 -2.981e-19)
(0.907327 0.590597 -3.28953e-19)
(0.912591 0.53141 -1.12256e-20)
(0.918786 0.478799 -6.04658e-19)
(0.925177 0.431921 3.18638e-19)
(0.932604 0.390336 -1.16301e-20)
(0.945208 0.355483 -2.68734e-19)
(0.368766 0.353993 -7.94515e-20)
(0.701759 0.658712 -1.1328e-18)
(0.827849 0.7013 5.40494e-19)
(0.860362 0.652228 -2.76763e-19)
(0.871393 0.587027 3.77947e-19)
(0.880771 0.527205 4.05065e-19)
(0.890424 0.474204 1.20512e-18)
(0.900081 0.426925 -9.28147e-19)
(0.911888 0.384218 -1.73177e-18)
(0.927938 0.34987 7.64548e-19)
(0.352004 0.362967 1.12263e-19)
(0.664308 0.662926 -1.57983e-19)
(0.785118 0.699258 7.73669e-20)
(0.81978 0.646945 4.74747e-19)
(0.835114 0.580849 -9.54184e-19)
(0.848696 0.520768 -1.63891e-18)
(0.861946 0.467705 -4.71828e-19)
(0.87524 0.420371 -1.4964e-19)
(0.891583 0.376495 2.39485e-18)
(0.907917 0.338216 -4.80559e-19)
(0.333208 0.369056 -4.96781e-19)
(0.625147 0.662814 -4.60883e-19)
(0.741513 0.693304 8.93844e-20)
(0.778865 0.638494 8.53148e-20)
(0.798715 0.572009 -7.51159e-19)
(0.816582 0.512038 3.18266e-18)
(0.833622 0.4592 -2.23247e-18)
(0.850751 0.41219 2.62649e-18)
(0.870369 0.369196 -1.81479e-18)
(0.885302 0.333306 -2.41544e-18)
(0.312755 0.372142 1.36045e-19)
(0.584744 0.658302 -1.83407e-19)
(0.697436 0.683422 7.41706e-20)
(0.737916 0.62684 1.18879e-18)
(0.762431 0.560474 -5.11358e-19)
(0.784646 0.500984 7.66825e-19)
(0.805596 0.448628 1.2986e-18)
(0.82651 0.40194 -6.7825e-19)
(0.84903 0.358919 -1.78491e-18)
(0.86497 0.322405 2.44401e-18)
(0.291016 0.372145 8.03735e-19)
(0.543579 0.64938 1.15326e-18)
(0.653283 0.669622 -1.21813e-18)
(0.697233 0.611975 -1.0792e-18)
(0.726503 0.546233 3.87586e-18)
(0.753094 0.487609 -3.89481e-18)
(0.777961 0.436086 4.64215e-18)
(0.802393 0.390227 -1.13851e-18)
(0.827275 0.348338 1.20992e-18)
(0.844635 0.313038 2.28443e-18)
(0.268356 0.369028 2.02814e-18)
(0.502116 0.636071 -1.14498e-18)
(0.609443 0.651944 -7.84761e-19)
(0.657117 0.593919 -4.23987e-19)
(0.691176 0.529293 5.03442e-19)
(0.722131 0.471904 -1.0399e-18)
(0.750887 0.421479 -1.38551e-18)
(0.778715 0.376557 -3.00398e-18)
(0.806019 0.335616 2.96077e-18)
(0.825391 0.301272 -9.45516e-19)
(0.245134 0.362789 7.56975e-19)
(0.460807 0.618438 -3.38327e-19)
(0.566295 0.630454 -1.12256e-18)
(0.61786 0.572719 1.41218e-18)
(0.656688 0.509693 -2.49395e-18)
(0.69194 0.453922 6.64189e-18)
(0.724475 0.404951 -3.50708e-18)
(0.755512 0.361387 3.1353e-18)
(0.785162 0.321916 -5.70036e-18)
(0.806755 0.28882 -1.51252e-18)
(0.221699 0.353469 -6.30422e-19)
(0.420088 0.596577 2.53417e-18)
(0.524202 0.605246 5.93436e-19)
(0.579752 0.548443 -1.31973e-18)
(0.623275 0.487484 -2.25126e-18)
(0.662723 0.433693 -1.67729e-18)
(0.698926 0.386467 1.11106e-18)
(0.733052 0.344486 -2.83846e-18)
(0.765044 0.306616 1.37327e-18)
(0.788959 0.274881 1.8652e-19)
(0.198383 0.341145 -4.13968e-18)
(0.380373 0.570624 -1.01726e-18)
(0.48352 0.576441 -2.89108e-19)
(0.543069 0.521189 3.61954e-18)
(0.591162 0.462748 -3.3861e-18)
(0.63466 0.411302 7.83363e-19)
(0.67438 0.366153 -4.08866e-19)
(0.71145 0.326075 2.78172e-18)
(0.745727 0.290067 8.42212e-19)
(0.772003 0.259811 -1.73764e-18)
(0.175501 0.325915 3.7505e-18)
(0.342063 0.540751 -2.17341e-18)
(0.444585 0.544187 9.95103e-20)
(0.50808 0.491073 -3.30025e-18)
(0.560573 0.43558 3.9789e-18)
(0.607944 0.386825 -1.74553e-18)
(0.651015 0.344047 1.03511e-18)
(0.690879 0.306124 7.28177e-20)
(0.727363 0.272164 -3.42481e-19)
(0.755989 0.24354 -1.05636e-18)
(0.153351 0.307896 -1.53616e-18)
(0.305534 0.507161 4.48894e-18)
(0.407716 0.50866 2.54204e-18)
(0.47504 0.458235 4.12929e-18)
(0.531717 0.4061 -9.3869e-19)
(0.582752 0.36037 3.79134e-19)
(0.628983 0.320258 2.85898e-18)
(0.671471 0.284749 -2.86992e-18)
(0.710062 0.253027 6.39203e-20)
(0.740991 0.226178 -1.26499e-18)
(0.13222 0.287231 -3.61039e-18)
(0.271143 0.470081 -2.68567e-19)
(0.373209 0.470063 -1.49811e-18)
(0.444189 0.422838 -6.65994e-18)
(0.504796 0.374444 -6.35839e-18)
(0.559256 0.332052 1.05109e-18)
(0.608436 0.294878 -3.47765e-18)
(0.653363 0.262012 6.07194e-18)
(0.693937 0.232705 8.71633e-19)
(0.727091 0.20779 1.81509e-18)
(0.112381 0.264091 5.36448e-18)
(0.239216 0.429762 -4.35775e-18)
(0.341338 0.428618 -2.20696e-18)
(0.415751 0.385064 3.8533e-18)
(0.479996 0.340766 4.33516e-18)
(0.537618 0.302004 -1.42534e-18)
(0.589513 0.268023 1.70337e-18)
(0.636677 0.238017 -2.21169e-18)
(0.679094 0.211291 -2.82658e-18)
(0.714363 0.188464 1.07683e-18)
(0.0940849 0.238673 -3.05204e-18)
(0.210054 0.386479 1.28162e-18)
(0.312355 0.384571 4.68143e-18)
(0.389931 0.345113 -2.08028e-18)
(0.457491 0.305234 1.64418e-19)
(0.517987 0.27037 5.73854e-18)
(0.572345 0.239816 -5.50827e-19)
(0.62153 0.212864 -4.37469e-18)
(0.665631 0.188875 4.96912e-18)
(0.702874 0.16829 -1.81984e-18)
(0.077559 0.211194 4.27537e-18)
(0.183928 0.340528 4.71818e-19)
(0.286485 0.338183 3.05413e-19)
(0.366915 0.303201 4.22848e-18)
(0.43744 0.268032 -5.56301e-19)
(0.500499 0.23731 -3.60411e-18)
(0.557049 0.210391 1.74556e-18)
(0.608027 0.186668 3.14632e-19)
(0.653637 0.16556 -2.06686e-18)
(0.692686 0.147365 3.58399e-19)
(0.0630066 0.18189 -2.66513e-18)
(0.161079 0.292224 -5.08779e-18)
(0.26393 0.289732 1.16632e-18)
(0.346871 0.259559 -2.25215e-18)
(0.419983 0.229357 -1.34132e-18)
(0.485275 0.202989 3.21896e-18)
(0.543732 0.179891 -7.72411e-19)
(0.596264 0.15955 7.0324e-19)
(0.643196 0.141453 -8.49588e-19)
(0.683854 0.125789 1.68916e-18)
(0.0506045 0.151014 9.71028e-19)
(0.141715 0.241899 3.43046e-18)
(0.244863 0.239512 -4.72271e-18)
(0.329942 0.214432 2.19988e-18)
(0.405243 0.189416 -9.91805e-19)
(0.472422 0.167586 -2.75881e-18)
(0.532488 0.148468 2.23107e-18)
(0.586326 0.131642 4.6133e-19)
(0.634378 0.116669 -7.16479e-20)
(0.676424 0.103662 -1.96116e-18)
(0.0405016 0.118831 3.21082e-19)
(0.12601 0.189902 1.11078e-18)
(0.229432 0.187826 4.27739e-18)
(0.316251 0.168074 -8.09743e-19)
(0.393325 0.148426 -6.30618e-19)
(0.46203 0.131287 2.30515e-19)
(0.523394 0.116279 1.02995e-19)
(0.578285 0.103077 8.25583e-19)
(0.627247 0.091327 -1.07606e-18)
(0.670435 0.0810869 -6.84061e-19)
(0.0328181 0.085621 -7.98421e-19)
(0.114107 0.136591 -1.35072e-18)
(0.217753 0.134989 -3.32938e-18)
(0.305895 0.120749 1.65481e-18)
(0.384311 0.106612 1.33261e-18)
(0.454171 0.0942839 5.64144e-20)
(0.516517 0.0834896 -2.17907e-18)
(0.572201 0.0739979 -9.59048e-19)
(0.621853 0.0655473 7.53217e-19)
(0.665916 0.058165 8.05646e-19)
(0.027645 0.0516705 -1.51213e-19)
(0.106113 0.0823342 -1.63255e-19)
(0.209918 0.081326 6.32454e-19)
(0.298949 0.072729 -4.22018e-19)
(0.378266 0.0642058 -3.6865e-19)
(0.448901 0.0567739 -2.47316e-19)
(0.511905 0.0502675 4.48837e-19)
(0.568119 0.0445477 1.69486e-18)
(0.618234 0.039454 2.4345e-19)
(0.662892 0.0349969 -4.30563e-19)
(0.0250432 0.0172732 -1.791e-20)
(0.102097 0.027508 4.36927e-19)
(0.205986 0.027164 3.31742e-19)
(0.295464 0.0242896 -2.55029e-19)
(0.375233 0.0214416 3.27031e-19)
(0.446257 0.0189585 1.25649e-19)
(0.50959 0.0167848 7.10366e-21)
(0.56607 0.014874 -5.55743e-19)
(0.616419 0.0131722 1.43452e-19)
(0.661376 0.0116818 -3.3329e-19)
(0.0250432 -0.0172735 9.95199e-20)
(0.102097 -0.0275085 3.28379e-19)
(0.205986 -0.0271645 3.51695e-19)
(0.295464 -0.02429 -2.05979e-19)
(0.375233 -0.021442 3.34963e-19)
(0.446257 -0.0189589 -4.76839e-21)
(0.50959 -0.0167851 1.34297e-19)
(0.56607 -0.0148743 -6.18738e-19)
(0.616419 -0.0131725 1.26018e-19)
(0.661376 -0.0116821 -2.88745e-19)
(0.027645 -0.0516708 -7.77268e-20)
(0.106113 -0.0823347 -4.56873e-19)
(0.209918 -0.0813265 1.23332e-18)
(0.298949 -0.0727295 -1.06862e-18)
(0.378266 -0.0642062 -4.99374e-20)
(0.448901 -0.0567743 -6.9388e-19)
(0.511905 -0.0502679 1.11619e-18)
(0.568119 -0.044548 1.50348e-18)
(0.618234 -0.0394543 2.66373e-19)
(0.662892 -0.0349972 -5.73135e-19)
(0.0328181 -0.0856213 -1.62262e-19)
(0.114107 -0.136591 -1.17871e-18)
(0.217754 -0.13499 -2.7082e-18)
(0.305895 -0.12075 2.30953e-18)
(0.384311 -0.106613 4.6963e-19)
(0.454171 -0.0942843 4.11293e-19)
(0.516517 -0.0834899 -2.00881e-18)
(0.572201 -0.0739982 -1.17353e-18)
(0.621853 -0.0655476 -2.58407e-19)
(0.665916 -0.0581653 1.77037e-18)
(0.0405016 -0.118831 -5.70514e-19)
(0.12601 -0.189902 7.08838e-19)
(0.229432 -0.187826 4.9087e-18)
(0.316251 -0.168074 -4.35142e-19)
(0.393325 -0.148427 -1.22797e-18)
(0.46203 -0.131288 8.71111e-19)
(0.523395 -0.116279 5.85777e-20)
(0.578285 -0.103078 3.01013e-19)
(0.627247 -0.0913273 -6.53811e-19)
(0.670435 -0.0810872 -1.72509e-18)
(0.0506046 -0.151014 -3.82169e-19)
(0.141715 -0.2419 2.07181e-18)
(0.244863 -0.239512 -4.94036e-18)
(0.329942 -0.214432 2.11352e-18)
(0.405243 -0.189416 2.00105e-20)
(0.472422 -0.167587 -2.61534e-18)
(0.532488 -0.148468 1.14344e-18)
(0.586326 -0.131642 -1.0416e-19)
(0.634378 -0.11667 4.27436e-19)
(0.676424 -0.103662 -1.29241e-19)
(0.0630067 -0.18189 -4.39488e-18)
(0.161079 -0.292224 -5.20633e-18)
(0.26393 -0.289733 1.35008e-18)
(0.346871 -0.25956 -2.41919e-18)
(0.419983 -0.229357 -6.76334e-19)
(0.485275 -0.202989 9.97095e-19)
(0.543732 -0.179891 3.6756e-19)
(0.596264 -0.159551 1.34545e-18)
(0.643196 -0.141453 -2.88088e-19)
(0.683854 -0.125789 1.54375e-18)
(0.077559 -0.211195 4.20347e-18)
(0.183929 -0.340528 2.67831e-18)
(0.286486 -0.338184 -2.00519e-18)
(0.366916 -0.303201 3.33193e-18)
(0.43744 -0.268032 -2.79993e-19)
(0.500499 -0.23731 -3.51399e-18)
(0.557049 -0.210391 6.11554e-19)
(0.608027 -0.186668 2.40785e-19)
(0.653637 -0.16556 -1.48365e-18)
(0.692686 -0.147366 3.60452e-19)
(0.094085 -0.238674 -3.10891e-18)
(0.210054 -0.38648 5.53008e-18)
(0.312355 -0.384572 2.15225e-18)
(0.389931 -0.345113 -2.62562e-18)
(0.457491 -0.305234 2.26004e-20)
(0.517987 -0.270371 6.47748e-18)
(0.572345 -0.239817 -1.94599e-18)
(0.62153 -0.212864 -1.24727e-18)
(0.665631 -0.188875 2.9722e-18)
(0.702874 -0.16829 -1.50636e-18)
(0.112382 -0.264091 1.73e-18)
(0.239216 -0.429763 -8.37942e-19)
(0.341339 -0.428619 -1.94992e-18)
(0.415751 -0.385065 1.44937e-18)
(0.479996 -0.340766 5.49538e-18)
(0.537618 -0.302004 -1.90871e-18)
(0.589514 -0.268024 8.50644e-19)
(0.636678 -0.238017 -6.00203e-19)
(0.679094 -0.211291 -4.97883e-18)
(0.714363 -0.188464 2.17705e-18)
(0.132221 -0.287231 -2.28062e-18)
(0.271143 -0.470082 -2.00304e-18)
(0.373209 -0.470063 3.35331e-19)
(0.444189 -0.422839 -7.63772e-18)