/*--------------------------------*- C++ -*----------------------------------*\
  =========                 |
  \\      /  F ield         | OpenFOAM: The Open Source CFD Toolbox
   \\    /   O peration     | Website:  https://openfoam.org
    \\  /    A nd           | Version:  7
     \\/     M anipulation  |
\*---------------------------------------------------------------------------*/
FoamFile
{
    version     2.0;
    format      ascii;
    class       volScalarField;
    location    "28.0005";
    object      p;
}
// * * * * * * * * * * * * * * * * * * * * * * * * * * * * * * * * * * * * * //

dimensions      [0 2 -2 0 0 0 0];

internalField   nonuniform List<scalar> 
18750
(
-0.0134053
-0.0224152
-0.038106
-0.0613747
-0.0908683
-0.126045
-0.166099
-0.210357
-0.258081
-0.308612
-0.361265
-0.415289
-0.469789
-0.523831
-0.576627
-0.0174159
-0.0261717
-0.0416354
-0.0647101
-0.094043
-0.129086
-0.169029
-0.213186
-0.260808
-0.311231
-0.363777
-0.417702
-0.472091
-0.525954
-0.578469
-0.0248236
-0.0331014
-0.0481285
-0.0708262
-0.0998444
-0.134626
-0.17435
-0.218315
-0.265749
-0.315978
-0.368331
-0.422078
-0.476275
-0.529838
-0.581887
-0.035344
-0.0429452
-0.0573416
-0.0794909
-0.108047
-0.142442
-0.181837
-0.22551
-0.27266
-0.322593
-0.374644
-0.428105
-0.48201
-0.535166
-0.586615
-0.0485764
-0.0553355
-0.0689286
-0.0903782
-0.118338
-0.152223
-0.191179
-0.234455
-0.281216
-0.330739
-0.382361
-0.435401
-0.488892
-0.54155
-0.592321
-0.0640289
-0.0698083
-0.0824586
-0.103087
-0.130334
-0.163596
-0.202002
-0.244772
-0.291035
-0.340029
-0.391084
-0.44355
-0.49649
-0.548571
-0.598635
-0.0811572
-0.0858146
-0.097438
-0.117164
-0.143607
-0.176148
-0.213899
-0.256057
-0.30171
-0.350057
-0.40041
-0.452148
-0.504396
-0.555828
-0.605196
-0.0993537
-0.102772
-0.113345
-0.13213
-0.157705
-0.189444
-0.226449
-0.267892
-0.312833
-0.360426
-0.409954
-0.460824
-0.512246
-0.562962
-0.611673
-0.117966
-0.120099
-0.129657
-0.147503
-0.172174
-0.203053
-0.239236
-0.279878
-0.324014
-0.370761
-0.419367
-0.469255
-0.519732
-0.569673
-0.617778
-0.136338
-0.137224
-0.145876
-0.162816
-0.186575
-0.216562
-0.251868
-0.291638
-0.334894
-0.380722
-0.428338
-0.477164
-0.526605
-0.575714
-0.623266
-0.153852
-0.153623
-0.161544
-0.177637
-0.200504
-0.229592
-0.263988
-0.302835
-0.345153
-0.390012
-0.436597
-0.484321
-0.532665
-0.580885
-0.627926
-0.169939
-0.168854
-0.17625
-0.191574
-0.213597
-0.241803
-0.27528
-0.313174
-0.354515
-0.398371
-0.44391
-0.490527
-0.537751
-0.585027
-0.631572
-0.184124
-0.182612
-0.189635
-0.204286
-0.225543
-0.252909
-0.285473
-0.322404
-0.362746
-0.405581
-0.450075
-0.495612
-0.541731
-0.588016
-0.634031
-0.196047
-0.194672
-0.201379
-0.215495
-0.236092
-0.262671
-0.294346
-0.330319
-0.369656
-0.411464
-0.454922
-0.49942
-0.544494
-0.589769
-0.635119
-0.205689
-0.204697
-0.211238
-0.224998
-0.245051
-0.270905
-0.301721
-0.336753
-0.375091
-0.415875
-0.458309
-0.501806
-0.545928
-0.590246
-0.634638
-0.213057
-0.212526
-0.219144
-0.232664
-0.252289
-0.277477
-0.307472
-0.341583
-0.378931
-0.418699
-0.460125
-0.502645
-0.545891
-0.589399
-0.632563
-0.218246
-0.218208
-0.225066
-0.238498
-0.257731
-0.282306
-0.31152
-0.344722
-0.381086
-0.419847
-0.460283
-0.501843
-0.544238
-0.587089
-0.629089
-0.221502
-0.221937
-0.22905
-0.242465
-0.261379
-0.285383
-0.313839
-0.346126
-0.381491
-0.419249
-0.458713
-0.499336
-0.540886
-0.583134
-0.624268
-0.223218
-0.223989
-0.231219
-0.2446
-0.263239
-0.286697
-0.314395
-0.345757
-0.380122
-0.416869
-0.455373
-0.495078
-0.535761
-0.577537
-0.617873
-0.22386
-0.224656
-0.231742
-0.245007
-0.263368
-0.286275
-0.313195
-0.343619
-0.376967
-0.412678
-0.450222
-0.489043
-0.528798
-0.570254
-0.609747
-0.22386
-0.224189
-0.230801
-0.243833
-0.261869
-0.284186
-0.310289
-0.339741
-0.372034
-0.406659
-0.443212
-0.481221
-0.51994
-0.561202
-0.599837
-0.223476
-0.222721
-0.228589
-0.241265
-0.25888
-0.280532
-0.305756
-0.334172
-0.365349
-0.398816
-0.434287
-0.4716
-0.509153
-0.550309
-0.588131
-0.222694
-0.220262
-0.225345
-0.237523
-0.254557
-0.275441
-0.299702
-0.326984
-0.35695
-0.389191
-0.423392
-0.460152
-0.496424
-0.537539
-0.574613
-0.22128
-0.216851
-0.221392
-0.232845
-0.249071
-0.26906
-0.292256
-0.318268
-0.34688
-0.377861
-0.410497
-0.446832
-0.481743
-0.52289
-0.5593
-0.219021
-0.212864
-0.21712
-0.227478
-0.242624
-0.261567
-0.28357
-0.308156
-0.335169
-0.364909
-0.39562
-0.431582
-0.4651
-0.506324
-0.542326
-0.215941
-0.209112
-0.212869
-0.221684
-0.235478
-0.253194
-0.273815
-0.296816
-0.321863
-0.350379
-0.378857
-0.414339
-0.446517
-0.487681
-0.523786
-0.212326
-0.206317
-0.208817
-0.215777
-0.227986
-0.244233
-0.263187
-0.284455
-0.307052
-0.334264
-0.360358
-0.395032
-0.426209
-0.466815
-0.503647
-0.208782
-0.204507
-0.205063
-0.210176
-0.220578
-0.235056
-0.251907
-0.27127
-0.290964
-0.31648
-0.340353
-0.373432
-0.40454
-0.44378
-0.481958
-0.205769
-0.203146
-0.20189
-0.205393
-0.213714
-0.22609
-0.240301
-0.257422
-0.273929
-0.296997
-0.31915
-0.349341
-0.381548
-0.418612
-0.45923
-0.203465
-0.201837
-0.19973
-0.201804
-0.207821
-0.217818
-0.228806
-0.243094
-0.256395
-0.275758
-0.297243
-0.322803
-0.357357
-0.390243
-0.437222
-0.201798
-0.200562
-0.19867
-0.199458
-0.203247
-0.210685
-0.218069
-0.228478
-0.238891
-0.253081
-0.274655
-0.294845
-0.331609
-0.359857
-0.40777
-0.200627
-0.199566
-0.198241
-0.19821
-0.200237
-0.205028
-0.208757
-0.214222
-0.221598
-0.22995
-0.250924
-0.267275
-0.303124
-0.331669
-0.375635
-0.199786
-0.198896
-0.198059
-0.197872
-0.19881
-0.201071
-0.201324
-0.201143
-0.20501
-0.207185
-0.227145
-0.24014
-0.277676
-0.303138
-0.349519
-0.199127
-0.198463
-0.198068
-0.198173
-0.198651
-0.198815
-0.195923
-0.190158
-0.189666
-0.186472
-0.203251
-0.215758
-0.252994
-0.279032
-0.329061
-0.198509
-0.198128
-0.198214
-0.198784
-0.199198
-0.197958
-0.19223
-0.182158
-0.175843
-0.169451
-0.179452
-0.194857
-0.22746
-0.259731
-0.3099
-0.197802
-0.197753
-0.198341
-0.199402
-0.199882
-0.197923
-0.189773
-0.177123
-0.164648
-0.156177
-0.160731
-0.177566
-0.206511
-0.24498
-0.289009
-0.196911
-0.197221
-0.198253
-0.199731
-0.200294
-0.198059
-0.188246
-0.174269
-0.157015
-0.146438
-0.148582
-0.165547
-0.191974
-0.233617
-0.272284
-0.195795
-0.196451
-0.197807
-0.199579
-0.200194
-0.197894
-0.187377
-0.172633
-0.153035
-0.140573
-0.141614
-0.159009
-0.183604
-0.223243
-0.261034
-0.194483
-0.195432
-0.19696
-0.198876
-0.199561
-0.197116
-0.187067
-0.171859
-0.152328
-0.139356
-0.139292
-0.156081
-0.180035
-0.215536
-0.252622
-0.193092
-0.194241
-0.195783
-0.197708
-0.198407
-0.196174
-0.187505
-0.172673
-0.154215
-0.142147
-0.141467
-0.156226
-0.179441
-0.210753
-0.245539
-0.191822
-0.193074
-0.19451
-0.196224
-0.197155
-0.195772
-0.189721
-0.176487
-0.158558
-0.147887
-0.146918
-0.159171
-0.18046
-0.20791
-0.239424
-0.190903
-0.192187
-0.193506
-0.195244
-0.196499
-0.196415
-0.193937
-0.183039
-0.165276
-0.154903
-0.153802
-0.163726
-0.182261
-0.206169
-0.234018
-0.19051
-0.191787
-0.193076
-0.194925
-0.196723
-0.198087
-0.198876
-0.189035
-0.172788
-0.162203
-0.160743
-0.168668
-0.184355
-0.204852
-0.229104
-0.190691
-0.191933
-0.193249
-0.195269
-0.19767
-0.200446
-0.201507
-0.19428
-0.179489
-0.169116
-0.167129
-0.173288
-0.186288
-0.203597
-0.224547
-0.191358
-0.19253
-0.19388
-0.196006
-0.198759
-0.20293
-0.201839
-0.197315
-0.184682
-0.175082
-0.172609
-0.177169
-0.187793
-0.202228
-0.220191
-0.192349
-0.193398
-0.194712
-0.196779
-0.19976
-0.203743
-0.202137
-0.198217
-0.188105
-0.179764
-0.176997
-0.180196
-0.188731
-0.200604
-0.215947
-0.193486
-0.194358
-0.195515
-0.197252
-0.200874
-0.201721
-0.202195
-0.198158
-0.190022
-0.18306
-0.180232
-0.182322
-0.189038
-0.198695
-0.211737
-0.194629
-0.195284
-0.196135
-0.197447
-0.20146
-0.199928
-0.201206
-0.197454
-0.190805
-0.185068
-0.182323
-0.183574
-0.188732
-0.196465
-0.207501
-0.195698
-0.196123
-0.196452
-0.197912
-0.199378
-0.199642
-0.199761
-0.19629
-0.190781
-0.185995
-0.183382
-0.184
-0.187825
-0.193924
-0.203204
-0.196677
-0.196857
-0.196526
-0.198791
-0.195719
-0.199011
-0.198338
-0.194909
-0.190176
-0.186056
-0.183542
-0.183664
-0.186366
-0.191083
-0.198806
-0.197617
-0.197449
-0.196787
-0.199095
-0.194465
-0.197591
-0.196733
-0.193409
-0.189162
-0.185444
-0.182958
-0.182656
-0.184393
-0.18795
-0.194289
-0.198591
-0.19792
-0.197965
-0.196964
-0.196012
-0.196556
-0.195082
-0.191812
-0.187834
-0.184304
-0.181759
-0.181054
-0.18196
-0.18454
-0.189626
-0.199661
-0.198328
-0.200193
-0.193353
-0.196774
-0.195963
-0.193575
-0.190143
-0.186248
-0.182741
-0.180057
-0.178948
-0.179118
-0.180856
-0.184801
-0.200815
-0.19916
-0.201979
-0.192687
-0.196214
-0.195218
-0.192224
-0.188459
-0.184455
-0.180831
-0.177933
-0.176406
-0.175914
-0.176918
-0.1798
-0.202053
-0.201034
-0.201833
-0.196491
-0.19632
-0.194394
-0.190887
-0.186728
-0.182477
-0.178625
-0.17545
-0.173492
-0.172395
-0.172734
-0.174622
-0.203435
-0.204251
-0.199724
-0.200676
-0.197513
-0.193781
-0.189536
-0.184926
-0.180333
-0.176162
-0.172655
-0.170248
-0.168591
-0.168321
-0.169279
-0.204981
-0.208328
-0.197175
-0.202192
-0.19854
-0.193427
-0.188249
-0.183053
-0.178026
-0.173465
-0.169577
-0.166709
-0.164527
-0.163688
-0.163793
-0.206931
-0.21182
-0.198059
-0.201864
-0.198791
-0.19306
-0.187012
-0.181124
-0.175566
-0.170549
-0.166238
-0.162899
-0.160218
-0.158848
-0.158191
-0.209655
-0.213725
-0.203448
-0.20234
-0.198565
-0.19246
-0.185716
-0.179112
-0.172951
-0.167419
-0.162648
-0.15883
-0.155676
-0.15381
-0.152489
-0.213484
-0.213889
-0.210681
-0.204767
-0.198613
-0.191659
-0.184248
-0.176957
-0.170163
-0.164074
-0.158814
-0.15451
-0.150904
-0.148581
-0.146697
-0.218759
-0.213045
-0.216687
-0.208273
-0.199311
-0.190857
-0.182588
-0.174597
-0.167161
-0.160498
-0.154731
-0.149943
-0.145908
-0.143166
-0.1408
-0.225728
-0.21332
-0.220664
-0.211712
-0.200458
-0.190172
-0.18077
-0.171995
-0.163908
-0.156668
-0.15039
-0.145126
-0.140684
-0.137561
-0.13478
-0.234132
-0.217558
-0.223319
-0.214424
-0.201583
-0.189526
-0.178812
-0.169139
-0.160369
-0.152554
-0.145774
-0.14005
-0.135229
-0.131755
-0.128606
-0.243336
-0.226313
-0.226008
-0.216219
-0.202251
-0.188699
-0.176663
-0.166014
-0.156524
-0.148134
-0.140865
-0.134705
-0.129529
-0.125733
-0.122252
-0.252181
-0.237726
-0.229615
-0.217307
-0.202215
-0.187453
-0.174219
-0.162588
-0.152355
-0.143387
-0.135644
-0.129071
-0.123569
-0.119479
-0.115708
-0.259396
-0.248528
-0.233913
-0.21799
-0.201437
-0.185624
-0.171361
-0.158811
-0.14784
-0.138299
-0.130092
-0.12313
-0.117326
-0.112976
-0.10897
-0.264057
-0.256509
-0.237665
-0.21831
-0.200007
-0.183158
-0.168003
-0.154626
-0.142953
-0.132852
-0.124196
-0.116859
-0.110772
-0.106201
-0.102033
-0.266128
-0.261211
-0.240046
-0.218065
-0.198006
-0.180078
-0.164098
-0.149983
-0.137664
-0.12703
-0.117942
-0.110244
-0.103885
-0.0991213
-0.0948689
-0.266544
-0.263203
-0.240869
-0.217059
-0.19544
-0.176421
-0.159639
-0.14485
-0.131943
-0.120816
-0.111317
-0.103273
-0.0966513
-0.0917098
-0.0874085
-0.266335
-0.263356
-0.240267
-0.215187
-0.192267
-0.172197
-0.154627
-0.139207
-0.125767
-0.114189
-0.10431
-0.0959455
-0.0890805
-0.0839607
-0.0795308
-0.266186
-0.262424
-0.238491
-0.212434
-0.188435
-0.167395
-0.149059
-0.133042
-0.119115
-0.10713
-0.0969063
-0.0882603
-0.0811964
-0.0759171
-0.0710932
-0.26638
-0.26086
-0.235764
-0.208826
-0.183902
-0.161983
-0.142922
-0.126341
-0.111971
-0.099622
-0.089095
-0.0802165
-0.0730244
-0.0676609
-0.062019
-0.266879
-0.258883
-0.232253
-0.204401
-0.178638
-0.155924
-0.136191
-0.119088
-0.104319
-0.0916536
-0.0808706
-0.0718164
-0.0645775
-0.0592314
-0.0524189
-0.267428
-0.256562
-0.228047
-0.19918
-0.17261
-0.149177
-0.128834
-0.111262
-0.0961463
-0.0832218
-0.0722406
-0.0630767
-0.0558689
-0.0505027
-0.042665
-0.26765
-0.253855
-0.223168
-0.193159
-0.165787
-0.141698
-0.120818
-0.102843
-0.0874459
-0.0743327
-0.0632227
-0.0540272
-0.0469255
-0.0412641
-0.0330351
-0.267161
-0.250561
-0.217554
-0.186304
-0.15813
-0.133449
-0.112115
-0.0938185
-0.0782184
-0.0649982
-0.0538353
-0.0447025
-0.0376878
-0.0315465
-0.0235129
-0.265655
-0.246314
-0.211078
-0.178559
-0.149601
-0.124402
-0.102712
-0.0841926
-0.0684765
-0.0552233
-0.0440804
-0.0350726
-0.0280879
-0.021531
-0.0139802
-0.26283
-0.240826
-0.203587
-0.169855
-0.140168
-0.114545
-0.0926166
-0.0739801
-0.0582366
-0.0449829
-0.033949
-0.0251053
-0.0181088
-0.0113344
-0.00436488
-0.25845
-0.2339
-0.194938
-0.160127
-0.129808
-0.103887
-0.0818453
-0.0631843
-0.0474571
-0.0342873
-0.0234363
-0.0147832
-0.00778029
-0.000995436
0.00536118
-0.252329
-0.225401
-0.185008
-0.149319
-0.118523
-0.0924518
-0.0703882
-0.0517668
-0.0361404
-0.0231467
-0.0125436
-0.00410898
0.00284543
0.00950046
0.0152059
-0.244345
-0.215261
-0.1737
-0.1374
-0.106341
-0.0802229
-0.0582103
-0.0397252
-0.0242978
-0.0115718
-0.00127848
0.00690312
0.01374
0.0201722
0.0251719
-0.234428
-0.20348
-0.160942
-0.124363
-0.0932536
-0.0671623
-0.0453111
-0.0270691
-0.0119441
0.000424204
0.0103456
0.0182357
0.0248937
0.0310316
0.0352509
-0.222559
-0.190118
-0.146704
-0.110202
-0.0791958
-0.0532762
-0.0317048
-0.0138158
0.000903198
0.0128258
0.0223145
0.0298741
0.036297
0.0420691
0.0454111
-0.208751
-0.175233
-0.131055
-0.0948353
-0.0641613
-0.0385829
-0.0174147
1.19556e-05
0.0142236
0.0256171
0.0346178
0.0418073
0.0479255
0.0532268
0.0555991
-0.19305
-0.158772
-0.114116
-0.0782728
-0.0481635
-0.023107
-0.0024703
0.0143857
0.0279941
0.0387844
0.0472517
0.0540282
0.0597371
0.064389
0.0657143
-0.175549
-0.140513
-0.0960557
-0.0606322
-0.0312445
-0.00687922
0.0130944
0.0292732
0.0421897
0.0523153
0.0602147
0.0665259
0.0716766
0.0754025
0.075488
-0.156379
-0.120294
-0.0769863
-0.0420499
-0.0134731
0.0100595
0.0292417
0.0446393
0.0567845
0.0661967
0.0734988
0.0792714
0.0836742
0.0860998
0.0844535
-0.13565
-0.0983817
-0.0567852
-0.0226174
0.00506802
0.0276557
0.0459286
0.0604471
0.0717511
0.0804096
0.0870761
0.0922029
0.0956307
0.0963409
0.0924557
-0.113362
-0.0752113
-0.0354461
-0.00237979
0.0243
0.0458464
0.0631065
0.0766573
0.0870596
0.0949241
0.10089
0.105223
0.107435
0.10621
0.100432
-0.0894665
-0.0512147
-0.0130917
0.0186282
0.0441549
0.0645642
0.0807212
0.0932276
0.102675
0.109697
0.114864
0.118226
0.119043
0.116214
0.110284
-0.064147
-0.0264748
0.0101185
0.0403438
0.0645677
0.0837409
0.0987146
0.110111
0.118553
0.12467
0.128922
0.13116
0.130556
0.126634
0.123728
-0.0376207
-0.00099457
0.034042
0.062674
0.0854671
0.103308
0.117026
0.127256
0.13464
0.139782
0.143012
0.144048
0.142187
0.137741
0.136872
-0.0100981
0.0251762
0.0585573
0.0855123
0.106772
0.123194
0.135591
0.144603
0.150879
0.154971
0.157102
0.156954
0.154074
0.149499
0.149374
0.018234
0.0519445
0.0835518
0.10875
0.128395
0.143325
0.154343
0.162091
0.167205
0.170185
0.171181
0.169903
0.166158
0.161481
0.161305
0.0471966
0.079186
0.108912
0.13228
0.150244
0.163621
0.173213
0.179653
0.183561
0.185384
0.185236
0.182899
0.178404
0.173521
0.172812
0.0766202
0.106765
0.134521
0.155994
0.172224
0.184002
0.192128
0.197224
0.199887
0.200526
0.199241
0.195885
0.190659
0.185423
0.184033
0.106338
0.134539
0.160258
0.179787
0.19424
0.204385
0.211013
0.214737
0.21613
0.215572
0.213167
0.208829
0.202876
0.197151
0.194992
0.136187
0.162366
0.186
0.20355
0.216198
0.224684
0.229793
0.232126
0.232233
0.230475
0.226957
0.221647
0.214944
0.208669
0.205724
0.166008
0.190108
0.211626
0.227177
0.238001
0.244815
0.248394
0.249325
0.248142
0.245188
0.240574
0.234305
0.226835
0.219942
0.216196
0.195643
0.217627
0.237015
0.250561
0.259556
0.264695
0.266742
0.26627
0.263798
0.259654
0.253952
0.246729
0.238492
0.230968
0.226403
0.224941
0.244789
0.262048
0.273597
0.28077
0.28424
0.284762
0.282896
0.279147
0.273828
0.267054
0.258888
0.249875
0.241689
0.236304
0.253752
0.271465
0.286609
0.296182
0.30155
0.30337
0.302383
0.299139
0.294127
0.287648
0.279818
0.270729
0.260957
0.252106
0.245879
0.281934
0.297529
0.310587
0.318216
0.321809
0.322004
0.319535
0.314937
0.308687
0.301072
0.292209
0.282214
0.271688
0.26216
0.255097
0.309348
0.322859
0.333872
0.339602
0.341458
0.340066
0.336147
0.330226
0.322766
0.314042
0.304175
0.293305
0.282048
0.271841
0.26393
0.335861
0.347339
0.35636
0.360246
0.360416
0.357482
0.352156
0.344951
0.336316
0.326516
0.315676
0.303958
0.291988
0.281107
0.272354
0.361347
0.370858
0.377952
0.380059
0.378601
0.374179
0.367495
0.35905
0.349282
0.338446
0.326674
0.314146
0.301486
0.289933
0.280344
0.385685
0.393309
0.398553
0.398957
0.395938
0.390091
0.382105
0.372473
0.361617
0.349788
0.337124
0.323825
0.310505
0.298292
0.28788
0.408761
0.414594
0.418073
0.416858
0.412355
0.405151
0.395927
0.385164
0.373275
0.360504
0.346997
0.332968
0.319015
0.306156
0.29494
0.43047
0.434618
0.436429
0.433687
0.427783
0.4193
0.408907
0.397077
0.384211
0.370551
0.356252
0.34154
0.326988
0.313503
0.301507
0.450711
0.453295
0.453543
0.449374
0.442161
0.43248
0.420993
0.408165
0.394387
0.379897
0.364861
0.349513
0.334398
0.320311
0.307566
0.469393
0.470544
0.469342
0.463855
0.455428
0.444639
0.43214
0.418386
0.403763
0.388506
0.372791
0.35686
0.341219
0.32656
0.313103
0.486429
0.486294
0.483762
0.477069
0.467532
0.455728
0.442303
0.427703
0.412305
0.396348
0.380016
0.363553
0.347428
0.332231
0.318105
0.501744
0.500483
0.496746
0.488963
0.478424
0.465704
0.451443
0.436078
0.419983
0.403396
0.38651
0.369571
0.353006
0.337309
0.322563
0.515272
0.513051
0.50824
0.499488
0.48806
0.474528
0.459524
0.443483
0.426769
0.409624
0.392251
0.374893
0.357933
0.34178
0.32647
0.526974
0.523936
0.518194
0.508599
0.4964
0.482163
0.466517
0.449887
0.432637
0.415009
0.397217
0.379497
0.362192
0.345632
0.32982
0.536813
0.533083
0.526564
0.516259
0.503411
0.488581
0.472394
0.455269
0.437567
0.419535
0.401391
0.383369
0.36577
0.348856
0.332612
0.544751
0.540455
0.533313
0.522437
0.509064
0.493757
0.477132
0.459608
0.441542
0.423183
0.404758
0.386494
0.368654
0.351445
0.334846
0.550754
0.546023
0.538413
0.527106
0.513338
0.497669
0.480715
0.462889
0.444548
0.425943
0.407305
0.388859
0.370835
0.353397
0.336525
0.554794
0.549769
0.541846
0.530249
0.516216
0.500304
0.483128
0.4651
0.446573
0.427804
0.409024
0.390455
0.372306
0.354712
0.337654
0.556854
0.551679
0.543597
0.531854
0.517686
0.501652
0.484364
0.466232
0.447612
0.428759
0.409908
0.391277
0.373065
0.355389
0.338236
0.556924
0.551745
0.543659
0.531914
0.517743
0.501706
0.484416
0.466283
0.447661
0.428806
0.409954
0.391321
0.373108
0.355431
0.338275
0.555004
0.549968
0.542034
0.530429
0.516387
0.500468
0.483286
0.465251
0.446719
0.427945
0.409161
0.390588
0.372436
0.354836
0.337771
0.551103
0.546355
0.538728
0.527405
0.513624
0.497943
0.480978
0.463142
0.444791
0.426178
0.407533
0.38908
0.371051
0.353605
0.33672
0.54524
0.540919
0.533753
0.522856
0.509464
0.49414
0.4775
0.459962
0.441883
0.423513
0.405077
0.386804
0.368956
0.351736
0.335119
0.537441
0.533681
0.52713
0.516798
0.503925
0.489074
0.472867
0.455725
0.438006
0.419959
0.401801
0.383769
0.366158
0.349229
0.332964
0.527742
0.524668
0.518887
0.509259
0.497029
0.482766
0.467096
0.450444
0.433174
0.415528
0.397719
0.379986
0.362667
0.346089
0.330251
0.516181
0.513918
0.50906
0.500268
0.488804
0.47524
0.460209
0.444141
0.427404
0.410237
0.392844
0.37547
0.358494
0.342321
0.326981
0.502795
0.501483
0.497693
0.489864
0.479284
0.466528
0.452233
0.436839
0.420717
0.404104
0.387196
0.370237
0.353654
0.337934
0.323154
0.487624
0.487429
0.484837
0.478091
0.468508
0.456662
0.4432
0.428566
0.413138
0.397152
0.380794
0.364308
0.348163
0.33294
0.318776
0.470732
0.471814
0.470545
0.464999
0.45652
0.445684
0.433143
0.419352
0.404694
0.389405
0.373661
0.357704
0.34204
0.327353
0.313855
0.452195
0.454701
0.454874
0.450641
0.443369
0.433637
0.422104
0.409234
0.395417
0.380892
0.365823
0.350447
0.335306
0.321189
0.308399
0.432099
0.436161
0.43789
0.435077
0.429109
0.420569
0.410125
0.398249
0.385341
0.371641
0.357307
0.342564
0.327984
0.314466
0.302422
0.410536
0.416274
0.419664
0.418371
0.413798
0.406533
0.397253
0.38644
0.374504
0.361691
0.348145
0.334081
0.320097
0.307203
0.295936
0.387607
0.395127
0.400274
0.400594
0.3975
0.391586
0.383539
0.373853
0.362947
0.351071
0.338365
0.325028
0.311674
0.299424
0.288958
0.363416
0.372814
0.379805
0.381821
0.380282
0.375788
0.369038
0.360535
0.350712
0.339826
0.328008
0.315439
0.302743
0.291149
0.281504
0.338079
0.349435
0.358345
0.362133
0.362216
0.359204
0.353808
0.34654
0.337847
0.327993
0.317104
0.305342
0.293332
0.282409
0.273596
0.311715
0.325095
0.33599
0.341615
0.343378
0.341903
0.33791
0.331921
0.324398
0.315616
0.305696
0.294779
0.28348
0.273228
0.265254
0.284452
0.299906
0.312838
0.320356
0.323849
0.323956
0.321407
0.316737
0.31042
0.302744
0.293824
0.283778
0.273207
0.263633
0.256503
0.256421
0.273985
0.288996
0.29845
0.303712
0.305438
0.304366
0.301045
0.295963
0.289418
0.281528
0.272384
0.262564
0.253663
0.247368
0.227762
0.247452
0.26457
0.275993
0.283054
0.286424
0.286856
0.284909
0.281084
0.275696
0.268858
0.260634
0.25157
0.243332
0.237875
0.198617
0.220433
0.239673
0.253086
0.261963
0.266996
0.268947
0.268389
0.265838
0.261621
0.25585
0.248565
0.240274
0.232696
0.228056
0.169135
0.193059
0.214421
0.229832
0.240531
0.247233
0.250712
0.251551
0.250285
0.247253
0.242567
0.236232
0.228705
0.221756
0.217931
0.13947
0.165462
0.188932
0.206335
0.218851
0.227219
0.232223
0.234459
0.234479
0.232639
0.229045
0.223666
0.216902
0.210568
0.207541
0.109776
0.137781
0.163327
0.182702
0.197017
0.207038
0.213555
0.217178
0.218479
0.217835
0.21535
0.21094
0.204922
0.199136
0.19689
0.0802145
0.110153
0.137729
0.15904
0.175125
0.186774
0.194783
0.199773
0.202339
0.202888
0.201519
0.198087
0.192795
0.187494
0.186013
0.0509477
0.082722
0.11226
0.135457
0.15327
0.166512
0.175982
0.182311
0.186116
0.187844
0.187609
0.185192
0.180628
0.17568
0.174874
0.0221426
0.0556281
0.0870389
0.112059
0.131547
0.146334
0.157225
0.164857
0.169865
0.172746
0.173648
0.172287
0.16847
0.16373
0.163454
-0.00603155
0.0290075
0.0621842
0.0889538
0.110049
0.126322
0.138586
0.147477
0.153642
0.157631
0.159665
0.159429
0.156473
0.151837
0.151615
-0.0333958
0.00298406
0.0378087
0.066248
0.0888686
0.106555
0.120134
0.130238
0.137507
0.142542
0.14567
0.146613
0.144674
0.14017
0.139218
-0.0597633
-0.0223501
0.0140255
0.0440505
0.0680942
0.0871063
0.101935
0.113201
0.121523
0.12753
0.131677
0.133815
0.133128
0.12915
0.126191
-0.0849236
-0.046946
-0.00904365
0.0224673
0.0478058
0.0680477
0.0840546
0.0964253
0.105748
0.112656
0.117714
0.120974
0.121701
0.118813
0.112869
-0.10866
-0.0708005
-0.0312557
0.00159081
0.0280744
0.0494476
0.0665522
0.0799621
0.0902362
0.0979826
0.103837
0.108064
0.11018
0.108888
0.103094
-0.130792
-0.0938249
-0.0524515
-0.0185174
0.0089651
0.0313742
0.0494861
0.0638585
0.0750297
0.0835665
0.0901191
0.0951373
0.098464
0.0990933
0.0951654
-0.151372
-0.115584
-0.072511
-0.0378232
-0.00945406
0.0138946
0.0329102
0.0481565
0.0601644
0.069451
0.0766363
0.0822975
0.0865942
0.0889256
0.0872122
-0.170394
-0.135645
-0.0914457
-0.0562803
-0.0271039
-0.00292827
0.0168729
0.0328954
0.0456699
0.0556658
0.0634451
0.0696418
0.0746815
0.0783029
0.0783066
-0.187749
-0.153743
-0.109383
-0.0737957
-0.0439018
-0.0190415
0.00141704
0.0181118
0.0315736
0.04223
0.0505735
0.0572322
0.0628258
0.0673663
0.0686014
-0.203306
-0.170058
-0.126196
-0.0902316
-0.0597799
-0.0344047
-0.0134198
0.00384096
0.0179015
0.0291568
0.0380297
0.0450981
0.0510977
0.0562829
0.0585586
-0.216975
-0.184808
-0.141717
-0.105471
-0.0746972
-0.048987
-0.0276037
-0.00988506
0.00467835
0.0164583
0.0258155
0.033251
0.0395525
0.0452053
0.0484441
-0.228709
-0.198041
-0.155824
-0.119511
-0.0886409
-0.062764
-0.0411052
-0.0230381
-0.00807294
0.00414865
0.0139349
0.0216982
0.0282324
0.034248
0.0383582
-0.238498
-0.209696
-0.168456
-0.132434
-0.101617
-0.0757173
-0.0539011
-0.0355951
-0.020332
-0.0077565
0.00239838
0.0104503
0.017161
0.023468
0.0283536
-0.246363
-0.219714
-0.179644
-0.144241
-0.113693
-0.087841
-0.0659775
-0.0475393
-0.0320815
-0.0192416
-0.00878016
-0.000477935
0.00634812
0.0128749
0.0184616
-0.252373
-0.228096
-0.189461
-0.154939
-0.124872
-0.0991754
-0.0773352
-0.0588609
-0.043307
-0.0302932
-0.0195877
-0.0110697
-0.0041964
0.00245707
0.00868969
-0.256653
-0.234913
-0.198005
-0.164563
-0.13513
-0.109734
-0.0880112
-0.0695625
-0.0539971
-0.0409005
-0.0300168
-0.0213113
-0.0144441
-0.00780391
-0.00096524
-0.259392
-0.240303
-0.205399
-0.173166
-0.144463
-0.119494
-0.0980134
-0.0796847
-0.064148
-0.0510538
-0.0400665
-0.0312007
-0.0243439
-0.0179216
-0.0105113
-0.260826
-0.244465
-0.211785
-0.180816
-0.152895
-0.128446
-0.107324
-0.0892211
-0.0738006
-0.0607455
-0.0497412
-0.0407553
-0.0338677
-0.0278575
-0.0199757
-0.261258
-0.247689
-0.217315
-0.18758
-0.160458
-0.136601
-0.115936
-0.098157
-0.0829409
-0.0699979
-0.0590496
-0.0500061
-0.0430348
-0.0374982
-0.0294262
-0.260995
-0.250337
-0.222115
-0.193513
-0.16719
-0.14399
-0.123863
-0.10649
-0.0915567
-0.0788051
-0.0679879
-0.0589796
-0.0519139
-0.0466782
-0.0389666
-0.260421
-0.252602
-0.226242
-0.198646
-0.173129
-0.150651
-0.131134
-0.114232
-0.0996466
-0.0871559
-0.0765382
-0.0676419
-0.0605509
-0.0553245
-0.0486581
-0.259908
-0.25452
-0.229671
-0.202984
-0.178309
-0.156626
-0.137783
-0.121402
-0.107218
-0.0950446
-0.0846835
-0.0759645
-0.0689247
-0.0636899
-0.058172
-0.259702
-0.256015
-0.232309
-0.206504
-0.182758
-0.161957
-0.14384
-0.128023
-0.114284
-0.102475
-0.0924175
-0.0839317
-0.0770229
-0.0718801
-0.0671629
-0.259828
-0.256862
-0.233989
-0.20917
-0.18651
-0.166682
-0.149329
-0.13411
-0.120859
-0.109458
-0.0997455
-0.0915416
-0.0848324
-0.0798527
-0.0755287
-0.259986
-0.256597
-0.234485
-0.210957
-0.189607
-0.170829
-0.154265
-0.139677
-0.12696
-0.116011
-0.106679
-0.0987953
-0.0923289
-0.08753
-0.0833446
-0.259477
-0.254458
-0.233552
-0.211883
-0.192102
-0.174412
-0.158648
-0.144735
-0.132608
-0.122154
-0.113233
-0.105694
-0.0994894
-0.0948718
-0.0907477
-0.257262
-0.24958
-0.231069
-0.21206
-0.194034
-0.177417
-0.162478
-0.149306
-0.137827
-0.127905
-0.119418
-0.11224
-0.106307
-0.101884
-0.0978548
-0.252458
-0.241433
-0.22725
-0.211688
-0.195393
-0.179808
-0.165765
-0.153423
-0.142646
-0.133284
-0.125246
-0.118443
-0.112794
-0.108595
-0.104734
-0.245141
-0.230557
-0.222959
-0.210958
-0.196097
-0.181565
-0.168557
-0.157136
-0.147095
-0.138306
-0.130731
-0.124319
-0.118973
-0.115036
-0.111412
-0.236265
-0.219244
-0.219394
-0.209811
-0.196059
-0.182747
-0.170942
-0.160501
-0.151201
-0.142988
-0.135888
-0.129889
-0.12487
-0.121228
-0.117898
-0.227104
-0.210734
-0.21672
-0.207944
-0.195328
-0.183523
-0.17304
-0.163569
-0.154984
-0.147345
-0.140734
-0.135172
-0.130508
-0.12719
-0.124194
-0.218789
-0.206749
-0.214008
-0.205162
-0.194162
-0.184132
-0.17495
-0.166369
-0.158463
-0.151397
-0.145288
-0.140186
-0.135902
-0.132935
-0.130311
-0.211922
-0.206616
-0.209919
-0.201683
-0.193003
-0.184788
-0.176721
-0.168917
-0.16166
-0.155169
-0.149568
-0.144942
-0.141065
-0.138481
-0.136276
-0.206747
-0.207402
-0.203817
-0.198192
-0.192311
-0.185559
-0.178333
-0.171224
-0.164606
-0.158687
-0.153592
-0.149449
-0.146
-0.143837
-0.142116
-0.202991
-0.207147
-0.196581
-0.195848
-0.192262
-0.186317
-0.179752
-0.173331
-0.167343
-0.161976
-0.157367
-0.153707
-0.150711
-0.149005
-0.147852
-0.20032
-0.205143
-0.191426
-0.195441
-0.192445
-0.186869
-0.181006
-0.175298
-0.169908
-0.165051
-0.160898
-0.157715
-0.155192
-0.153982
-0.153496
-0.198404
-0.201592
-0.190801
-0.195701
-0.192121
-0.187197
-0.18221
-0.177186
-0.172319
-0.167913
-0.164177
-0.161464
-0.159439
-0.15876
-0.159039
-0.196873
-0.197539
-0.193413
-0.193994
-0.191042
-0.187535
-0.183466
-0.179017
-0.174578
-0.170556
-0.167196
-0.164939
-0.163438
-0.163328
-0.164464
-0.1955
-0.194409
-0.195409
-0.189708
-0.189873
-0.188137
-0.184784
-0.180778
-0.176675
-0.172965
-0.169931
-0.168118
-0.167175
-0.167676
-0.169742
-0.194271
-0.192623
-0.195414
-0.18613
-0.189827
-0.188935
-0.186085
-0.18247
-0.178607
-0.175118
-0.172352
-0.170964
-0.170625
-0.171791
-0.174854
-0.193126
-0.191845
-0.19354
-0.187067
-0.190333
-0.189641
-0.18741
-0.184122
-0.180358
-0.176974
-0.174411
-0.173434
-0.173754
-0.175656
-0.179785
-0.192068
-0.191435
-0.191386
-0.190665
-0.189465
-0.190213
-0.188898
-0.185763
-0.181903
-0.178481
-0.176045
-0.175463
-0.176516
-0.179263
-0.184537
-0.191104
-0.190959
-0.190285
-0.192653
-0.187989
-0.191262
-0.190531
-0.187335
-0.183192
-0.179563
-0.17717
-0.17698
-0.178863
-0.18259
-0.189122
-0.190169
-0.190362
-0.190064
-0.192252
-0.18945
-0.192645
-0.192114
-0.18882
-0.18417
-0.180114
-0.177672
-0.177896
-0.180741
-0.185635
-0.193558
-0.189191
-0.189624
-0.189989
-0.19141
-0.193122
-0.193218
-0.193535
-0.19019
-0.184737
-0.179983
-0.177421
-0.17813
-0.182097
-0.18838
-0.197868
-0.18812
-0.188783
-0.18966
-0.190987
-0.195026
-0.193579
-0.194986
-0.191345
-0.184721
-0.178978
-0.176261
-0.177592
-0.182891
-0.190817
-0.202073
-0.186975
-0.187857
-0.189032
-0.190802
-0.194368
-0.19549
-0.195929
-0.192036
-0.183892
-0.176882
-0.174057
-0.176218
-0.183071
-0.192931
-0.206211
-0.185839
-0.186898
-0.188227
-0.190317
-0.193294
-0.19743
-0.195858
-0.192094
-0.181912
-0.173487
-0.170701
-0.173955
-0.182627
-0.194716
-0.210316
-0.184857
-0.186038
-0.187401
-0.189547
-0.192318
-0.196475
-0.195638
-0.191149
-0.178409
-0.168707
-0.166186
-0.170781
-0.181537
-0.196203
-0.214451
-0.184205
-0.185457
-0.186788
-0.188828
-0.191244
-0.194008
-0.195307
-0.188021
-0.173131
-0.162652
-0.160574
-0.16674
-0.179871
-0.197427
-0.218691
-0.184047
-0.185335
-0.186644
-0.188519
-0.190335
-0.191708
-0.192493
-0.182735
-0.166368
-0.155669
-0.154058
-0.161955
-0.177769
-0.198532
-0.223129
-0.184465
-0.185761
-0.187108
-0.188883
-0.190167
-0.190098
-0.18755
-0.176696
-0.158839
-0.148323
-0.146987
-0.156864
-0.175509
-0.199695
-0.227922
-0.185405
-0.186669
-0.188139
-0.189907
-0.190877
-0.189525
-0.183445
-0.170242
-0.152219
-0.141276
-0.140005
-0.152201
-0.173551
-0.201303
-0.233205
-0.186689
-0.187845
-0.189419
-0.191382
-0.192153
-0.189984
-0.181362
-0.166589
-0.147989
-0.13555
-0.134547
-0.149234
-0.172391
-0.20405
-0.239206
-0.18808
-0.189031