/*--------------------------------*- C++ -*----------------------------------*\
  =========                 |
  \\      /  F ield         | OpenFOAM: The Open Source CFD Toolbox
   \\    /   O peration     | Website:  https://openfoam.org
    \\  /    A nd           | Version:  7
     \\/     M anipulation  |
\*---------------------------------------------------------------------------*/
FoamFile
{
    version     2.0;
    format      ascii;
    class       volVectorField;
    location    "28.0005";
    object      U;
}
// * * * * * * * * * * * * * * * * * * * * * * * * * * * * * * * * * * * * * //

dimensions      [0 1 -1 0 0 0 0];

internalField   nonuniform List<vector> 
18750
(
(-0.035521 0.0269386 -5.2252e-21)
(-0.125775 0.0325588 1.94313e-21)
(-0.224049 0.0298475 2.368e-20)
(-0.310475 0.0274701 5.73692e-21)
(-0.396503 0.0252381 -1.46804e-20)
(-0.477459 0.0231301 -3.63234e-20)
(-0.556496 0.0210813 3.85404e-20)
(-0.631563 0.0190892 2.59377e-20)
(-0.704058 0.0171372 -1.96936e-20)
(-0.772842 0.015242 -5.36081e-20)
(-0.83874 0.0134092 2.06556e-19)
(-0.900858 0.0116417 -1.72088e-19)
(-0.95949 0.00993057 1.03306e-19)
(-1.01379 0.00831257 -2.04547e-19)
(-1.06409 0.00688466 4.76443e-20)
(-0.0371137 0.071426 2.94859e-21)
(-0.127032 0.0876095 6.60383e-21)
(-0.224215 0.0817831 4.39077e-21)
(-0.309594 0.0769619 4.00181e-20)
(-0.394547 0.0725592 8.45777e-20)
(-0.474395 0.0684845 1.15134e-19)
(-0.55224 0.0645245 -1.00316e-19)
(-0.626013 0.0606218 1.67436e-19)
(-0.697072 0.0567083 1.5836e-19)
(-0.764268 0.0528111 -5.23601e-20)
(-0.828422 0.0489339 -2.1937e-19)
(-0.888645 0.0450826 1.03039e-20)
(-0.9452 0.0412365 4.98965e-20)
(-0.997169 0.0375022 1.33137e-19)
(-1.04481 0.0341544 -2.05293e-19)
(-0.0401765 0.114815 1.12218e-20)
(-0.12947 0.141719 1.9709e-20)
(-0.224582 0.132958 -6.17338e-20)
(-0.307972 0.12576 5.54889e-21)
(-0.39089 0.119242 -1.56711e-19)
(-0.46865 0.113232 5.33389e-20)
(-0.544255 0.107375 -1.54084e-19)
(-0.615599 0.10157 -1.68321e-20)
(-0.68397 0.0956973 -1.20817e-19)
(-0.748198 0.0897966 3.7087e-19)
(-0.809098 0.0838771 4.98411e-19)
(-0.8658 0.0779666 4.44478e-19)
(-0.918519 0.072051 2.63504e-19)
(-0.966213 0.0662949 1.7962e-19)
(-1.00905 0.0610915 -3.36221e-19)
(-0.0445967 0.156423 -6.754e-20)
(-0.133016 0.194298 8.25976e-20)
(-0.225134 0.182899 -6.35584e-20)
(-0.305644 0.173439 -1.3603e-19)
(-0.385635 0.164896 2.40179e-19)
(-0.460408 0.157004 -2.25645e-19)
(-0.532828 0.149278 3.40493e-19)
(-0.60075 0.141579 -2.93136e-19)
(-0.665367 0.133743 2.10698e-19)
(-0.725489 0.125822 -5.20034e-19)
(-0.781932 0.117839 -7.5569e-19)
(-0.833873 0.109868 4.26019e-20)
(-0.881493 0.101926 -1.45896e-19)
(-0.923615 0.0942196 -3.2129e-19)
(-0.960286 0.0871869 1.23385e-18)
(-0.0502118 0.195607 -5.52724e-20)
(-0.137556 0.244777 1.25767e-19)
(-0.225841 0.231157 2.73773e-20)
(-0.302651 0.219604 1.06457e-19)
(-0.378909 0.209168 -1.46885e-19)
(-0.449906 0.199474 6.42765e-20)
(-0.518334 0.189928 8.14003e-19)
(-0.582013 0.180364 1.28988e-19)
(-0.642034 0.170578 2.33048e-19)
(-0.697195 0.16064 -8.36938e-20)
(-0.748325 0.1506 6.93757e-20)
(-0.794681 0.140598 -2.9824e-20)
(-0.836461 0.130713 -8.34754e-19)
(-0.872379 0.121184 -4.7083e-19)
(-0.902354 0.112428 -1.39806e-18)
(-0.0568379 0.231802 1.24364e-19)
(-0.142957 0.292607 4.62383e-20)
(-0.226658 0.277314 -6.09243e-20)
(-0.29903 0.263903 -4.56427e-20)
(-0.370864 0.251747 5.13366e-20)
(-0.437418 0.240363 -6.88633e-19)
(-0.501196 0.229074 -8.66047e-20)
(-0.559996 0.217696 4.40882e-20)
(-0.614811 0.206002 -3.40939e-19)
(-0.664438 0.19408 -4.75442e-19)
(-0.709731 0.182015 3.50919e-19)
(-0.750069 0.170036 -3.50484e-19)
(-0.785722 0.158305 1.09739e-18)
(-0.815358 0.147096 -8.6475e-19)
(-0.838762 0.136759 1.90743e-18)
(-0.0642661 0.264465 -1.15135e-19)
(-0.14904 0.337257 -1.94084e-19)
(-0.227494 0.321008 8.00951e-20)
(-0.294813 0.306034 6.09625e-19)
(-0.361652 0.292368 6.25881e-19)
(-0.423227 0.27944 -2.22471e-19)
(-0.481849 0.266515 1.15424e-19)
(-0.535314 0.253407 7.6065e-20)
(-0.584524 0.239876 7.42725e-19)
(-0.628294 0.226038 1.0364e-18)
(-0.66751 0.212022 -5.06558e-19)
(-0.701702 0.198155 -9.87e-19)
(-0.731275 0.184702 -1.84956e-18)
(-0.754922 0.171992 3.2166e-19)
(-0.772288 0.160285 -2.33464e-18)
(-0.0722453 0.293038 -1.04983e-19)
(-0.155599 0.378285 -1.23273e-19)
(-0.228237 0.361946 -8.90381e-19)
(-0.290018 0.345748 3.22578e-19)
(-0.35142 0.330817 -3.7299e-19)
(-0.407613 0.316526 2.59364e-19)
(-0.460716 0.302108 2.84202e-19)
(-0.508548 0.287384 -1.23758e-18)
(-0.551938 0.272125 -8.33788e-19)
(-0.589735 0.256481 -1.42537e-18)
(-0.622851 0.240628 -2.3663e-19)
(-0.650982 0.224997 1.04914e-18)
(-0.674716 0.209973 4.14409e-18)
(-0.692846 0.195961 -6.39992e-19)
(-0.704877 0.183131 1.14484e-18)
(-0.0804582 0.31698 5.63154e-19)
(-0.16238 0.415298 2.2713e-19)
(-0.228761 0.3999 9.81448e-19)
(-0.284659 0.382854 -7.22209e-19)
(-0.340304 0.366928 3.47541e-19)
(-0.390833 0.351488 -5.85031e-19)
(-0.438184 0.335751 -1.3597e-18)
(-0.480224 0.319563 1.21779e-18)
(-0.517722 0.302717 1.4807e-19)
(-0.549575 0.285414 2.13382e-18)
(-0.576716 0.26788 -7.0222e-19)
(-0.599 0.250644 -3.20809e-18)
(-0.617216 0.234216 -1.97219e-18)
(-0.630325 0.219105 2.07557e-19)
(-0.637697 0.205417 -9.69159e-19)
(-0.0885396 0.335847 -4.71684e-19)
(-0.169096 0.448003 -2.67557e-19)
(-0.228939 0.434703 3.49122e-19)
(-0.278741 0.417212 5.44092e-20)
(-0.32842 0.400581 -1.36689e-19)
(-0.373116 0.384239 -1.59768e-19)
(-0.414596 0.367391 6.19849e-19)
(-0.450795 0.349919 -7.49371e-19)
(-0.482435 0.331661 7.43552e-19)
(-0.508479 0.312876 9.42993e-19)
(-0.529865 0.29385 -1.68317e-18)
(-0.546577 0.275197 3.20987e-18)
(-0.55959 0.257543 3.77349e-19)
(-0.568084 0.24153 5.20814e-19)
(-0.571329 0.227233 1.20055e-18)
(-0.0960582 0.3492 8.94967e-19)
(-0.175398 0.476082 -2.93853e-19)
(-0.228621 0.466235 -1.30282e-18)
(-0.272258 0.448722 5.20429e-19)
(-0.315867 0.431702 -3.00954e-19)
(-0.354657 0.414728 3.53713e-19)
(-0.390244 0.397001 2.66516e-18)
(-0.42064 0.378453 1.29913e-18)
(-0.446533 0.358983 8.70201e-19)
(-0.466959 0.33892 -2.93166e-18)
(-0.48285 0.318613 3.23215e-18)
(-0.494275 0.298748 1.19637e-18)
(-0.502347 0.280049 -1.93516e-18)
(-0.506486 0.263298 2.35301e-18)
(-0.505956 0.248587 -8.15134e-20)
(-0.102561 0.356797 1.88641e-19)
(-0.180959 0.499465 4.48212e-20)
(-0.227681 0.494401 -9.22389e-20)
(-0.265202 0.477327 -9.30689e-19)
(-0.302715 0.460251 1.86734e-18)
(-0.335618 0.442941 -9.56923e-19)
(-0.36537 0.424591 -2.83146e-18)
(-0.39007 0.405197 8.84676e-19)
(-0.410372 0.38473 -1.41137e-18)
(-0.425401 0.363604 2.20666e-18)
(-0.436065 0.342239 -4.00914e-18)
(-0.442484 0.321379 3.17704e-19)
(-0.445824 0.301812 1.72914e-18)
(-0.445723 0.284441 -3.64324e-18)
(-0.441595 0.269454 -8.58679e-19)
(-0.107419 0.358132 -5.9626e-19)
(-0.18537 0.517898 1.70575e-19)
(-0.22597 0.51911 5.30032e-19)
(-0.257539 0.503 -2.54999e-20)
(-0.289021 0.486234 -2.55532e-18)
(-0.316128 0.46889 2.44724e-19)
(-0.340169 0.450177 9.22348e-19)
(-0.359325 0.430181 -2.52902e-18)
(-0.374227 0.40895 1.92329e-18)
(-0.384081 0.386981 -1.78081e-18)
(-0.389772 0.364778 4.90653e-18)
(-0.391435 0.343141 -2.0511e-18)
(-0.390209 0.322881 2.51575e-18)
(-0.385854 0.304979 5.12183e-18)
(-0.37811 0.289745 2.22164e-18)
(-0.11014 0.353601 -2.38961e-19)
(-0.188336 0.531524 -6.859e-21)
(-0.223432 0.540216 -1.90793e-20)
(-0.249238 0.525763 -6.14191e-20)
(-0.274815 0.509681 -1.25725e-18)
(-0.296294 0.492605 -5.62219e-19)
(-0.314796 0.473806 9.09175e-19)
(-0.328602 0.453463 5.58102e-19)
(-0.338306 0.431699 -3.25031e-18)
(-0.343202 0.409104 -1.83784e-19)
(-0.344139 0.386273 -9.62807e-19)
(-0.341269 0.364065 1.97777e-18)
(-0.335654 0.343302 -2.77825e-18)
(-0.326982 0.324923 -3.92269e-19)
(-0.315407 0.30927 -2.51294e-18)
(-0.110396 0.343389 1.07174e-18)
(-0.189442 0.539895 -9.56899e-19)
(-0.219906 0.55766 -1.29518e-18)
(-0.240212 0.54566 2.31124e-18)
(-0.260133 0.530656 2.0408e-18)
(-0.276198 0.514136 2.628e-18)
(-0.289372 0.495513 1.14509e-19)
(-0.298038 0.475079 1.8245e-18)
(-0.302761 0.453012 2.4637e-18)
(-0.302904 0.430006 3.71232e-18)
(-0.29927 0.406741 -1.7322e-18)
(-0.292028 0.384146 3.66856e-18)
(-0.282199 0.36306 -1.76974e-20)
(-0.269277 0.344289 -1.87387e-18)
(-0.253096 0.327999 -4.68043e-18)
(-0.107972 0.327485 -6.82381e-19)
(-0.188382 0.542755 1.05696e-18)
(-0.215258 0.571463 7.05883e-19)
(-0.230444 0.56279 -2.18478e-18)
(-0.24498 0.549225 -1.01904e-18)
(-0.255909 0.533534 -1.88185e-19)
(-0.263993 0.515369 -1.39944e-18)
(-0.267756 0.495092 -2.41187e-18)
(-0.267714 0.472947 -4.15198e-18)
(-0.263296 0.449729 -1.81807e-18)
(-0.255248 0.426209 2.5732e-18)
(-0.243727 0.403376 -5.4043e-18)
(-0.229845 0.38213 1.90508e-19)
(-0.213 0.363112 3.47661e-18)
(-0.191091 0.34611 5.02295e-18)
(-0.102691 0.305895 -1.65045e-18)
(-0.18495 0.539987 1.27658e-18)
(-0.20931 0.581567 -2.20018e-18)
(-0.219951 0.577277 -1.06292e-18)
(-0.229415 0.565484 -5.85332e-20)
(-0.235486 0.550879 1.46865e-18)
(-0.238745 0.533421 2.39114e-18)
(-0.237833 0.513522 7.99344e-19)
(-0.233236 0.491505 1.17096e-18)
(-0.224437 0.46827 -3.32099e-18)
(-0.212122 0.444661 9.54175e-20)
(-0.196374 0.421714 -2.60121e-18)
(-0.178407 0.400405 -1.93184e-18)
(-0.158201 0.38124 -5.56442e-18)
(-0.129865 0.364157 -6.79572e-20)
(-0.0944875 0.278817 1.45215e-18)
(-0.179032 0.531476 2.30995e-19)
(-0.201962 0.587831 3.38399e-19)
(-0.2087 0.589107 2.6315e-18)
(-0.21349 0.579531 1.11617e-18)
(-0.215007 0.566277 -1.36923e-18)
(-0.213713 0.549763 1.08466e-18)
(-0.208377 0.530442 -6.35417e-19)
(-0.199412 0.508727 -1.2843e-18)
(-0.186387 0.485653 1.45773e-18)
(-0.169941 0.462116 -4.98309e-18)
(-0.15003 0.439182 -2.09599e-19)
(-0.127893 0.417884 -2.86831e-18)
(-0.104659 0.398641 4.44621e-18)
(-0.0698374 0.382273 4.14002e-19)
(-0.0835353 0.246682 -5.58433e-19)
(-0.170619 0.517022 -1.56046e-18)
(-0.1932 0.590007 4.0804e-19)
(-0.196699 0.598224 -3.04169e-18)
(-0.197238 0.591409 -2.07544e-18)
(-0.194517 0.57977 -1.17569e-18)
(-0.188968 0.564393 -2.06751e-18)
(-0.179439 0.545834 2.00979e-18)
(-0.166315 0.524638 2.8538e-18)
(-0.149196 0.501898 5.61451e-18)
(-0.128743 0.478569 -2.6055e-19)
(-0.104749 0.455764 6.42038e-18)
(-0.0781634 0.434499 2.53912e-18)
(-0.052578 0.415287 2.00534e-18)
(-0.0100734 0.40064 -4.43981e-18)
(-0.0703896 0.210147 9.62771e-19)
(-0.159824 0.496285 2.37666e-18)
(-0.183055 0.587679 1.62612e-18)
(-0.183993 0.604493 2.12131e-18)
(-0.180705 0.601141 5.70416e-21)
(-0.174084 0.591378 8.37613e-19)
(-0.164558 0.577331 2.09201e-20)
(-0.151097 0.559727 -1.55402e-18)
(-0.133992 0.539224 2.44716e-18)
(-0.112904 0.516958 -8.58609e-18)
(-0.0885526 0.493996 2.53237e-18)
(-0.060642 0.471442 -1.68068e-18)
(-0.0290311 0.450293 3.32062e-19)
(-0.00212938 0.431064 -2.5401e-18)
(0.0497183 0.419212 -2.87852e-18)
(-0.0561679 0.170132 -1.5712e-18)
(-0.146902 0.468756 2.08916e-18)
(-0.171572 0.580228 -5.19612e-19)
(-0.170644 0.607654 -9.01534e-19)
(-0.163983 0.608693 1.88466e-18)
(-0.153771 0.601133 1.99634e-19)
(-0.140576 0.588582 -5.63226e-19)
(-0.123397 0.572107 -6.62294e-20)
(-0.102527 0.55248 -1.58016e-18)
(-0.0775451 0.530815 4.12125e-18)
(-0.0493138 0.508306 2.54674e-18)
(-0.0179293 0.486203 1.35657e-18)
(0.0197895 0.465161 -1.28605e-19)
(0.0463563 0.445361 3.27425e-18)
(0.109813 0.438599 -2.97012e-19)
(-0.0426097 0.128063 4.59866e-19)
(-0.13223 0.433741 -4.97696e-19)
(-0.158774 0.566835 3.91872e-19)
(-0.156718 0.607266 1.66943e-18)
(-0.147162 0.61394 -1.06747e-18)
(-0.133706 0.609005 -6.99173e-19)
(-0.117074 0.598167 -1.31397e-18)
(-0.0964485 0.582975 1.04243e-18)
(-0.0719781 0.564316 -1.09146e-18)
(-0.0432289 0.543362 -1.26914e-18)
(-0.0108998 0.521397 -2.19779e-18)
(0.0231131 0.499978 -1.28173e-18)
(0.0685969 0.479475 4.7251e-18)
(0.0927286 0.457494 -6.51555e-18)
(0.170318 0.458351 -1.7621e-19)
(-0.0313667 0.0863642 1.96651e-18)
(-0.116234 0.390451 -7.6237e-19)
(-0.14464 0.546545 -1.98057e-18)
(-0.142251 0.602654 -5.29236e-19)
(-0.130362 0.616575 2.80075e-18)
(-0.113967 0.614941 -5.94391e-20)
(-0.0942287 0.606031 1.36933e-18)
(-0.0702852 0.59225 -7.52837e-19)
(-0.0424753 0.57472 -2.9593e-18)
(-0.0101382 0.554581 6.8985e-18)
(0.0269586 0.533041 -5.1103e-18)
(0.0620838 0.512471 1.52547e-18)
(0.11775 0.493406 -6.72844e-18)
(0.13645 0.466834 2.38043e-18)
(0.231586 0.478645 1.96568e-18)
(-0.0225743 0.0484531 -7.01015e-19)
(-0.0991999 0.338285 -2.25244e-18)
(-0.129115 0.518379 1.01854e-18)
(-0.127273 0.592857 1.80344e-19)
(-0.113664 0.616075 -2.52088e-18)
(-0.094733 0.618706 1.56369e-18)
(-0.0720865 0.612156 8.31244e-20)
(-0.0451453 0.599882 -3.8544e-19)
(-0.0139749 0.58344 -3.03296e-18)
(0.0212451 0.564369 -3.49818e-19)
(0.064593 0.543198 4.08216e-18)
(0.0986422 0.523206 3.46333e-19)
(0.16785 0.508218 9.76407e-19)
(0.177201 0.471955 2.81783e-18)
(0.292369 0.496713 -7.20194e-18)
(-0.0146449 0.0176456 -1.06421e-18)
(-0.0813624 0.277502 3.40303e-20)
(-0.112161 0.481399 -1.29187e-18)
(-0.111803 0.576579 1.04807e-18)
(-0.0971904 0.611601 1.42683e-18)
(-0.0760607 0.619997 -1.07255e-18)
(-0.0509646 0.616285 -1.86079e-19)
(-0.0210887 0.605766 -9.05666e-19)
(0.013477 0.59046 2.2646e-18)
(0.0504584 0.572555 4.36968e-19)
(0.102228 0.551689 -5.92019e-18)
(0.131976 0.530643 1.62169e-18)
(0.219567 0.525107 1.01126e-18)
(0.216398 0.476708 -4.55617e-18)
(0.351872 0.508346 1.03427e-18)
(-0.00616532 -0.00408551 2.40576e-19)
(-0.0635652 0.210424 6.4761e-19)
(-0.0939667 0.434629 1.20746e-18)
(-0.0958693 0.552214 -1.02341e-18)
(-0.0810206 0.601997 -4.16254e-20)
(-0.0582323 0.618134 2.59451e-18)
(-0.0307986 0.618293 -1.21093e-19)
(0.00116103 0.609685 -6.21795e-21)
(0.0403242 0.595229 3.68485e-18)
(0.0766352 0.578911 -2.11922e-18)
(0.140447 0.559646 1.52251e-18)
(0.161296 0.532477 -4.31363e-18)
(0.271497 0.541101 3.73272e-19)
(0.256063 0.485288 -1.15762e-18)
(0.410354 0.517265 1.98582e-18)
(0.00225622 -0.0166206 -1.80317e-19)
(-0.0469566 0.142829 8.05781e-19)
(-0.0751655 0.377255 -1.07356e-18)
(-0.0795563 0.517914 2.25869e-18)
(-0.0653132 0.585703 -1.90289e-18)
(-0.0413785 0.612236 -1.70617e-18)
(-0.0120535 0.617343 -1.06343e-18)
(0.0214695 0.611649 -2.30615e-18)
(0.0662692 0.597857 -4.49635e-18)
(0.0994988 0.581732 6.85182e-19)
(0.178904 0.568519 3.56555e-18)
(0.187558 0.52987 2.87025e-18)
(0.321823 0.549932 4.90512e-19)
(0.295537 0.495338 -2.41211e-18)
(0.468186 0.524447 -1.22234e-18)
(0.00894156 -0.0220135 4.31278e-19)
(-0.0313262 0.0831548 7.54974e-19)
(-0.0564894 0.309266 -3.22565e-18)
(-0.0631169 0.471974 -2.23204e-18)
(-0.0502357 0.560716 -6.58673e-20)
(-0.0260847 0.600774 1.78938e-18)
(0.0056674 0.612879 -6.60644e-19)
(0.0382064 0.610419 5.1275e-18)
(0.0921045 0.598458 4.24488e-19)
(0.117811 0.579747 -2.90753e-18)
(0.217273 0.577616 -2.74567e-18)
(0.211512 0.527256 -4.40722e-18)
(0.369 0.550783 4.86945e-18)
(0.334719 0.501256 3.24971e-18)
(0.522339 0.527034 -1.20834e-20)
(0.0131932 -0.0232337 -1.20122e-18)
(-0.015572 0.0381715 -2.22372e-18)
(-0.0386419 0.232582 1.60496e-18)
(-0.0470158 0.413118 1.9651e-18)
(-0.0360164 0.524724 1.22342e-18)
(-0.0128853 0.581642 -1.24755e-18)
(0.0215548 0.602968 3.19022e-18)
(0.0521265 0.605886 -4.57706e-18)
(0.115374 0.597347 5.11293e-18)
(0.133304 0.570125 3.29677e-18)
(0.250692 0.582908 -1.034e-18)
(0.238881 0.527399 -1.45774e-18)
(0.404805 0.545276 -1.95178e-18)
(0.379299 0.50546 -3.91007e-18)
(0.565656 0.517841 4.70857e-18)
(0.0153727 -0.0225342 3.38093e-18)
(-0.000433796 0.00868635 2.59241e-18)
(-0.022592 0.154584 5.88384e-19)
(-0.0321291 0.34142 -3.4867e-20)
(-0.0230058 0.475044 -4.2585e-19)
(-0.00260812 0.552309 -4.99238e-19)
(0.0355885 0.58588 -2.49231e-18)
(0.0606764 0.593185 4.35097e-18)
(0.137815 0.597436 -3.42002e-18)
(0.144889 0.556537 -3.20259e-20)
(0.274616 0.573035 3.33549e-18)
(0.270223 0.531195 2.36102e-18)
(0.426052 0.52693 2.35539e-18)
(0.422556 0.513663 -2.57111e-20)
(0.605934 0.494302 -2.81031e-18)
(0.0163666 -0.0211314 -2.02884e-18)
(0.0122182 -0.0084169 -2.10401e-18)
(-0.00776231 0.0887188 6.51764e-19)
(-0.0192459 0.260425 -1.05527e-18)
(-0.0115171 0.410005 -5.00175e-19)
(0.00384246 0.50893 1.79874e-18)
(0.0462635 0.560046 -4.75221e-19)
(0.066242 0.570729 -4.46099e-19)
(0.148365 0.586379 -1.3766e-18)
(0.168147 0.552189 -3.20379e-18)
(0.272486 0.547696 1.49177e-18)
(0.319144 0.531099 -1.77754e-18)
(0.416218 0.505046 -2.73791e-18)
(0.503241 0.514183 -1.24256e-18)
(0.565255 0.459574 5.0072e-18)
(0.0172526 -0.0195436 2.28655e-18)
(0.0221942 -0.0172232 -1.79598e-18)
(0.0072372 0.0433957 -2.94948e-18)
(-0.00775754 0.179564 3.02503e-19)
(-0.00195282 0.331147 7.06308e-19)
(0.00668756 0.448752 -5.01621e-19)
(0.0504607 0.520217 1.36252e-18)
(0.0698971 0.539417 2.8462e-19)
(0.147913 0.561358 -1.9955e-19)
(0.183634 0.533707 1.0914e-19)
(0.279501 0.538784 -1.54729e-18)
(0.329764 0.491767 2.01975e-19)
(0.451331 0.515881 8.81787e-19)
(0.485071 0.455082 -6.94095e-19)
(0.638674 0.482365 4.70646e-18)
(0.0188088 -0.0181353 4.79808e-19)
(0.0307322 -0.0212232 -1.03031e-18)
(0.0217881 0.0168358 2.86917e-18)
(0.00402977 0.112275 2.21732e-18)
(0.00562519 0.24677 -2.22232e-18)
(0.0064055 0.372289 -1.51824e-19)
(0.0470616 0.463577 -1.02502e-18)
(0.0685202 0.491297 -3.99083e-19)
(0.138086 0.528043 2.84655e-18)
(0.19313 0.492597 1.46127e-18)
(0.268786 0.519076 2.01519e-18)
(0.361403 0.456243 -1.60511e-18)
(0.440488 0.499886 1.08607e-18)
(0.508921 0.41104 -6.22993e-19)
(0.673621 0.492497 -6.00152e-18)
(0.0213295 -0.0172617 3.83172e-19)
(0.0386384 -0.0230332 6.14457e-19)
(0.0342793 0.00240259 -1.58001e-18)
(0.0163091 0.0659998 -1.79947e-18)
(0.0111258 0.170172 -1.64879e-18)
(0.00446252 0.286704 1.41105e-19)
(0.0348407 0.390405 1.19481e-18)
(0.0636534 0.425839 -2.16915e-18)
(0.111339 0.471503 -1.14585e-18)
(0.205977 0.451777 6.32365e-19)
(0.224503 0.452593 -1.84638e-18)
(0.412469 0.444599 1.91308e-19)
(0.360903 0.412972 1.28802e-18)
(0.605541 0.416063 -1.73541e-18)
(0.566173 0.405719 1.41222e-18)
(0.0246714 -0.0171693 -8.62706e-19)
(0.0456896 -0.0245482 1.95741e-18)
(0.0435312 -0.00647206 1.29289e-18)
(0.0264339 0.0369566 8.64457e-19)
(0.0142046 0.11027 1.40979e-18)
(0.000694692 0.204217 -1.4198e-19)
(0.0167358 0.305765 -1.10345e-18)
(0.0499179 0.347314 2.4264e-19)
(0.0793499 0.391569 1.51183e-18)
(0.190339 0.390024 -2.38537e-18)
(0.19225 0.371752 -1.11867e-18)
(0.392149 0.387845 1.0149e-19)
(0.296912 0.305713 -3.63967e-19)
(0.624983 0.384443 2.05767e-18)
(0.409202 0.25879 -1.98682e-18)
(0.0282406 -0.0178219 9.42386e-19)
(0.0508082 -0.0268611 6.30039e-19)
(0.0483498 -0.0144419 -7.39675e-20)
(0.0310601 0.0161702 -5.60554e-19)
(0.0131293 0.0657929 1.25262e-19)
(-0.0075037 0.133163 -1.65033e-18)
(-0.00324202 0.219669 3.6323e-19)
(0.0222893 0.258229 -7.15843e-19)
(0.0498666 0.304106 -7.23319e-19)
(0.143842 0.29228 1.62706e-18)
(0.172192 0.294414 2.36841e-18)
(0.317138 0.283013 1.11654e-18)
(0.296346 0.241702 1.17942e-18)
(0.586932 0.318223 -1.5384e-18)
(0.52766 0.265591 -1.62753e-18)
(0.0310796 -0.0188894 7.80853e-19)
(0.0525698 -0.0302234 -1.48157e-18)
(0.0474201 -0.023747 -7.15395e-19)
(0.0279892 -0.00312573 -1.60063e-18)
(0.0050192 0.0296486 7.18585e-19)
(-0.0219416 0.0735617 1.74067e-18)
(-0.0266529 0.138796 -1.98238e-18)
(-0.0147898 0.165307 6.90986e-19)
(0.0150493 0.2118 1.30413e-18)
(0.09004 0.183324 3.46554e-19)
(0.135868 0.198929 -1.50159e-18)
(0.274621 0.193478 -6.43244e-19)
(0.37521 0.228911 -3.62612e-21)
(0.666373 0.314888 9.0539e-19)
(0.823355 0.388613 3.62255e-18)
(0.0321064 -0.0198517 -1.26356e-18)
(0.0497891 -0.0341868 -1.26699e-18)
(0.0399446 -0.0345859 7.08733e-19)
(0.0165229 -0.0235221 2.8438e-18)
(-0.0118801 -0.00407853 -1.84592e-18)
(-0.0434476 0.0207094 5.16618e-19)
(-0.0576185 0.0637391 7.7008e-19)
(-0.0561622 0.0749511 -6.40695e-20)
(-0.0282379 0.114737 1.65738e-19)
(0.0403093 0.0836658 7.01842e-19)
(0.128687 0.114967 -6.32081e-19)
(0.345072 0.173832 -1.35251e-18)
(0.557969 0.269627 -1.27704e-18)
(0.841467 0.373879 1.07113e-18)
(0.98258 0.443287 3.5244e-19)
(0.0304094 -0.0201276 -3.11985e-19)
(0.0419545 -0.0378518 2.51277e-18)
(0.026142 -0.0458392 5.28366e-19)
(-0.002429 -0.0445055 7.52117e-19)
(-0.0368649 -0.0373887 6.84399e-19)
(-0.0731662 -0.0276992 6.53979e-19)
(-0.0970691 -0.00561673 -2.31692e-19)
(-0.0991884 -0.00780401 4.21317e-19)
(-0.066855 0.0249523 2.02539e-19)
(0.0487539 0.0283829 8.83427e-19)
(0.246185 0.109846 4.94014e-20)
(0.52147 0.221725 9.40158e-19)
(0.764392 0.335102 -8.10135e-19)
(0.959771 0.411819 -8.34658e-19)
(1.05918 0.458558 5.86012e-19)
(0.0255178 -0.0192068 1.12682e-18)
(0.0293615 -0.0400468 -1.03111e-18)
(0.00724551 -0.0554549 1.07732e-19)
(-0.0266412 -0.0633817 -1.5333e-18)
(-0.0671444 -0.0669143 -1.27379e-18)
(-0.108629 -0.0684596 2.19892e-18)
(-0.136964 -0.0630182 6.27319e-19)
(-0.123725 -0.0685779 -8.87763e-19)
(-0.0453072 -0.0268909 2.44203e-19)
(0.175741 0.0484417 -2.40311e-18)
(0.451464 0.170106 8.29642e-19)
(0.711933 0.287384 -1.01381e-18)
(0.898216 0.374102 1.27908e-18)
(1.03097 0.427625 -1.2826e-19)
(1.11661 0.467667 -8.47927e-19)
(0.0176271 -0.0167579 -1.75953e-18)
(0.0132066 -0.0395368 -1.79231e-18)
(-0.0144769 -0.0608434 -1.83981e-18)
(-0.0525541 -0.0754244 -1.38637e-18)
(-0.0960493 -0.085616 9.30237e-19)
(-0.136762 -0.092422 -3.77767e-18)
(-0.15428 -0.0922913 3.43464e-19)
(-0.0938377 -0.0849596 3.37656e-19)
(0.0777634 -0.0114669 1.75635e-19)
(0.37802 0.115676 1.12281e-18)
(0.646797 0.236768 -9.30416e-19)
(0.847695 0.330261 2.2455e-18)
(0.98696 0.395024 -4.93376e-19)
(1.0854 0.437881 -1.00773e-18)
(1.14002 0.462739 5.75757e-19)
(0.00762316 -0.0127777 3.10713e-19)
(-0.00451475 -0.0354703 1.45398e-18)
(-0.0356262 -0.059622 2.07783e-18)
(-0.0746447 -0.0768626 3.39182e-19)
(-0.114758 -0.0881061 1.66739e-18)
(-0.143505 -0.0919517 9.3018e-19)
(-0.133205 -0.0859594 2.92495e-19)
(0.00291018 -0.0524801 -1.44889e-18)
(0.271939 0.0619958 -8.55085e-20)
(0.569525 0.186217 6.12358e-19)
(0.791666 0.285374 2.30429e-18)
(0.946932 0.359474 -2.90952e-19)
(1.05022 0.409072 8.48993e-19)
(1.11283 0.437773 8.25669e-19)
(1.15579 0.456813 1.38743e-18)
(-0.00317272 -0.00767175 5.72166e-19)
(-0.0216432 -0.0279561 -1.9163e-18)
(-0.0532066 -0.0517275 -4.13203e-19)
(-0.0884336 -0.0676797 1.93895e-20)
(-0.11864 -0.0748889 -3.11937e-18)
(-0.126205 -0.0709344 8.18063e-19)
(-0.0752986 -0.0589001 -4.14583e-19)
(0.157359 0.016621 4.88022e-19)
(0.466059 0.14079 1.58148e-18)
(0.723902 0.242378 -5.30244e-19)
(0.902974 0.322876 -1.81119e-18)
(1.01843 0.37977 -2.51131e-19)
(1.08759 0.413887 -2.89594e-19)
(1.1334 0.436415 -6.35908e-19)
(1.16492 0.449388 -1.4902e-18)
(-0.0134198 -0.00215713 1.19293e-19)
(-0.0365503 -0.0181046 5.18573e-19)
(-0.0656794 -0.0388863 -1.34446e-18)
(-0.0931733 -0.0507884 5.63524e-19)
(-0.108928 -0.0517155 1.29509e-18)
(-0.0920093 -0.0409728 -5.59343e-19)
(0.0168238 -0.0195371 -1.19741e-19)
(0.335574 0.0944088 -1.3154e-18)
(0.629546 0.203597 2.67507e-19)
(0.846791 0.286982 -9.14069e-19)
(0.983775 0.35062 8.80408e-19)
(1.06509 0.391447 -7.38927e-19)
(1.11438 0.41672 1.3334e-18)
(1.14408 0.432359 -5.23654e-19)
(1.16644 0.440073 -1.10779e-18)
(-0.0220932 0.0029873 6.12381e-19)
(-0.0483642 -0.00748439 3.83529e-19)
(-0.0730032 -0.0237675 3.46425e-19)
(-0.090343 -0.0306657 8.34478e-20)
(-0.0896341 -0.0254295 5.96687e-19)
(-0.046341 -0.0150074 -1.46065e-18)
(0.14883 0.0407007 8.10936e-19)
(0.4989 0.160122 1.9004e-18)
(0.764878 0.256166 -1.83672e-19)
(0.939839 0.322127 1.39076e-18)
(1.04064 0.370487 8.47253e-19)
(1.09821 0.399354 1.37923e-19)
(1.12926 0.416075 2.87676e-19)
(1.15009 0.427482 5.54571e-19)
(1.17032 0.433245 1.29952e-18)
(-0.0286405 0.00714221 9.33857e-19)
(-0.0568942 0.00236669 1.33269e-18)
(-0.0759282 -0.0089756 -1.20437e-18)
(-0.0821006 -0.0110964 1.09724e-18)
(-0.0661412 -0.00254251 -2.56187e-18)
(0.0165564 0.00352608 6.33243e-19)
(0.312684 0.108282 -2.25572e-19)
(0.644701 0.217434 -1.18693e-18)
(0.871885 0.298226 -2.08575e-18)
(1.00828 0.348429 -7.8466e-19)
(1.0804 0.384621 -1.95027e-18)
(1.11797 0.402741 1.22824e-18)
(1.13912 0.414942 -1.68591e-18)
(1.15465 0.42323 1.17497e-18)
(1.16877 0.425124 8.21593e-19)
(-0.0329779 0.00996628 -2.21314e-18)
(-0.0624282 0.0102939 7.75269e-20)
(-0.0755517 0.00353516 1.58659e-19)
(-0.0706636 0.00596321 3.07412e-19)
(-0.0409005 0.0110851 1.71512e-19)
(0.112194 0.0379776 1.23554e-18)
(0.471141 0.167641 6.84778e-19)
(0.767544 0.264678 -1.90648e-19)
(0.953802 0.330812 9.41076e-19)
(1.05688 0.368111 6.05391e-19)
(1.10598 0.39397 2.82312e-19)
(1.13161 0.404879 -6.97473e-19)
(1.14488 0.413359 2.33327e-18)
(1.15545 0.418092 4.15213e-19)
(1.16903 0.418956 -8.73714e-19)
(-0.0354029 0.0114053 2.03681e-18)
(-0.0655203 0.0156475 -1.45886e-18)
(-0.0727858 0.0127572 4.66529e-19)
(-0.0588183 0.0187171 -4.91835e-20)
(-0.00528329 0.0127107 2.44852e-18)
(0.251189 0.0949597 -2.01312e-19)
(0.611366 0.21976 -8.22775e-19)
(0.866642 0.303438 2.00823e-18)
(1.0145 0.35586 1.86428e-19)
(1.08997 0.382155 8.04764e-19)
(1.12317 0.400421 -1.60262e-18)
(1.13919 0.405178 3.50886e-20)
(1.14752 0.411428 -7.3714e-19)
(1.157 0.414148 -1.54421e-19)
(1.16745 0.413073 -5.18322e-19)
(-0.0364741 0.0116171 -5.44932e-19)
(-0.0667734 0.018191 1.52275e-18)
(-0.0683533 0.0189442 9.22221e-19)
(-0.0482734 0.0236045 7.38508e-19)
(0.054601 0.0196325 -4.0721e-19)
(0.405723 0.152462 -1.62349e-19)
(0.733412 0.263859 1.06909e-18)
(0.944575 0.333923 -8.51371e-19)
(1.05824 0.374219 2.60584e-19)
(1.11216 0.392222 -1.35172e-18)
(1.13305 0.404271 9.17906e-20)
(1.14378 0.405153 2.09794e-19)
(1.14936 0.410122 -3.076e-19)
(1.15621 0.409756 -1.85493e-18)
(1.16524 0.407795 7.88679e-19)
(-0.0368928 0.0108312 -9.59013e-19)
(-0.0666382 0.0181321 -1.20147e-18)
(-0.0636324 0.0226404 6.31158e-19)
(-0.0339461 0.0183936 -8.28992e-20)
(0.154303 0.0572787 -9.93687e-19)
(0.544029 0.203076 -4.10189e-20)
(0.83263 0.300695 -7.5249e-19)
(1.00317 0.357795 -1.48867e-18)
(1.08862 0.387834 -6.04448e-19)
(1.12582 0.399147 5.59405e-19)
(1.13914 0.406849 5.1426e-19)
(1.14603 0.404737 -5.11923e-20)
(1.14904 0.408425 -8.29679e-19)
(1.15573 0.406084 1.52717e-18)
(1.16354 0.403799 4.8283e-19)
(-0.0372942 0.00923733 9.43296e-19)
(-0.0655075 0.0164403 1.63341e-21)
(-0.0603205 0.023011 -1.54889e-18)
(-0.00368383 0.00635825 -3.45749e-20)
(0.294641 0.114054 2.3726e-19)
(0.667045 0.247113 4.394e-19)
(0.912791 0.33052 -7.92099e-19)
(1.04702 0.375973 4.11492e-19)
(1.10923 0.397405 -1.84345e-20)
(1.13433 0.404011 4.57375e-19)
(1.14193 0.408208 -4.11343e-19)
(1.14652 0.404209 -1.16143e-18)
(1.14878 0.407383 -5.78513e-20)
(1.15432 0.40257 -7.41306e-19)
(1.16008 0.399772 -6.48818e-19)
(-0.0379974 0.00709013 3.83679e-19)
(-0.0637589 0.0147935 -7.83916e-19)
(-0.0576448 0.0183899 7.87086e-19)
(0.0547423 0.00907203 -2.50238e-19)
(0.439734 0.166749 -1.36422e-19)
(0.77181 0.284072 -3.95e-19)
(0.9746 0.354301 6.23816e-19)
(1.07795 0.389691 4.05419e-19)
(1.12239 0.404402 -2.42296e-19)
(1.13857 0.40735 -6.88947e-19)
(1.14296 0.409092 -2.50147e-19)
(1.14626 0.403887 1.19152e-18)
(1.14716 0.406051 7.32959e-19)
(1.15242 0.399304 7.29227e-19)
(1.15768 0.397093 -2.27864e-19)
(-0.0389721 0.00472832 -2.41361e-19)
(-0.0624385 0.0140736 8.67066e-20)
(-0.0494687 0.00809265 -3.2514e-19)
(0.147329 0.0463026 -2.48787e-21)
(0.564176 0.212868 -2.5369e-19)
(0.8573 0.315885 -3.82496e-19)
(1.02203 0.373365 1.35387e-19)
(1.09995 0.399978 -8.03685e-19)
(1.13055 0.409266 7.17046e-19)
(1.14066 0.409763 9.16084e-19)
(1.1427 0.409549 1.1826e-19)
(1.14482 0.403486 -1.03728e-18)
(1.14553 0.40509 -1.01617e-18)
(1.15041 0.396595 -7.73707e-19)
(1.15371 0.394397 3.15083e-19)
(-0.0400869 0.00303023 -7.77199e-19)
(-0.062828 0.0125296 2.13151e-19)
(-0.02559 -0.00574302 -1.56558e-19)
(0.275308 0.103405 -6.04071e-22)
(0.674441 0.25279 -6.26504e-20)
(0.926707 0.341751 -1.45134e-19)
(1.05741 0.3882 2.72609e-19)
(1.11443 0.407596 -1.56749e-19)
(1.13491 0.412916 -2.05819e-19)
(1.14068 0.411557 -3.98365e-19)
(1.14144 0.409878 -3.53906e-19)
(1.14316 0.403425 -1.63552e-19)
(1.14316 0.404036 6.3109e-19)
(1.14752 0.393953 -2.54461e-20)
(1.15035 0.392606 5.04632e-19)
(-0.0412463 0.00323245 3.2306e-19)
(-0.0641371 0.00837096 5.36302e-19)
(0.0211671 -0.0102524 9.14655e-20)
(0.412622 0.155691 3.32042e-19)
(0.769776 0.286501 7.34204e-19)
(0.980832 0.363005 2.73578e-19)
(1.08294 0.399973 1.01011e-18)
(1.12392 0.413475 5.35101e-19)
(1.13691 0.415638 3.40209e-19)
(1.13987 0.413008 7.81903e-19)
(1.13974 0.410175 2.42589e-19)
(1.1407 0.403314 4.45307e-19)
(1.14056 0.403123 2.21616e-19)
(1.1448 0.391988 1.04868e-19)
(1.14614 0.391009 3.49256e-19)
(-0.0422072 0.00596215 4.50166e-19)
(-0.0634928 0.00164579 -7.63526e-19)
(0.0906739 0.00951484 -1.47607e-19)
(0.53092 0.200118 3.49591e-19)
(0.849252 0.31675 -7.40574e-19)
(1.02323 0.380684 -3.04973e-19)
(1.10117 0.409169 -6.23889e-19)
(1.12942 0.41794 -2.1165e-20)
(1.13709 0.41789 -1.68975e-19)
(1.13804 0.414291 -6.58853e-19)
(1.13734 0.410484 5.02191e-19)
(1.13808 0.403492 3.83653e-20)
(1.13762 0.402302 -2.1485e-20)
(1.14121 0.390114 1.84715e-19)
(1.14194 0.389816 -4.28223e-19)
(-0.0430872 0.0101341 -3.28356e-20)
(-0.0556691 -0.00753817 3.35282e-19)
(0.184734 0.054363 9.36396e-20)
(0.63244 0.2396 -4.91093e-19)
(0.914429 0.342718 3.28527e-19)
(1.05549 0.395322 1.05621e-19)
(1.11348 0.416582 -2.77568e-19)
(1.13229 0.421655 -1.32081e-19)
(1.13618 0.419857 -4.02416e-19)
(1.13584 0.415509 7.16412e-20)
(1.13479 0.410927 -4.86664e-19)
(1.13496 0.403674 -3.46126e-19)
(1.13429 0.401526 9.311e-20)
(1.13775 0.388838 9.69288e-20)
(1.13752 0.388937 -1.68735e-19)
(-0.0443894 0.0126428 -1.6704e-19)
(-0.0352583 -0.0156572 -1.06256e-19)
(0.297829 0.10713 2.28315e-19)
(0.721101 0.273014 4.22465e-19)
(0.966476 0.364587 8.23131e-20)
(1.07958 0.407484 -2.27474e-19)
(1.12169 0.422682 2.87589e-19)
(1.13322 0.424784 2.51449e-19)
(1.1344 0.421725 1.3109e-19)
(1.13309 0.416766 2.50214e-20)
(1.13166 0.411444 1.56784e-19)
(1.1316 0.404061 6.94649e-20)
(1.1308 0.400954 -4.91097e-20)
(1.13361 0.387716 -6.21006e-20)
(1.13276 0.388099 5.53094e-20)
(-0.0462105 0.0104552 -7.76963e-20)
(-0.000587656 -0.0168006 -9.12339e-20)
(0.414279 0.155672 7.50736e-20)
(0.79854 0.302686 -9.95567e-20)
(1.00774 0.382832 -2.14414e-19)
(1.09694 0.417487 1.64708e-20)
(1.1265 0.42788 1.32667e-19)
(1.13278 0.427742 -1.20234e-19)
(1.13206 0.423635 7.97608e-20)
(1.13007 0.418091 1.61225e-19)
(1.12843 0.41215 2.57703e-20)