/*--------------------------------*- C++ -*----------------------------------*\
  =========                 |
  \\      /  F ield         | OpenFOAM: The Open Source CFD Toolbox
   \\    /   O peration     | Website:  https://openfoam.org
    \\  /    A nd           | Version:  7
     \\/     M anipulation  |
\*---------------------------------------------------------------------------*/
FoamFile
{
    version     2.0;
    format      ascii;
    class       volScalarField;
    location    "15";
    object      p;
}
// * * * * * * * * * * * * * * * * * * * * * * * * * * * * * * * * * * * * * //

dimensions      [0 2 -2 0 0 0 0];

internalField   nonuniform List<scalar> 
18750
(
-0.277179
-0.27856
-0.279327
-0.279964
-0.280511
-0.280985
-0.281416
-0.281823
-0.282221
-0.282618
-0.283025
-0.283455
-0.283929
-0.284436
-0.285011
-0.277264
-0.278636
-0.279399
-0.280032
-0.280575
-0.281045
-0.281472
-0.281875
-0.282268
-0.282661
-0.283062
-0.283486
-0.283955
-0.284455
-0.285021
-0.277433
-0.278789
-0.279542
-0.280167
-0.280702
-0.281164
-0.281583
-0.281978
-0.282362
-0.282745
-0.283136
-0.283548
-0.284006
-0.284493
-0.285039
-0.277684
-0.279017
-0.279757
-0.280369
-0.280892
-0.281342
-0.281749
-0.282131
-0.282501
-0.282869
-0.283244
-0.283639
-0.284079
-0.284547
-0.285062
-0.278016
-0.279318
-0.280039
-0.280635
-0.281142
-0.281576
-0.281966
-0.282331
-0.282683
-0.283031
-0.283383
-0.283754
-0.284171
-0.284612
-0.285087
-0.278425
-0.279689
-0.280389
-0.280964
-0.281451
-0.281865
-0.282234
-0.282577
-0.282905
-0.283226
-0.28355
-0.28389
-0.284276
-0.284684
-0.285107
-0.278909
-0.28013
-0.280804
-0.281354
-0.281817
-0.282206
-0.282549
-0.282865
-0.283163
-0.283452
-0.28374
-0.284041
-0.28439
-0.284757
-0.285116
-0.279463
-0.280635
-0.28128
-0.281802
-0.282236
-0.282596
-0.282909
-0.283191
-0.283454
-0.283704
-0.28395
-0.284203
-0.284506
-0.284825
-0.285105
-0.280084
-0.281203
-0.281815
-0.282306
-0.282706
-0.283032
-0.283309
-0.283553
-0.283774
-0.283979
-0.284173
-0.28437
-0.284618
-0.284881
-0.285066
-0.280767
-0.281831
-0.282407
-0.282862
-0.283225
-0.283512
-0.283748
-0.283948
-0.28412
-0.284271
-0.284405
-0.284537
-0.284718
-0.284919
-0.284986
-0.28151
-0.282515
-0.283052
-0.283467
-0.283789
-0.284033
-0.284222
-0.284371
-0.284488
-0.284577
-0.284643
-0.284698
-0.284801
-0.284932
-0.284854
-0.282308
-0.283253
-0.283749
-0.284121
-0.284397
-0.284591
-0.284728
-0.28482
-0.284875
-0.284895
-0.284883
-0.284849
-0.284859
-0.284915
-0.284654
-0.283158
-0.284042
-0.284494
-0.284819
-0.285045
-0.285186
-0.285264
-0.285294
-0.285279
-0.285221
-0.285122
-0.284987
-0.284888
-0.284865
-0.284353
-0.284058
-0.28488
-0.285286
-0.285561
-0.285732
-0.285813
-0.285828
-0.285789
-0.285698
-0.285555
-0.285359
-0.285111
-0.284888
-0.284796
-0.283907
-0.285007
-0.285767
-0.286123
-0.286345
-0.286456
-0.286473
-0.286419
-0.286305
-0.286132
-0.285897
-0.285595
-0.285222
-0.284858
-0.284732
-0.283407
-0.286002
-0.286699
-0.287005
-0.287169
-0.287216
-0.287164
-0.287035
-0.28684
-0.28658
-0.286246
-0.285831
-0.285322
-0.284788
-0.284458
-0.283022
-0.287044
-0.287679
-0.287931
-0.288033
-0.288012
-0.287885
-0.287677
-0.287396
-0.287043
-0.286605
-0.286069
-0.285416
-0.28472
-0.28415
-0.282475
-0.288134
-0.288706
-0.288902
-0.288938
-0.288843
-0.288636
-0.288343
-0.287972
-0.287522
-0.286977
-0.286315
-0.285508
-0.284629
-0.283836
-0.281762
-0.289272
-0.289782
-0.289917
-0.289884
-0.289709
-0.289417
-0.289033
-0.288569
-0.288018
-0.287363
-0.286573
-0.285605
-0.284524
-0.283504
-0.280901
-0.290463
-0.290908
-0.290981
-0.290871
-0.290612
-0.290229
-0.28975
-0.289187
-0.288534
-0.287767
-0.286849
-0.285716
-0.284418
-0.283162
-0.279894
-0.291709
-0.292088
-0.292093
-0.291903
-0.291552
-0.291072
-0.290492
-0.289827
-0.289068
-0.28819
-0.287145
-0.285848
-0.284322
-0.282828
-0.278745
-0.293015
-0.293326
-0.293259
-0.292982
-0.292533
-0.291948
-0.291262
-0.290489
-0.289624
-0.288634
-0.287464
-0.286007
-0.284247
-0.282517
-0.277468
-0.294388
-0.294627
-0.294482
-0.29411
-0.293556
-0.29286
-0.29206
-0.291175
-0.290199
-0.289098
-0.287807
-0.286196
-0.284201
-0.282241
-0.276086
-0.295834
-0.295997
-0.295767
-0.295293
-0.294624
-0.293808
-0.292888
-0.291885
-0.290795
-0.289582
-0.288173
-0.286413
-0.284192
-0.282003
-0.274642
-0.297362
-0.297442
-0.297121
-0.296535
-0.295743
-0.294798
-0.293749
-0.292621
-0.291413
-0.290084
-0.28856
-0.286656
-0.284224
-0.281794
-0.273211
-0.298981
-0.298971
-0.298549
-0.297843
-0.296917
-0.295834
-0.294647
-0.293386
-0.292052
-0.290605
-0.288966
-0.286921
-0.284308
-0.2816
-0.271912
-0.300702
-0.300593
-0.300061
-0.299223
-0.298153
-0.296921
-0.295585
-0.294183
-0.292717
-0.291147
-0.289392
-0.287206
-0.284457
-0.281361
-0.270809
-0.302537
-0.302317
-0.301664
-0.300684
-0.299459
-0.298066
-0.296572
-0.295019
-0.293413
-0.291715
-0.289846
-0.287524
-0.284718
-0.280965
-0.26966
-0.304498
-0.304154
-0.30337
-0.302235
-0.300842
-0.299278
-0.297616
-0.295903
-0.294148
-0.292319
-0.290343
-0.287915
-0.28522
-0.280519
-0.268675
-0.306599
-0.306116
-0.305189
-0.303886
-0.302313
-0.300566
-0.298726
-0.296844
-0.294934
-0.292969
-0.290893
-0.288408
-0.286064
-0.280822
-0.272429
-0.308856
-0.308216
-0.307131
-0.305649
-0.303883
-0.301943
-0.299915
-0.297855
-0.295782
-0.293675
-0.2915
-0.288972
-0.287012
-0.28225
-0.289506
-0.311283
-0.310468
-0.309211
-0.307534
-0.305565
-0.303421
-0.301196
-0.29895
-0.296706
-0.294447
-0.29216
-0.289571
-0.287862
-0.283321
-0.292086
-0.313896
-0.312885
-0.311441
-0.309556
-0.30737
-0.305014
-0.302583
-0.300144
-0.297721
-0.295297
-0.292874
-0.290185
-0.288475
-0.283941
-0.291515
-0.316712
-0.31548
-0.313833
-0.311728
-0.309315
-0.306735
-0.304092
-0.301452
-0.29884
-0.296235
-0.293645
-0.290806
-0.288896
-0.284307
-0.290191
-0.319746
-0.318269
-0.316403
-0.314063
-0.311412
-0.308601
-0.305738
-0.302889
-0.300075
-0.29727
-0.294473
-0.291427
-0.28916
-0.284428
-0.288276
-0.323015
-0.321264
-0.319164
-0.316575
-0.313676
-0.310627
-0.307536
-0.304468
-0.301437
-0.298405
-0.295354
-0.292033
-0.289287
-0.284306
-0.286046
-0.326533
-0.32448
-0.322128
-0.319279
-0.316121
-0.312826
-0.309499
-0.306201
-0.302932
-0.29964
-0.296283
-0.292613
-0.28929
-0.283958
-0.283702
-0.330314
-0.32793
-0.32531
-0.322188
-0.318762
-0.315213
-0.311641
-0.308096
-0.304564
-0.300971
-0.297248
-0.293153
-0.289179
-0.283404
-0.281355
-0.334371
-0.331625
-0.328721
-0.325314
-0.321613
-0.3178
-0.313972
-0.310161
-0.306332
-0.302389
-0.298235
-0.293638
-0.288959
-0.282664
-0.27905
-0.338713
-0.335575
-0.332373
-0.328671
-0.324685
-0.3206
-0.3165
-0.312397
-0.30823
-0.30388
-0.299227
-0.294052
-0.288627
-0.281755
-0.276795
-0.343351
-0.339791
-0.336276
-0.332269
-0.327989
-0.323621
-0.319229
-0.314801
-0.310247
-0.305425
-0.300201
-0.29438
-0.28818
-0.280688
-0.274578
-0.34829
-0.344279
-0.340439
-0.336117
-0.331534
-0.326868
-0.32216
-0.317366
-0.312367
-0.307003
-0.301135
-0.294603
-0.287607
-0.279473
-0.272373
-0.353534
-0.349044
-0.344867
-0.340223
-0.335327
-0.330345
-0.325288
-0.320078
-0.314569
-0.308586
-0.302001
-0.294704
-0.2869
-0.278111
-0.270152
-0.359082
-0.354088
-0.349565
-0.344591
-0.339369
-0.334049
-0.328604
-0.322919
-0.316823
-0.310142
-0.302773
-0.294664
-0.286046
-0.276602
-0.267885
-0.36493
-0.359409
-0.354533
-0.349221
-0.34366
-0.337972
-0.33209
-0.325861
-0.319098
-0.311639
-0.303421
-0.294466
-0.285035
-0.274943
-0.265545
-0.37107
-0.365003
-0.359768
-0.354111
-0.348191
-0.342101
-0.335723
-0.328874
-0.321358
-0.313041
-0.30392
-0.294091
-0.283855
-0.273126
-0.263107
-0.37749
-0.37086
-0.365262
-0.359251
-0.352951
-0.346414
-0.339473
-0.331918
-0.323559
-0.314312
-0.304241
-0.293523
-0.282492
-0.271143
-0.260548
-0.384169
-0.376965
-0.371002
-0.364628
-0.35792
-0.350882
-0.343302
-0.334949
-0.32566
-0.315414
-0.304358
-0.292745
-0.280935
-0.268985
-0.257848
-0.391085
-0.3833
-0.376971
-0.370221
-0.36307
-0.355471
-0.347166
-0.337919
-0.327614
-0.316311
-0.304245
-0.29174
-0.279171
-0.26664
-0.254989
-0.398206
-0.389838
-0.383143
-0.376002
-0.368367
-0.360135
-0.351011
-0.340775
-0.329375
-0.316969
-0.303879
-0.290491
-0.277186
-0.264097
-0.251953
-0.405495
-0.396546
-0.389486
-0.381935
-0.373767
-0.364823
-0.354783
-0.343462
-0.330896
-0.317352
-0.303236
-0.288982
-0.274966
-0.261341
-0.248724
-0.412907
-0.403387
-0.395962
-0.387977
-0.379218
-0.369475
-0.358418
-0.345922
-0.332133
-0.317428
-0.302293
-0.287195
-0.272496
-0.25836
-0.245288
-0.420391
-0.410313
-0.402524
-0.394077
-0.384662
-0.374026
-0.361852
-0.3481
-0.333041
-0.317165
-0.301027
-0.285113
-0.269762
-0.255139
-0.24163
-0.427888
-0.417271
-0.409117
-0.400173
-0.390032
-0.378405
-0.365017
-0.349937
-0.333576
-0.316534
-0.299417
-0.282719
-0.266746
-0.251662
-0.237735
-0.435332
-0.4242
-0.415678
-0.406198
-0.395252
-0.382537
-0.367844
-0.351379
-0.333699
-0.315504
-0.29744
-0.279994
-0.263434
-0.247916
-0.233589
-0.44265
-0.431034
-0.422139
-0.412077
-0.400244
-0.386344
-0.370264
-0.352372
-0.33337
-0.314047
-0.295075
-0.276919
-0.259809
-0.243884
-0.22918
-0.449765
-0.437697
-0.428422
-0.417728
-0.404923
-0.389745
-0.372211
-0.352864
-0.332552
-0.312137
-0.292301
-0.273478
-0.255853
-0.239552
-0.224494
-0.456591
-0.444109
-0.434443
-0.423063
-0.409201
-0.392661
-0.373619
-0.352806
-0.331209
-0.309748
-0.289096
-0.26965
-0.251552
-0.234905
-0.219518
-0.463039
-0.450183
-0.440115
-0.427991
-0.41299
-0.395012
-0.374425
-0.352153
-0.32931
-0.306853
-0.285439
-0.265418
-0.246888
-0.229929
-0.214242
-0.469015
-0.455829
-0.445344
-0.432418
-0.416198
-0.396722
-0.374569
-0.350862
-0.326821
-0.303429
-0.281311
-0.260764
-0.241846
-0.224609
-0.208654
-0.474424
-0.460954
-0.450034
-0.436246
-0.418739
-0.397718
-0.373998
-0.348892
-0.323715
-0.299454
-0.276691
-0.255672
-0.236412
-0.218933
-0.202745
-0.479167
-0.465459
-0.454086
-0.43938
-0.420524
-0.397929
-0.372658
-0.346207
-0.319965
-0.294905
-0.271562
-0.250125
-0.230571
-0.212889
-0.196506
-0.483144
-0.469247
-0.457401
-0.441724
-0.421471
-0.397291
-0.370504
-0.342775
-0.315544
-0.289763
-0.265906
-0.244108
-0.22431
-0.206466
-0.189929
-0.486259
-0.472221
-0.459882
-0.443187
-0.421503
-0.395744
-0.367493
-0.338565
-0.310433
-0.284008
-0.259708
-0.237608
-0.217617
-0.199654
-0.183005
-0.488413
-0.474283
-0.461432
-0.44368
-0.420546
-0.393236
-0.363588
-0.333551
-0.304609
-0.277626
-0.252953
-0.230612
-0.210482
-0.192444
-0.175729
-0.489514
-0.475341
-0.46196
-0.443122
-0.418536
-0.389719
-0.358758
-0.32771
-0.298057
-0.2706
-0.245628
-0.22311
-0.202896
-0.18483
-0.168098
-0.489474
-0.475303
-0.46138
-0.441435
-0.415414
-0.385153
-0.352975
-0.321025
-0.290761
-0.26292
-0.237724
-0.215092
-0.194851
-0.176808
-0.160118
-0.488207
-0.474086
-0.45961
-0.438553
-0.41113
-0.379504
-0.346218
-0.31348
-0.282711
-0.254575
-0.229231
-0.20655
-0.186337
-0.168373
-0.151801
-0.485639
-0.471611
-0.456578
-0.434415
-0.40564
-0.372744
-0.338469
-0.305064
-0.273897
-0.24556
-0.220145
-0.197478
-0.177346
-0.159516
-0.143112
-0.481698
-0.467809
-0.452219
-0.42897
-0.39891
-0.364854
-0.329718
-0.29577
-0.264316
-0.23587
-0.210462
-0.187875
-0.167883
-0.150225
-0.133935
-0.476325
-0.462616
-0.446477
-0.422176
-0.390915
-0.355821
-0.319959
-0.285596
-0.253966
-0.225506
-0.200184
-0.177747
-0.157964
-0.140519
-0.124179
-0.469468
-0.455981
-0.439307
-0.414002
-0.381637
-0.345637
-0.30919
-0.274543
-0.24285
-0.214469
-0.189314
-0.167097
-0.147595
-0.130427
-0.114071
-0.461085
-0.447859
-0.430673
-0.404424
-0.371068
-0.334303
-0.297417
-0.262616
-0.230972
-0.202766
-0.177856
-0.155932
-0.136765
-0.119858
-0.10385
-0.451144
-0.438219
-0.42055
-0.393432
-0.359207
-0.321827
-0.284648
-0.249827
-0.218344
-0.190405
-0.165822
-0.144263
-0.125494
-0.108891
-0.0933546
-0.439625
-0.427037
-0.408924
-0.381023
-0.346062
-0.30822
-0.2709
-0.236188
-0.204976
-0.177398
-0.153224
-0.1321
-0.113783
-0.0975609
-0.0825326
-0.426517
-0.414303
-0.395792
-0.367203
-0.331649
-0.293503
-0.25619
-0.221719
-0.190886
-0.163764
-0.140076
-0.119456
-0.10165
-0.0858747
-0.0713804
-0.411822
-0.400018
-0.38116
-0.351991
-0.31599
-0.277702
-0.240545
-0.206441
-0.176097
-0.149519
-0.126394
-0.106347
-0.0891112
-0.0738392
-0.0599117
-0.395551
-0.384191
-0.365047
-0.335411
-0.299117
-0.260847
-0.223992
-0.190381
-0.16063
-0.134684
-0.112199
-0.0927911
-0.0761847
-0.0614664
-0.0481452
-0.377727
-0.366844
-0.34748
-0.317498
-0.28107
-0.242977
-0.206565
-0.17357
-0.144514
-0.119286
-0.0975149
-0.0788111
-0.06289
-0.0487727
-0.0361018
-0.358382
-0.348008
-0.328496
-0.298295
-0.261896
-0.224135
-0.188298
-0.15604
-0.127778
-0.103353
-0.0823674
-0.0644312
-0.0492487
-0.0357783
-0.0238042
-0.337561
-0.327725
-0.308141
-0.277858
-0.241644
-0.20435
-0.169246
-0.137831
-0.110458
-0.0869148
-0.0667852
-0.0496778
-0.0352851
-0.022506
-0.0112772
-0.315313
-0.306047
-0.286478
-0.256259
-0.220331
-0.183696
-0.149446
-0.118985
-0.0925898
-0.0700063
-0.0507994
-0.0345802
-0.0210254
-0.00898176
0.0014501
-0.291697
-0.283038
-0.26358
-0.23356
-0.198019
-0.162217
-0.128949
-0.0995455
-0.0742147
-0.0526636
-0.0344436
-0.0191691
-0.00649807
0.00476475
0.0143399
-0.26678
-0.258771
-0.239512
-0.209705
-0.174889
-0.139984
-0.107811
-0.0795615
-0.0553753
-0.0349252
-0.0177529
-0.00347743
0.00826674
0.0187
0.0273459
-0.240636
-0.233331
-0.214299
-0.184913
-0.150923
-0.117058
-0.0860881
-0.0590835
-0.0361168
-0.0168318
-0.000764509
0.0124604
0.0232384
0.0327933
0.0404288
-0.213343
-0.206816
-0.188011
-0.159271
-0.126203
-0.0935082
-0.0638419
-0.0381647
-0.0164868
0.00157408
0.0164826
0.0286085
0.03839
0.0470275
0.0535597
-0.184968
-0.179277
-0.160854
-0.132831
-0.100811
-0.0694034
-0.0411347
-0.0168609
0.0034652
0.0202482
0.0339475
0.044932
0.0537049
0.0613883
0.0666383
-0.155636
-0.150862
-0.132891
-0.105683
-0.0748307
-0.0448171
-0.0180317
0.00476975
0.0236878
0.0391441
0.0515887
0.0614037
0.0691777
0.0758063
0.0793701
-0.1256
-0.12155
-0.1042
-0.0779196
-0.0483481
-0.0198254
0.00539944
0.0266673
0.0441272
0.0582134
0.0693665
0.0780064
0.0847977
0.0901254
0.0913826
-0.0948369
-0.091526
-0.0748837
-0.0496386
-0.0214509
0.00549379
0.0290894
0.0487698
0.0647277
0.0774059
0.0872424
0.094717
0.100495
0.104178
0.10297
-0.0634472
-0.0609195
-0.0450485
-0.0209388
0.00577077
0.0310603
0.052967
0.0710135
0.0854315
0.0966704
0.105175
0.111479
0.116107
0.117806
0.116877
-0.031557
-0.0298437
-0.0148052
0.00807829
0.0332254
0.0567925
0.0769595
0.0933331
0.10618
0.115955
0.123113
0.128208
0.131598
0.131952
0.131452
0.000709873
0.00158627
0.0157336
0.0373092
0.0608201
0.0826079
0.100993
0.115663
0.126913
0.135207
0.141005
0.144853
0.146993
0.146254
0.145542
0.0332301
0.0332523
0.0464538
0.0666496
0.0884614
0.108423
0.124994
0.137935
0.147572
0.154371
0.158798
0.161378
0.162291
0.160569
0.159334
0.0658792
0.0650347
0.0772408
0.0959946
0.116055
0.134155
0.148887
0.160084
0.168096
0.173393
0.17644
0.177742
0.177449
0.174762
0.172835
0.098532
0.0968127
0.10798
0.12524
0.143508
0.159719
0.172597
0.182042
0.188425
0.192217
0.193881
0.193904
0.192419
0.188763
0.186046
0.131063
0.128465
0.138556
0.15428
0.170726
0.185032
0.196051
0.203743
0.208497
0.210788
0.211073
0.20982
0.207154
0.202524
0.198953
0.163349
0.159871
0.168857
0.183012
0.197617
0.210012
0.219174
0.225119
0.228255
0.229053
0.227966
0.225446
0.221611
0.216005
0.211542
0.195264
0.190911
0.198768
0.211334
0.22409
0.234577
0.241892
0.246106
0.247638
0.246959
0.244514
0.24074
0.23575
0.229171
0.22379
0.226688
0.221466
0.228179
0.239146
0.250053
0.258646
0.264136
0.266639
0.266589
0.264454
0.26067
0.255659
0.249532
0.241991
0.235677
0.2575
0.251419
0.256982
0.266347
0.27542
0.282142
0.285833
0.286655
0.285051
0.281486
0.276389
0.270164
0.262922
0.254432
0.247179
0.287581
0.280658
0.28507
0.292843
0.300104
0.304987
0.306915
0.306093
0.302969
0.298006
0.291625
0.284214
0.275884
0.266465
0.258274
0.316818
0.30907
0.312339
0.31854
0.324022
0.327107
0.327316
0.324891
0.320289
0.313967
0.306335
0.29777
0.288384
0.27806
0.26894
0.3451
0.336549
0.33869
0.343348
0.347092
0.348429
0.34697
0.342993
0.33696
0.32932
0.320479
0.310797
0.300389
0.289188
0.279154
0.372317
0.362989
0.364027
0.367178
0.369237
0.368883
0.365816
0.360343
0.352929
0.344022
0.334016
0.323258
0.311868
0.299822
0.288894
0.398368
0.388293
0.388255
0.389949
0.390383
0.388404
0.383793
0.376885
0.368151
0.358029
0.346908
0.335119
0.322791
0.309934
0.29814
0.423154
0.412363
0.411289
0.41158
0.410457
0.406927
0.400844
0.39257
0.382577
0.3713
0.359116
0.346348
0.333127
0.319498
0.306869
0.446581
0.435111
0.433043
0.431995
0.429393
0.424392
0.416915
0.407349
0.396166
0.383796
0.370608
0.356912
0.342849
0.32849
0.315064
0.468561
0.456451
0.453439
0.451124
0.447127
0.440741
0.431955
0.421175
0.408875
0.395479
0.381348
0.366783
0.35193
0.336887
0.322704
0.489011
0.476302
0.472403
0.468901
0.463599
0.455922
0.445916
0.434006
0.420666
0.406315
0.391307
0.375933
0.360346
0.344665
0.329773
0.507854
0.494591
0.489867
0.485263
0.478755
0.469885
0.458754
0.445802
0.431503
0.416272
0.400456
0.384336
0.368074
0.351805
0.336253
0.525019
0.511251
0.505768
0.500154
0.492543
0.482585
0.470427
0.456526
0.441353
0.425321
0.408768
0.391968
0.375092
0.358288
0.342131
0.540442
0.526218
0.520049
0.513523
0.504917
0.49398
0.480899
0.466144
0.450186
0.433433
0.416219
0.398809
0.381381
0.364095
0.347391
0.554066
0.539438
0.532659
0.525323
0.515837
0.504032
0.490137
0.474627
0.457975
0.440586
0.422786
0.404838
0.386923
0.369211
0.352021
0.56584
0.550862
0.543552
0.535514
0.525265
0.512711
0.49811
0.481947
0.464697
0.446757
0.428452
0.410037
0.391703
0.373623
0.356011
0.575719
0.560446
0.55269
0.544061
0.53317
0.519986
0.504793
0.488083
0.470329
0.451928
0.433199
0.414394
0.395706
0.377318
0.359351
0.583666
0.568157
0.560039
0.550934
0.539526
0.525836
0.510165
0.493015
0.474857
0.456084
0.437014
0.417894
0.398923
0.380286
0.362032
0.589653
0.573965
0.565574
0.556109
0.544312
0.530239
0.51421
0.496728
0.478264
0.459211
0.439884
0.420528
0.401343
0.382519
0.364049
0.593657
0.577849
0.569276
0.559569
0.547511
0.533183
0.516913
0.499209
0.480542
0.461302
0.441803
0.422288
0.402961
0.384012
0.365396
0.595662
0.579794
0.571129
0.561302
0.549113
0.534657
0.518267
0.500452
0.481682
0.462348
0.442763
0.423169
0.403771
0.384759
0.366071
0.595662
0.579794
0.571129
0.561302
0.549113
0.534657
0.518267
0.500452
0.481682
0.462348
0.442763
0.423169
0.403771
0.384759
0.366071
0.593657
0.577849
0.569275
0.559569
0.547511
0.533183
0.516913
0.499209
0.480542
0.461302
0.441803
0.422288
0.402961
0.384012
0.365396
0.589653
0.573965
0.565574
0.556109
0.544312
0.530239
0.51421
0.496728
0.478264
0.459211
0.439884
0.420528
0.401343
0.382519
0.364049
0.583666
0.568157
0.560039
0.550933
0.539526
0.525835
0.510165
0.493015
0.474856
0.456083
0.437014
0.417894
0.398923
0.380286
0.362032
0.575718
0.560446
0.552689
0.544061
0.53317
0.519986
0.504793
0.488083
0.470329
0.451928
0.433199
0.414394
0.395706
0.377318
0.359351
0.565839
0.550861
0.543552
0.535514
0.525264
0.512711
0.498109
0.481947
0.464697
0.446757
0.428452
0.410037
0.391702
0.373623
0.356011
0.554066
0.539438
0.532659
0.525323
0.515836
0.504032
0.490136
0.474626
0.457975
0.440586
0.422786
0.404837
0.386923
0.369211
0.352021
0.540442
0.526218
0.520049
0.513523
0.504917
0.493979
0.480899
0.466144
0.450186
0.433433
0.416218
0.398809
0.381381
0.364095
0.347391
0.525019
0.511251
0.505768
0.500154
0.492542
0.482584
0.470427
0.456525
0.441353
0.42532
0.408768
0.391968
0.375092
0.358288
0.342131
0.507853
0.494591
0.489867
0.485263
0.478754
0.469885
0.458754
0.445802
0.431503
0.416272
0.400456
0.384336
0.368074
0.351805
0.336253
0.48901
0.476302
0.472403
0.468901
0.463599
0.455922
0.445916
0.434006
0.420666
0.406315
0.391307
0.375933
0.360346
0.344665
0.329773
0.468561
0.45645
0.453438
0.451124
0.447126
0.440741
0.431955
0.421175
0.408875
0.395479
0.381348
0.366783
0.35193
0.336887
0.322704
0.446581
0.435111
0.433042
0.431995
0.429393
0.424391
0.416915
0.407349
0.396166
0.383795
0.370607
0.356912
0.342848
0.32849
0.315063
0.423154
0.412363
0.411288
0.411579
0.410457
0.406926
0.400843
0.39257
0.382577
0.3713
0.359116
0.346347
0.333126
0.319498
0.306869
0.398368
0.388292
0.388255
0.389948
0.390382
0.388404
0.383792
0.376885
0.36815
0.358029
0.346907
0.335119
0.32279
0.309933
0.298139
0.372317
0.362989
0.364026
0.367178
0.369237
0.368883
0.365815
0.360342
0.352929
0.344022
0.334016
0.323258
0.311868
0.299821
0.288894
0.345099
0.336548
0.33869
0.343347
0.347091
0.348428
0.34697
0.342993
0.336959
0.32932
0.320479
0.310797
0.300389
0.289188
0.279154
0.316818
0.309069
0.312339
0.31854
0.324021
0.327106
0.327315
0.324891
0.320289
0.313966
0.306335
0.29777
0.288384
0.27806
0.26894
0.287581
0.280657
0.285069
0.292843
0.300103
0.304986
0.306915
0.306092
0.302969
0.298006
0.291624
0.284213
0.275884
0.266465
0.258274
0.257499
0.251418
0.256981
0.266347
0.275419
0.282141
0.285832
0.286655
0.285051
0.281485
0.276388
0.270163
0.262922
0.254432
0.247179
0.226687
0.221465
0.228178
0.239145
0.250052
0.258646
0.264135
0.266639
0.266589
0.264453
0.26067
0.255659
0.249532
0.24199
0.235676
0.195264
0.19091
0.198767
0.211334
0.224089
0.234576
0.241892
0.246106
0.247637
0.246959
0.244514
0.240739
0.235749
0.229171
0.22379
0.163348
0.15987
0.168856
0.183012
0.197617
0.210011
0.219173
0.225119
0.228254
0.229053
0.227966
0.225445
0.221611
0.216005
0.211541
0.131063
0.128464
0.138556
0.154279
0.170726
0.185031
0.19605
0.203742
0.208497
0.210788
0.211072
0.209819
0.207153
0.202524
0.198953
0.098531
0.0968117
0.107979
0.125239
0.143507
0.159718
0.172597
0.182042
0.188424
0.192216
0.19388
0.193903
0.192418
0.188763
0.186045
0.0658782
0.0650338
0.0772399
0.0959938
0.116055
0.134154
0.148886
0.160084
0.168096
0.173392
0.176439
0.177741
0.177449
0.174762
0.172835
0.0332291
0.0332513
0.0464529
0.0666487
0.0884606
0.108422
0.124993
0.137935
0.147572
0.154371
0.158797
0.161377
0.162291
0.160569
0.159333
0.000708835
0.00158525
0.0157326
0.0373082
0.0608192
0.0826071
0.100993
0.115662
0.126913
0.135206
0.141005
0.144852
0.146992
0.146254
0.145541
-0.0315581
-0.0298447
-0.0148062
0.00807733
0.0332245
0.0567917
0.0769587
0.0933324
0.106179
0.115955
0.123113
0.128207
0.131598
0.131952
0.131452
-0.0634483
-0.0609206
-0.0450496
-0.0209397
0.00576986
0.0310594
0.0529662
0.0710127
0.0854308
0.0966697
0.105174
0.111479
0.116106
0.117805
0.116876
-0.094838
-0.0915271
-0.0748848
-0.0496396
-0.0214519
0.00549292
0.0290886
0.0487691
0.064727
0.0774052
0.0872417
0.0947164
0.100494
0.104178
0.10297
-0.125601
-0.121551
-0.104201
-0.0779206
-0.0483491
-0.0198263
0.00539861
0.0266666
0.0441265
0.0582127
0.0693658
0.0780058
0.0847971
0.0901248
0.0913821
-0.155638
-0.150863
-0.132892
-0.105684
-0.0748317
-0.0448181
-0.0180326
0.00476895
0.023687
0.0391434
0.051588
0.061403
0.0691771
0.0758057
0.0793696
-0.18497
-0.179278
-0.160855
-0.132832
-0.100812
-0.0694043
-0.0411355
-0.0168618
0.00346443
0.0202474
0.0339468
0.0449314
0.0537043
0.0613877
0.0666377
-0.213344
-0.206817
-0.188012
-0.159272
-0.126204
-0.0935092
-0.0638427
-0.0381655
-0.0164876
0.00157334
0.0164819
0.0286079
0.0383894
0.0470269
0.0535591
-0.240637
-0.233332
-0.2143
-0.184915
-0.150924
-0.117059
-0.086089
-0.0590843
-0.0361176
-0.0168326
-0.000765232
0.0124598
0.0232377
0.0327926
0.0404282
-0.266781
-0.258772
-0.239513
-0.209706
-0.17489
-0.139985
-0.107812
-0.0795624
-0.0553761
-0.034926
-0.0177537
-0.00347813
0.00826606
0.0186994
0.0273453
-0.291699
-0.283039
-0.263582
-0.233562
-0.19802
-0.162218
-0.12895
-0.0995463
-0.0742155
-0.0526643
-0.0344443
-0.0191698
-0.00649877
0.00476408
0.0143393
-0.315314
-0.306048
-0.286479
-0.25626
-0.220332
-0.183697
-0.149447
-0.118986
-0.0925906
-0.0700071
-0.0508002
-0.0345809
-0.0210262
-0.00898245
0.00144944
-0.337562
-0.327726
-0.308142
-0.277859
-0.241645
-0.204351
-0.169247
-0.137832
-0.110459
-0.0869156
-0.0667859
-0.0496786
-0.0352858
-0.0225067
-0.0112779
-0.358384
-0.348009
-0.328497
-0.298296
-0.261897
-0.224136
-0.188299
-0.156041
-0.127779
-0.103354
-0.0823682
-0.0644319
-0.0492495
-0.035779
-0.0238049
-0.377728
-0.366845
-0.347482
-0.317499
-0.281071
-0.242978
-0.206566
-0.173571
-0.144514
-0.119287
-0.0975157
-0.0788119
-0.0628907
-0.0487734
-0.0361025
-0.395552
-0.384192
-0.365048
-0.335412
-0.299119
-0.260848
-0.223993
-0.190382
-0.160631
-0.134685
-0.1122
-0.0927919
-0.0761855
-0.0614671
-0.0481459
-0.411823
-0.400019
-0.381161
-0.351992
-0.315991
-0.277703
-0.240546
-0.206442
-0.176097
-0.14952
-0.126394
-0.106348
-0.089112
-0.07384
-0.0599124
-0.426518
-0.414305
-0.395793
-0.367204
-0.33165
-0.293505
-0.256191
-0.22172
-0.190887
-0.163765
-0.140076
-0.119457
-0.101651
-0.0858754
-0.0713811
-0.439626
-0.427038
-0.408925
-0.381024
-0.346063
-0.308221
-0.270901
-0.236189
-0.204977
-0.177399
-0.153225
-0.132101
-0.113784
-0.0975616
-0.0825334
-0.451145
-0.43822
-0.420551
-0.393433
-0.359208
-0.321828
-0.284649
-0.249828
-0.218344
-0.190406
-0.165823
-0.144264
-0.125495
-0.108892
-0.0933553
-0.461086
-0.44786
-0.430674
-0.404425
-0.371069
-0.334304
-0.297418
-0.262617
-0.230973
-0.202767
-0.177857
-0.155933
-0.136766
-0.119859
-0.103851
-0.469469
-0.455982
-0.439308
-0.414003
-0.381638
-0.345638
-0.309191
-0.274544
-0.242851
-0.21447
-0.189315
-0.167097
-0.147596
-0.130428
-0.114072
-0.476326
-0.462618
-0.446478
-0.422177
-0.390916
-0.355822
-0.31996
-0.285597
-0.253967
-0.225507
-0.200185
-0.177747
-0.157965
-0.14052
-0.12418
-0.481699
-0.46781
-0.45222
-0.428971
-0.398911
-0.364855
-0.329719
-0.295771
-0.264317
-0.235871
-0.210463
-0.187876
-0.167884
-0.150226
-0.133936
-0.48564
-0.471612
-0.456579
-0.434416
-0.405641
-0.372745
-0.33847
-0.305064
-0.273898
-0.245561
-0.220146
-0.197479
-0.177347
-0.159517
-0.143113
-0.488208
-0.474087
-0.459611
-0.438554
-0.411131
-0.379505
-0.346218
-0.313481
-0.282711
-0.254576
-0.229232
-0.206551
-0.186337
-0.168374
-0.151802
-0.489475
-0.475304
-0.461381
-0.441436
-0.415415
-0.385154
-0.352976
-0.321026
-0.290762
-0.262921
-0.237724
-0.215093
-0.194852
-0.176809
-0.160119
-0.489515
-0.475342
-0.461961
-0.443123
-0.418537
-0.38972
-0.358759
-0.327711
-0.298058
-0.270601
-0.245629
-0.22311
-0.202897
-0.184831
-0.168098
-0.488414
-0.474284
-0.461433
-0.443681
-0.420547
-0.393237
-0.363589
-0.333551
-0.30461
-0.277626
-0.252953
-0.230613
-0.210483
-0.192445
-0.17573
-0.48626
-0.472222
-0.459883
-0.443188
-0.421504
-0.395745
-0.367494
-0.338565
-0.310434
-0.284009
-0.259709
-0.237609
-0.217618
-0.199655
-0.183006
-0.483145
-0.469248
-0.457402
-0.441725
-0.421472
-0.397291
-0.370504
-0.342776
-0.315545
-0.289763
-0.265907
-0.244109
-0.224311
-0.206467
-0.189929
-0.479168
-0.46546
-0.454087
-0.43938
-0.420525
-0.39793
-0.372659
-0.346208
-0.319965
-0.294906
-0.271563
-0.250126
-0.230572
-0.21289
-0.196507
-0.474425
-0.460955
-0.450035
-0.436247
-0.418739
-0.397719
-0.373998
-0.348893
-0.323716
-0.299455
-0.276692
-0.255673
-0.236413
-0.218934
-0.202746
-0.469016
-0.45583
-0.445345
-0.432418
-0.416199
-0.396723
-0.37457
-0.350863
-0.326822
-0.30343
-0.281312
-0.260765
-0.241847
-0.22461
-0.208655
-0.46304
-0.450184
-0.440116
-0.427992
-0.412991
-0.395013
-0.374426
-0.352154
-0.32931
-0.306854
-0.28544
-0.265419
-0.246889
-0.22993
-0.214243
-0.456592
-0.444109
-0.434444
-0.423064
-0.409202
-0.392662
-0.37362
-0.352807
-0.33121
-0.309749
-0.289097
-0.269651
-0.251553
-0.234906
-0.219519
-0.449766
-0.437698
-0.428422
-0.417729
-0.404923
-0.389746
-0.372212
-0.352865
-0.332553
-0.312138
-0.292302
-0.273478
-0.255854
-0.239553
-0.224494
-0.442651
-0.431035
-0.42214
-0.412078
-0.400244
-0.386345
-0.370265
-0.352373
-0.333371
-0.314048
-0.295076
-0.27692
-0.25981
-0.243885
-0.229181
-0.435332
-0.424201
-0.415679
-0.406199
-0.395253
-0.382538
-0.367844
-0.35138
-0.3337
-0.315505
-0.297441
-0.279995
-0.263435
-0.247917
-0.23359
-0.427888
-0.417271
-0.409117
-0.400174
-0.390032
-0.378406
-0.365017
-0.349938
-0.333577
-0.316535
-0.299418
-0.28272
-0.266747
-0.251663
-0.237736
-0.420392
-0.410313
-0.402524
-0.394077
-0.384663
-0.374027
-0.361853
-0.3481
-0.333041
-0.317166
-0.301028
-0.285114
-0.269762
-0.255139
-0.241631
-0.412908
-0.403387
-0.395963
-0.387978
-0.379219
-0.369476
-0.358419
-0.345923
-0.332134
-0.317429
-0.302294
-0.287196
-0.272497
-0.258361
-0.245289
-0.405496
-0.396547
-0.389487
-0.381936
-0.373767
-0.364823
-0.354783
-0.343462
-0.330897
-0.317353
-0.303237
-0.288982
-0.274967
-0.261342
-0.248725
-0.398207
-0.389838
-0.383143
-0.376002
-0.368367
-0.360135
-0.351012
-0.340776
-0.329375
-0.316969
-0.30388
-0.290492
-0.277187
-0.264097
-0.251954
-0.391086
-0.3833
-0.376971
-0.370221
-0.36307
-0.355471
-0.347166
-0.33792
-0.327614
-0.316312
-0.304246
-0.291741
-0.279172
-0.266641
-0.25499
-0.38417
-0.376966
-0.371003
-0.364628
-0.35792
-0.350883
-0.343303
-0.33495
-0.32566
-0.315414
-0.304358
-0.292746
-0.280936
-0.268986
-0.257849
-0.37749
-0.37086
-0.365262
-0.359251
-0.352952
-0.346414
-0.339474
-0.331918
-0.32356
-0.314312
-0.304241
-0.293524
-0.282493
-0.271144
-0.260549
-0.371071
-0.365003
-0.359768
-0.354111
-0.348192
-0.342101
-0.335724
-0.328874
-0.321358
-0.313042
-0.303921
-0.294092
-0.283855
-0.273127
-0.263108
-0.36493
-0.359409
-0.354534
-0.349222
-0.34366
-0.337973
-0.33209
-0.325862
-0.319099
-0.31164
-0.303422
-0.294467
-0.285036
-0.274944
-0.265546
-0.359082
-0.354088
-0.349566
-0.344591
-0.33937
-0.33405
-0.328604
-0.322919
-0.316824
-0.310143
-0.302773
-0.294665
-0.286047
-0.276603
-0.267886
-0.353534
-0.349044
-0.344868
-0.340224
-0.335327
-0.330346
-0.325289
-0.320078
-0.314569
-0.308586
-0.302002
-0.294705
-0.286901
-0.278112
-0.270153
-0.348291
-0.34428
-0.34044
-0.336118
-0.331535
-0.326869
-0.32216
-0.317366
-0.312368
-0.307004
-0.301135
-0.294604
-0.287608
-0.279474
-0.272374
-0.343352
-0.339792
-0.336277
-0.332269
-0.327989
-0.323621
-0.319229
-0.314801
-0.310248
-0.305426
-0.300202
-0.294381
-0.28818
-0.280689
-0.274579
-0.338714
-0.335576
-0.332374
-0.328671
-0.324685
-0.3206
-0.3165
-0.312397
-0.308231
-0.30388
-0.299227
-0.294053
-0.288628
-0.281755
-0.276796
-0.334371
-0.331625
-0.328721
-0.325315
-0.321613
-0.317801
-0.313973
-0.310161
-0.306333
-0.302389
-0.298236
-0.293638