/*--------------------------------*- C++ -*----------------------------------*\
  =========                 |
  \\      /  F ield         | OpenFOAM: The Open Source CFD Toolbox
   \\    /   O peration     | Website:  https://openfoam.org
    \\  /    A nd           | Version:  7
     \\/     M anipulation  |
\*---------------------------------------------------------------------------*/
FoamFile
{
    version     2.0;
    format      ascii;
    class       surfaceScalarField;
    location    "15";
    object      phi;
}
// * * * * * * * * * * * * * * * * * * * * * * * * * * * * * * * * * * * * * //

dimensions      [0 3 -1 0 0 0 0];

internalField   nonuniform List<scalar> 
37105
(
-2.11842e-07
2.11727e-07
1.15627e-10
-7.82431e-07
5.70273e-07
3.1603e-10
-1.67324e-06
8.90307e-07
4.97703e-10
-2.84713e-06
1.17323e-06
6.59793e-10
-4.26929e-06
1.42137e-06
8.02686e-10
-5.90852e-06
1.63829e-06
9.28198e-10
-7.73854e-06
1.82898e-06
1.03941e-09
-9.73975e-06
2.00007e-06
1.14041e-09
-1.19011e-05
2.16009e-06
1.23593e-09
-1.42221e-05
2.31971e-06
1.33074e-09
-1.67153e-05
2.49174e-06
1.42925e-09
-1.94077e-05
2.69092e-06
1.53513e-09
-2.23424e-05
2.93303e-06
1.65112e-09
-2.55761e-05
3.23191e-06
1.77897e-09
3.60238e-06
1.91918e-09
-2.91804e-05
-2.10493e-07
4.22219e-07
-7.77622e-07
1.1374e-06
-1.66305e-06
1.77574e-06
-2.8297e-06
2.33988e-06
-4.24264e-06
2.83431e-06
-5.8704e-06
3.26605e-06
-7.68629e-06
3.64487e-06
-9.67007e-06
3.98385e-06
-1.18099e-05
4.2999e-06
-1.41043e-05
4.61415e-06
-1.65647e-05
4.95214e-06
-1.92171e-05
5.34332e-06
-2.21035e-05
5.8194e-06
-2.52799e-05
6.40835e-06
7.13982e-06
-2.88174e-05
-2.07829e-07
6.30048e-07
-7.68115e-07
1.69769e-06
-1.64291e-06
2.65053e-06
-2.7952e-06
3.49217e-06
-4.18986e-06
4.22897e-06
-5.79488e-06
4.87107e-06
-7.58272e-06
5.43272e-06
-9.53194e-06
5.93307e-06
-1.16291e-05
6.39701e-06
-1.38707e-05
6.85581e-06
-1.6266e-05
7.34746e-06
-1.88388e-05
7.91612e-06
-2.16292e-05
8.60973e-06
-2.46918e-05
9.471e-06
1.05445e-05
-2.80965e-05
-2.03917e-07
8.33965e-07
-7.54132e-07
2.2479e-06
-1.61324e-06
3.50964e-06
-2.74434e-06
4.62327e-06
-4.11197e-06
5.5966e-06
-5.68337e-06
6.44247e-06
-7.42974e-06
7.17909e-06
-9.32783e-06
7.83116e-06
-1.13618e-05
8.43095e-06
-1.35253e-05
9.01933e-06
-1.58242e-05
9.64634e-06
-1.82789e-05
1.03708e-05
-2.09266e-05
1.12575e-05
-2.38203e-05
1.23647e-05
1.37523e-05
-2.70281e-05
-1.98857e-07
1.03282e-06
-7.35994e-07
2.78504e-06
-1.57469e-06
4.34833e-06
-2.67814e-06
5.72672e-06
-4.01048e-06
6.92894e-06
-5.53793e-06
7.96992e-06
-7.23007e-06
8.87123e-06
-9.06129e-06
9.66237e-06
-1.10126e-05
1.03822e-05
-1.30738e-05
1.10805e-05
-1.52463e-05
1.18188e-05
-1.75459e-05
1.26705e-05
-2.00061e-05
1.37177e-05
-2.26776e-05
1.50361e-05
1.67017e-05
-2.56269e-05
-1.92774e-07
1.2256e-06
-7.1411e-07
3.30638e-06
-1.52805e-06
5.16227e-06
-2.5979e-06
6.79657e-06
-3.88726e-06
8.21831e-06
-5.36116e-06
9.44382e-06
-6.98718e-06
1.04972e-05
-8.73684e-06
1.1412e-05
-1.05873e-05
1.22327e-05
-1.25236e-05
1.30168e-05
-1.45414e-05
1.38367e-05
-1.6651e-05
1.47801e-05
-1.8881e-05
1.59476e-05
-2.12792e-05
1.74343e-05
1.93338e-05
-2.39114e-05
-1.85814e-07
1.41141e-06
-6.88955e-07
3.80952e-06
-1.47426e-06
5.94758e-06
-2.50513e-06
7.82744e-06
-3.74453e-06
9.45771e-06
-5.15608e-06
1.08554e-05
-6.70509e-06
1.20463e-05
-8.35975e-06
1.30667e-05
-1.00927e-05
1.39657e-05
-1.18833e-05
1.48073e-05
-1.37204e-05
1.56738e-05
-1.56073e-05
1.6667e-05
-1.75666e-05
1.79069e-05
-1.96434e-05
1.95111e-05
2.1593e-05
-2.19025e-05
-1.78139e-07
1.58955e-06
-6.61055e-07
4.29243e-06
-1.41437e-06
6.7009e-06
-2.40151e-06
8.81457e-06
-3.5847e-06
1.06409e-05
-4.92601e-06
1.21967e-05
-6.3882e-06
1.35084e-05
-7.93577e-06
1.46143e-05
-9.53626e-06
1.55662e-05
-1.11623e-05
1.64334e-05
-1.27951e-05
1.73066e-05
-1.44293e-05
1.83012e-05
-1.60804e-05
1.95579e-05
-1.779e-05
2.12207e-05
2.3426e-05
-1.9623e-05
-1.69918e-07
1.75947e-06
-6.30964e-07
4.75348e-06
-1.34947e-06
7.4194e-06
-2.28877e-06
9.75388e-06
-3.41029e-06
1.17624e-05
-4.67438e-06
1.34608e-05
-6.04108e-06
1.48752e-05
-7.47086e-06
1.60441e-05
-8.92562e-06
1.70209e-05
-1.03706e-05
1.78784e-05
-1.1778e-05
1.8714e-05
-1.31323e-05
1.96556e-05
-1.44403e-05
2.08659e-05
-1.574e-05
2.25205e-05
2.47818e-05
-1.70958e-05
-1.61324e-07
1.92079e-06
-5.99238e-07
5.19139e-06
-1.28063e-06
8.10079e-06
-2.16865e-06
1.06419e-05
-3.22377e-06
1.28175e-05
-4.40457e-06
1.46416e-05
-5.66818e-06
1.61388e-05
-6.9708e-06
1.73467e-05
-8.26832e-06
1.83184e-05
-9.51787e-06
1.9128e-05
-1.06813e-05
1.98774e-05
-1.17316e-05
2.07058e-05
-1.26647e-05
2.1799e-05
-1.35143e-05
2.33701e-05
2.56106e-05
-1.4343e-05
-1.52523e-07
2.07331e-06
-5.66412e-07
5.60528e-06
-1.2089e-06
8.74327e-06
-2.04279e-06
1.14758e-05
-3.0275e-06
1.38023e-05
-4.1197e-06
1.57338e-05
-5.27357e-06
1.72926e-05
-6.44087e-06
1.8514e-05
-7.57116e-06
1.94487e-05
-8.61283e-06
2.01696e-05
-9.51634e-06
2.07809e-05
-1.02412e-05
2.14307e-05
-1.07704e-05
2.23282e-05
-1.11322e-05
2.37319e-05
2.58634e-05
-1.1385e-05
-1.43669e-07
2.21698e-06
-5.32983e-07
5.9946e-06
-1.13523e-06
9.34552e-06
-1.91267e-06
1.22532e-05
-2.82352e-06
1.47131e-05
-3.82246e-06
1.67327e-05
-4.86066e-06
1.83308e-05
-5.88539e-06
1.95387e-05
-6.83966e-06
2.0403e-05
-7.66267e-06
2.09926e-05
-8.29243e-06
2.14107e-05
-8.67306e-06
2.18113e-05
-8.77197e-06
2.24272e-05
-8.61046e-06
2.35703e-05
2.54931e-05
-8.24014e-06
-1.34899e-07
2.35188e-06
-4.99379e-07
6.35908e-06
-1.06044e-06
9.90658e-06
-1.77951e-06
1.29723e-05
-2.61346e-06
1.5547e-05
-3.51489e-06
1.76341e-05
-4.43192e-06
1.92479e-05
-5.30731e-06
2.04141e-05
-6.0775e-06
2.11732e-05
-6.67209e-06
2.15872e-05
-7.01569e-06
2.17543e-05
-7.03505e-06
2.18307e-05
-6.67879e-06
2.20709e-05
-5.96111e-06
2.28527e-05
2.4459e-05
-4.92703e-06
-1.26326e-07
2.47821e-06
-4.65951e-07
6.6987e-06
-9.85151e-07
1.04258e-05
-1.64423e-06
1.36314e-05
-2.39845e-06
1.63013e-05
-3.19824e-06
1.84339e-05
-3.9886e-06
2.00382e-05
-4.70786e-06
2.11334e-05
-5.28585e-06
2.17512e-05
-5.64243e-06
2.19438e-05
-5.68796e-06
2.17998e-05
-5.32954e-06
2.14723e-05
-4.49071e-06
2.12321e-05
-3.18171e-06
2.15437e-05
2.27715e-05
-1.49426e-06
-1.18039e-07
2.59625e-06
-4.32956e-07
7.01362e-06
-9.09806e-07
1.09026e-05
-1.50736e-06
1.42289e-05
-2.17901e-06
1.69729e-05
-2.87279e-06
1.91277e-05
-3.53053e-06
2.0696e-05
-4.08612e-06
2.16889e-05
-4.46291e-06
2.2128e-05
-4.57098e-06
2.20519e-05
-4.30593e-06
2.15347e-05
-3.55355e-06
2.07199e-05
-2.20057e-06
1.98791e-05
-1.48414e-07
1.94915e-05
2.03997e-05
2.22343e-06
-1.10094e-07
2.70634e-06
-4.00546e-07
7.30407e-06
-8.34608e-07
1.13367e-05
-1.36904e-06
1.47634e-05
-1.95498e-06
1.75589e-05
-2.53777e-06
1.97105e-05
-3.05591e-06
2.12141e-05
-3.43879e-06
2.20718e-05
-3.60336e-06
2.22925e-05
-3.45013e-06
2.18986e-05
-2.85977e-06
2.09444e-05
-1.6957e-06
1.95558e-05
1.72811e-07
1.80106e-05
2.84039e-06
1.68239e-05
1.70273e-05
6.21278e-06
-1.02522e-07
2.80886e-06
-3.68767e-07
7.57031e-06
-7.59524e-07
1.17274e-05
-1.22898e-06
1.52328e-05
-1.72549e-06
1.80554e-05
-2.19131e-06
2.01763e-05
-2.56124e-06
2.1584e-05
-2.75997e-06
2.22705e-05
-2.69804e-06
2.22306e-05
-2.26657e-06
2.14672e-05
-1.33156e-06
2.00094e-05
2.68407e-07
1.79558e-05
2.7075e-06
1.55715e-05
6.09996e-06
1.34315e-05
1.26993e-05
1.0428e-05
-9.53217e-08
2.90418e-06
-3.37556e-07
7.81255e-06
-6.84288e-07
1.20742e-05
-1.08644e-06
1.5635e-05
-1.48896e-06
1.84579e-05
-1.8304e-06
2.05178e-05
-2.04129e-06
2.17949e-05
-2.04115e-06
2.22704e-05
-1.73388e-06
2.19233e-05
-1.00127e-06
2.07346e-05
3.0491e-07
1.87032e-05
2.36957e-06
1.58912e-05
5.40616e-06
1.25349e-05
9.58732e-06
9.25032e-06
7.34146e-06
1.49452e-05
-8.84647e-08
2.99265e-06
-3.06745e-07
8.03083e-06
-6.084e-07
1.23758e-05
-9.40289e-07
1.59669e-05
-1.24315e-06
1.87607e-05
-1.45098e-06
2.07256e-05
-1.48919e-06
2.18331e-05
-1.27132e-06
2.20525e-05
-6.93987e-07
2.1346e-05
3.70486e-07
1.96701e-05
2.08393e-06
1.69898e-05
4.65372e-06
1.33214e-05
8.33277e-06
8.85584e-06
1.33574e-05
4.22572e-06
8.67114e-07
1.98317e-05
-8.18967e-08
3.07455e-06
-2.76071e-07
8.225e-06
-5.31144e-07
1.26309e-05
-7.88993e-07
1.62247e-05
-9.85161e-07
1.89569e-05
-1.04801e-06
2.07884e-05
-8.96614e-07
2.16817e-05
-4.37269e-07
2.15932e-05
4.41867e-07
2.04669e-05
1.8786e-06
1.82334e-05
4.04794e-06
1.48204e-05
7.17745e-06
1.01919e-05
1.15569e-05
4.47637e-06
1.74894e-05
-1.70674e-06
-6.81329e-06
2.51698e-05
-7.55394e-08
3.15009e-06
-2.45175e-07
8.39464e-06
-4.516e-07
1.28373e-05
-6.30666e-07
1.64038e-05
-7.11551e-07
1.90378e-05
-6.1562e-07
2.06925e-05
-2.54037e-07
2.13202e-05
4.75972e-07
2.08632e-05
1.69653e-06
1.92463e-05
3.55697e-06
1.63729e-05
6.24554e-06
1.21319e-05
1.00074e-05
6.43004e-06
1.51633e-05
-6.79601e-07
2.20816e-05
-8.62498e-06
-1.57863e-05
3.10546e-05
-6.92923e-08
3.21938e-06
-2.13614e-07
8.53896e-06
-3.68663e-07
1.29924e-05
-4.63099e-07
1.64982e-05
-4.18386e-07
1.89931e-05
-1.47263e-07
2.04214e-05
4.49003e-07
2.07239e-05
1.48459e-06
1.98276e-05
3.09448e-06
1.76364e-05
5.44183e-06
1.40256e-05
8.72905e-06
8.84463e-06
1.32164e-05
1.94273e-06
1.92469e-05
-6.71017e-06
2.72476e-05
-1.66256e-05
-2.61277e-05
3.7589e-05
-6.30328e-08
3.28241e-06
-1.80861e-07
8.65679e-06
-2.81047e-07
1.30926e-05
-2.83785e-07
1.6501e-05
-1.01297e-07
1.88106e-05
3.64162e-07
1.99559e-05
1.22359e-06
1.98645e-05
2.60543e-06
1.84458e-05
4.66076e-06
1.55811e-05
7.56983e-06
1.11165e-05
1.15512e-05
4.86323e-06
1.68784e-05
-3.38446e-06
2.39057e-05
-1.37374e-05
3.31089e-05
-2.58289e-05
-3.78934e-05
4.48746e-05
-5.66158e-08
3.33903e-06
-1.46304e-07
8.74648e-06
-1.87291e-07
1.31336e-05
-8.99287e-08
1.64036e-05
2.4444e-07
1.84762e-05
9.26197e-07
1.92742e-05
2.08121e-06
1.87094e-05
3.85545e-06
1.66715e-05
6.41994e-06
1.30166e-05
9.97603e-06
7.5604e-06
1.47616e-05
7.76979e-08
2.10626e-05
-9.68546e-06
2.92315e-05
-2.19063e-05
3.97837e-05
-3.63811e-05
-5.11087e-05
5.2999e-05
-4.98715e-08
3.3889e-06
-1.0924e-07
8.80585e-06
-8.57518e-08
1.31101e-05
1.21524e-07
1.61963e-05
6.23948e-07
1.79738e-05
1.54676e-06
1.83513e-05
3.03357e-06
1.72226e-05
5.25135e-06
1.44537e-05
8.39524e-06
9.87272e-06
1.26921e-05
3.2635e-06
1.84029e-05
-5.63308e-06
2.58267e-05
-1.71092e-05
3.53009e-05
-3.13806e-05
4.73726e-05
-4.84528e-05
-6.57543e-05
6.20182e-05
-4.26023e-08
3.4315e-06
-6.88704e-08
8.83211e-06
2.54429e-08
1.30158e-05
3.53944e-07
1.58678e-05
1.04271e-06
1.7285e-05
2.23414e-06
1.71599e-05
4.09248e-06
1.53643e-05
6.8093e-06
1.17369e-05
1.06079e-05
6.07411e-06
1.57452e-05
-1.87374e-06
2.25087e-05
-1.23966e-05
3.12117e-05
-2.58122e-05
4.21654e-05
-4.23343e-05
5.59423e-05
-6.22297e-05
-8.1751e-05
7.19391e-05
-3.458e-08
3.46608e-06
-2.42433e-08
8.82178e-06
1.48189e-07
1.28433e-05
6.11003e-07
1.5405e-05
1.50659e-06
1.63895e-05
2.99695e-06
1.56696e-05
5.26987e-06
1.30914e-05
8.54478e-06
8.46201e-06
1.30768e-05
1.54207e-06
1.91565e-05
-7.95339e-06
2.71011e-05
-2.03413e-05
3.72379e-05
-3.59489e-05
4.98442e-05
-5.49407e-05
6.55024e-05
-7.78879e-05
-9.89627e-05
8.27141e-05
-2.55589e-08
3.49164e-06
2.5491e-08
8.77073e-06
2.84861e-07
1.2584e-05
8.96703e-07
1.47932e-05
2.02184e-06
1.52643e-05
3.84418e-06
1.38472e-05
6.57765e-06
1.03579e-05
1.04724e-05
4.5673e-06
1.58179e-05
-3.80349e-06
2.29408e-05
-1.50763e-05
3.21899e-05
-2.95905e-05
4.39062e-05
-4.76652e-05
5.83322e-05
-6.93667e-05
7.59804e-05
-9.55361e-05
-0.000117249
9.42662e-05
-1.52496e-08
3.50689e-06
8.14938e-08
8.67398e-06
4.37868e-07
1.22276e-05
1.21535e-06
1.40157e-05
2.5951e-06
1.38846e-05
4.78509e-06
1.16572e-05
8.02763e-06
7.11536e-06
1.26054e-05
-1.0425e-08
1.88435e-05
-1.00416e-05
2.71043e-05
-2.33371e-05
3.77682e-05
-4.02544e-05
5.11956e-05
-6.10925e-05
6.76306e-05
-8.58017e-05
8.72876e-05
-0.000115193
-0.000136468
0.000106507
-3.31784e-09
3.51021e-06
1.45107e-07
8.52556e-06
6.09872e-07
1.17628e-05
1.5715e-06
1.30541e-05
3.23327e-06
1.22228e-05
5.82906e-06
9.06143e-06
9.63114e-06
3.31328e-06
1.49553e-05
-5.33462e-06
2.21608e-05
-1.72471e-05
3.16413e-05
-3.28176e-05
4.38021e-05
-5.24152e-05
5.90268e-05
-7.63172e-05
7.76642e-05
-0.000104439
9.9628e-05
-0.000137157
-0.000155987
0.000119147
1.07379e-08
3.49947e-06
2.17584e-07
8.31871e-06
8.03659e-07
1.11767e-05
1.96994e-06
1.18878e-05
3.9434e-06
1.02493e-05
6.98536e-06
6.01946e-06
1.13988e-05
-1.10012e-06
1.75314e-05
-1.14672e-05
2.57716e-05
-2.54873e-05
3.65337e-05
-4.35797e-05
5.02288e-05
-6.61103e-05
6.7225e-05
-9.33135e-05
8.79022e-05
-0.000125116
0.000112502
-0.000161757
-0.00019209
0.000148605
2.70421e-08
3.47243e-06
3.00258e-07
8.0455e-06
1.0221e-06
1.04549e-05
2.41545e-06
1.04944e-05
4.73243e-06
7.93237e-06
8.26272e-06
2.48917e-06
1.33395e-05
-6.17694e-06
2.03393e-05
-1.8467e-05
2.96713e-05
-3.48193e-05
4.17529e-05
-5.56613e-05
5.69696e-05
-8.1327e-05
7.56165e-05
-0.00011196
9.79858e-05
-0.000147486
0.000123918
-0.000187688
-0.000225074
0.000156902
4.61458e-08
3.42628e-06
3.94528e-07
7.69711e-06
1.26807e-06
9.58135e-06
2.91275e-06
8.84975e-06
5.60688e-06
5.23823e-06
9.66881e-06
-1.57276e-06
1.54603e-05
-1.19684e-05
2.33808e-05
-2.63876e-05
3.38483e-05
-4.52867e-05
4.72611e-05
-6.9074e-05
6.39428e-05
-9.80087e-05
8.40598e-05
-0.000132077
0.000107666
-0.000171092
0.000134236
-0.000214258
-0.000256214
0.000165376
6.84216e-08
3.35786e-06
5.01757e-07
7.26378e-06
1.54432e-06
8.53879e-06
3.46619e-06
6.92789e-06
6.5725e-06
2.13192e-06
1.12096e-05
-6.20984e-06
1.77644e-05
-1.85232e-05
2.66513e-05
-3.52745e-05
3.82812e-05
-5.69167e-05
5.30078e-05
-8.38006e-05
7.10559e-05
-0.000116057
9.24241e-05
-0.000153446
0.000116885
-0.000195553
0.00014368
-0.000241053
-0.000285817
0.000173283
9.42482e-08
3.26361e-06
6.23226e-07
6.7348e-06
1.85338e-06
7.30863e-06
4.07957e-06
4.7017e-06
7.63378e-06
-1.42229e-06
1.28886e-05
-1.14646e-05
2.02508e-05
-2.58854e-05
3.01388e-05
-4.51625e-05
4.29372e-05
-6.97151e-05
5.89269e-05
-9.97903e-05
7.81991e-05
-0.000135329
0.000100558
-0.000175805
0.000125499
-0.000220494
0.00015208
-0.000267634
-0.000313881
0.000180143
1.2398e-07
3.13963e-06
7.60094e-07
6.09869e-06
2.19743e-06
5.8713e-06
4.7559e-06
2.14323e-06
8.79359e-06
-5.45998e-06
1.47062e-05
-1.73772e-05
2.29129e-05
-3.40921e-05
3.3822e-05
-5.60716e-05
4.77698e-05
-8.36628e-05
6.49347e-05
-0.000116955
8.5244e-05
-0.000155638
0.000108294
-0.000198854
0.000133329
-0.000245529
0.000159283
-0.000293588
-0.000340276
0.000185679
1.57935e-07
2.98169e-06
9.13348e-07
5.34327e-06
2.57816e-06
4.20649e-06
5.49714e-06
-7.7575e-07
1.00527e-05
-1.00156e-05
1.6659e-05
-2.39834e-05
2.57376e-05
-4.31708e-05
3.76697e-05
-6.80037e-05
5.27184e-05
-9.87115e-05
7.09311e-05
-0.000135168
9.20489e-05
-0.000176756
0.000115459
-0.000222264
0.000140209
-0.000270278
0.000165171
-0.00031855
-0.00036485
0.000189745
1.96382e-07
2.78531e-06
1.08376e-06
4.4559e-06
2.99672e-06
2.29352e-06
6.30401e-06
-4.08303e-06
1.14096e-05
-1.51212e-05
1.87393e-05
-3.1313e-05
2.87048e-05
-5.31364e-05
4.16402e-05
-8.09391e-05
5.77095e-05
-0.000114781
7.6804e-05
-0.000154262
9.84668e-05
-0.000198419
0.000121895
-0.000245692
0.000146001
-0.000294385
0.000169672
-0.000342221
-0.000387485
0.000192307
2.39535e-07
2.54578e-06
1.27184e-06
3.42359e-06
3.45359e-06
1.11768e-07
7.17583e-06
-7.80527e-06
1.28599e-05
-2.08053e-05
2.09347e-05
-3.93878e-05
3.1787e-05
-6.39887e-05
4.56819e-05
-9.4834e-05
6.26588e-05
-0.000131758
8.24339e-05
-0.000174038
0.000104355
-0.000220341
0.000127464
-0.000268801
0.000150613
-0.000317534
0.000172768
-0.000364377
-0.00040813
0.000193414
2.87544e-07
2.25823e-06
1.47784e-06
2.2333e-06
3.94852e-06
-2.35891e-06
8.11039e-06
-1.19671e-05
1.43965e-05
-2.70915e-05
2.32281e-05
-4.82193e-05
3.49496e-05
-7.57103e-05
4.97342e-05
-0.000109619
6.74744e-05
-0.000149498
8.77016e-05
-0.000194265
0.000109587
-0.000242226
0.000132064
-0.000291277
0.000153998
-0.000339469
0.000174494
-0.000384872
-0.000426801
0.000193165
3.40496e-07
1.91774e-06
1.70171e-06
8.72084e-07
4.48049e-06
-5.13769e-06
9.1038e-06
-1.65904e-05
1.60092e-05
-3.39969e-05
2.55974e-05
-5.78075e-05
3.81515e-05
-8.82644e-05
5.373e-05
-0.000125197
7.20615e-05
-0.000167829
9.24947e-05
-0.000214698
0.000114056
-0.000263787
0.000135629
-0.000312851
0.000156159
-0.000359999
0.000174925
-0.000403638
-0.000443572
0.000191697
3.9841e-07
1.51933e-06
1.94307e-06
-6.72571e-07
5.04762e-06
-8.24225e-06
1.01505e-05
-2.16933e-05
1.76849e-05
-4.15312e-05
2.8016e-05
-6.81386e-05
4.13458e-05
-0.000101594
5.75977e-05
-0.000141449
7.63269e-05
-0.000186559
9.67145e-05
-0.000235086
0.000117686
-0.000284759
0.000138136
-0.0003333
0.000157139
-0.000379002
0.000174171
-0.00042067
-0.000458562
0.000189161
4.61233e-07
1.05809e-06
2.20122e-06
-2.41256e-06
5.64724e-06
-1.16883e-05
1.12432e-05
-2.72893e-05
1.94073e-05
-4.96953e-05
3.04534e-05
-7.91847e-05
4.44817e-05
-0.000115622
6.12648e-05
-0.000158232
8.01846e-05
-0.000205478
0.000100281
-0.000255182
0.000120431
-0.000304909
0.000139594
-0.000352464
0.000157011
-0.000396419
0.000172359
-0.000436018
-0.000471915
0.000185713
5.28836e-07
5.29258e-07
2.47512e-06
-4.35884e-06
6.27575e-06
-1.54889e-05
1.2373e-05
-3.33866e-05
2.11578e-05
-5.84801e-05
3.28753e-05
-9.09022e-05
4.75059e-05
-0.000130253
6.46608e-05
-0.000175387
8.35593e-05
-0.000224377
0.000103138
-0.000274762
0.000122277
-0.000324047
0.000140046
-0.000370233
0.000155874
-0.000412247
0.000169625
-0.00044977
-0.00048379
0.0001815
6.01013e-07
-7.17553e-08
2.76339e-06
-6.52122e-06
6.92871e-06
-1.96542e-05
1.35291e-05
-3.9987e-05
2.29149e-05
-6.78659e-05
3.52453e-05
-0.000103233
5.03649e-05
-0.000145373
6.77208e-05
-0.000192743
8.6391e-05
-0.000243047
0.000105252
-0.000293623
0.000123235
-0.00034203
0.000139558
-0.000386556
0.000153836
-0.000426524
0.000166103
-0.000462038
-0.000494345
0.000176658
6.77475e-07
-7.4923e-07
3.06427e-06
-8.90802e-06
7.60084e-06
-2.41908e-05
1.46995e-05
-4.70856e-05
2.46556e-05
-7.78221e-05
3.75256e-05
-0.000116103
5.30069e-05
-0.000160854
7.03885e-05
-0.000210125
8.86363e-05
-0.000261295
0.000106613
-0.0003116
0.000123343
-0.00035876
0.00013821
-0.000401423
0.000151011
-0.000439325
0.000161921
-0.000472948
-0.000503731
0.000171308
7.57846e-07
-1.50708e-06
3.37566e-06
-1.15258e-05
8.28599e-06
-2.91011e-05
1.58706e-05
-5.46702e-05
2.63552e-05
-8.83067e-05
3.96783e-05
-0.000129426
5.53843e-05
-0.00017656
7.26181e-05
-0.000227358
9.02698e-05
-0.000278946
0.000107232
-0.000328562
0.000122655
-0.000374183
0.000136095
-0.000414863
0.000147513
-0.000450743
0.000157195
-0.000482629
-0.000512087
0.00016555
8.41656e-07
-2.34873e-06
3.69509e-06
-1.43793e-05
8.9773e-06
-3.43833e-05
1.70279e-05
-6.27208e-05
2.79883e-05
-9.9267e-05
4.16667e-05
-0.000143104
5.74552e-05
-0.000192349
7.43765e-05
-0.00024428
9.12835e-05
-0.000295853
0.000107138
-0.000344417
0.000121237
-0.000388282
0.000133306
-0.000426932
0.000143447
-0.000460884
0.000152026
-0.000491209
-0.000519533
0.000159473
9.28346e-07
-3.27708e-06
4.01975e-06
-1.74707e-05
9.66723e-06
-4.00308e-05
1.81561e-05
-7.12097e-05
2.95294e-05
-0.00011064
4.34569e-05
-0.000157032
5.91855e-05
-0.000208077
7.56431e-05
-0.000260737
9.1685e-05
-0.000311895
0.000106374
-0.000359105
0.000119163
-0.000401071
0.000129936
-0.000437705
0.00013891
-0.000469858
0.000146504
-0.000498803
-0.000526176
0.000153147
1.01726e-06
-4.29434e-06
4.34653e-06
-2.07999e-05
1.03477e-05
-4.60319e-05
1.92394e-05
-8.01014e-05
3.09541e-05
-0.000122355
4.5019e-05
-0.000171096
6.05494e-05
-0.000223608
7.64103e-05
-0.000276598
9.14956e-05
-0.000326981
0.000104991
-0.000372601
0.000116509
-0.00041259
0.000126073
-0.000447268
0.000133988
-0.000477773
0.000140702
-0.000505518
-0.000532102
0.000146628
1.10766e-06
-5.402e-06
4.67204e-06
-2.43643e-05
1.10102e-05
-5.23701e-05
2.0262e-05
-8.93532e-05
3.22393e-05
-0.000134332
4.63276e-05
-0.000185185
6.153e-05
-0.00023881
7.6682e-05
-0.00029175
9.07469e-05
-0.000341046
0.000103049
-0.000384903
0.000113352
-0.000422893
0.000121797
-0.000455714
0.000128756
-0.000484731
0.000134683
-0.000511445
-0.000537383
0.000139964
1.19871e-06
-6.60071e-06
4.99266e-06
-2.81583e-05
1.16461e-05
-5.90236e-05
2.12088e-05
-9.89159e-05
3.33645e-05
-0.000146488
4.73633e-05
-0.000199183
6.21198e-05
-0.000253566
7.64722e-05
-0.000306103
8.94789e-05
-0.000354052
0.000100608
-0.000396032
0.000109763
-0.000432048
0.000117182
-0.000463133
0.000123278
-0.000490827
0.000128498
-0.000516665
-0.000542077
0.000133191
1.28953e-06
-7.89024e-06
5.30462e-06
-3.21734e-05
1.22468e-05
-6.59657e-05
2.20651e-05
-0.000108734
3.43119e-05
-0.000158735
4.81125e-05
-0.000212984
6.23192e-05
-0.000267773
7.58034e-05
-0.000319587
8.77362e-05
-0.000365985
9.7729e-05
-0.000406024
0.00010581
-0.000440129
0.000112292
-0.000469615
0.000117608
-0.000496143
0.000122187
-0.000521244
-0.000546228
0.000126338
1.37915e-06
-9.26939e-06
5.60409e-06
-3.63983e-05
1.28037e-05
-7.31654e-05
2.2818e-05
-0.000118749
3.50674e-05
-0.000170984
4.85676e-05
-0.000226484
6.21365e-05
-0.000281342
7.47045e-05
-0.000332155
8.55668e-05
-0.000376847
9.44722e-05
-0.00041493
0.000101555
-0.000447211
0.000107182
-0.000475242
0.000111791
-0.000500753
0.000115783
-0.000525236
-0.000549873
0.000119428
1.46658e-06
-1.0736e-05
5.88722e-06
-4.08189e-05
1.3309e-05
-8.05872e-05
2.3456e-05
-0.000128896
3.56204e-05
-0.000183149
4.87271e-05
-0.000239591
6.15863e-05
-0.000294201
7.32087e-05
-0.000343777
8.30192e-05
-0.000386658
9.08932e-05
-0.000422804
9.70523e-05
-0.00045337
0.000101899
-0.000480089
0.000105865
-0.000504718
0.000109314
-0.000528685
-0.000553038
0.000112479
1.5508e-06
-1.22868e-05
6.15024e-06
-4.54184e-05
1.37551e-05
-8.8192e-05
2.39694e-05
-0.00013911
3.59643e-05
-0.000195143
4.85947e-05
-0.000252221
6.06883e-05
-0.000306295
7.13524e-05
-0.000354441
8.0141e-05
-0.000395446
8.70437e-05
-0.000429706
9.2351e-05
-0.000458678
9.6485e-05
-0.000484223
9.98588e-05
-0.000508092
0.000102801
-0.000531628
-0.000555743
0.000105506
1.63078e-06
-1.39175e-05
6.38958e-06
-5.01772e-05
1.41356e-05
-9.5938e-05
2.4351e-05
-0.000149325
3.60964e-05
-0.000206889
4.81787e-05
-0.000264304
5.94661e-05
-0.000317582
6.91728e-05
-0.000364148
7.69781e-05
-0.000403252
8.29707e-05
-0.000435699
8.74929e-05
-0.0004632
9.09725e-05
-0.000487703
9.3798e-05
-0.000510917
9.62608e-05
-0.000534091
-0.000558003
9.85208e-05
1.70553e-06
-1.56231e-05
6.6019e-06
-5.50736e-05
1.44447e-05
-0.000103781
2.45954e-05
-0.000159476
3.60174e-05
-0.000218311
4.74917e-05
-0.000275778
5.7946e-05
-0.000328037
6.67077e-05
-0.00037291
7.35737e-05
-0.000410118
7.87164e-05
-0.000440842
8.25142e-05
-0.000466998
8.53898e-05
-0.000490579
8.77026e-05
-0.00051323
8.97074e-05
-0.000536095
-0.000559829
9.15331e-05
1.77408e-06
-1.73971e-05
6.78418e-06
-6.00837e-05
1.46781e-05
-0.000111675
2.47e-05
-0.000169498
3.57315e-05
-0.000229342
4.65493e-05
-0.000286596
5.61557e-05
-0.000337643
6.39935e-05
-0.000380747
6.99672e-05
-0.000416091
7.43178e-05
-0.000445192
7.74459e-05
-0.000470126
7.97604e-05
-0.000492893
8.15892e-05
-0.000515059
8.31523e-05
-0.000537658
-0.000561228
8.45517e-05
1.83551e-06
-1.92327e-05
6.93379e-06
-6.51819e-05
1.48322e-05
-0.000119573
2.46639e-05
-0.00017933
3.52455e-05
-0.000239924
4.53693e-05
-0.00029672
5.41238e-05
-0.000346397
6.10655e-05
-0.000387689
6.6195e-05
-0.000421221
6.98076e-05
-0.000448805
7.23142e-05
-0.000472632
7.41036e-05
-0.000494683
7.54712e-05
-0.000516426
7.66049e-05
-0.000538792
-0.000562207
7.75839e-05
1.88899e-06
-2.11216e-05
7.04856e-06
-7.03415e-05
1.49048e-05
-0.000127429
2.44886e-05
-0.000188913
3.4569e-05
-0.000250004
4.39714e-05
-0.000306122
5.18786e-05
-0.000354305
5.79564e-05
-0.000393767
6.22896e-05
-0.000425554
6.5214e-05
-0.000451729
6.71411e-05
-0.000474559
6.84353e-05
-0.000495977
6.93597e-05
-0.000517351
7.00735e-05
-0.000539506
-0.00056277
7.06362e-05
1.93378e-06
-2.30554e-05
7.12673e-06
-7.55345e-05
1.4895e-05
-0.000135198
2.41773e-05
-0.000198196
3.37131e-05
-0.00025954
4.2376e-05
-0.000314785
4.94477e-05
-0.000361376
5.46968e-05
-0.000399016
5.82799e-05
-0.000429137
6.05614e-05
-0.000454011
6.19453e-05
-0.000475943
6.27687e-05
-0.0004968
6.32642e-05
-0.000517846
6.35647e-05
-0.000539806
-0.00056292
6.37144e-05
1.96924e-06
-2.50247e-05
7.16709e-06
-8.07323e-05
1.48029e-05
-0.000142833
2.37351e-05
-0.000207128
3.26905e-05
-0.000268496
4.06039e-05
-0.000322698
4.68574e-05
-0.00036763
5.13144e-05
-0.000403473
5.41914e-05
-0.000432014
5.58707e-05
-0.00045569
5.67423e-05
-0.000476815
5.7115e-05
-0.000497173
5.71923e-05
-0.000517924
5.70847e-05
-0.000539699
-0.000562659
5.68239e-05
1.99483e-06
-2.70195e-05
7.16888e-06
-8.59064e-05
1.46294e-05
-0.000150294
2.3168e-05
-0.000215666
3.1515e-05
-0.000276843
3.8676e-05
-0.000329859
4.41327e-05
-0.000373087
4.78347e-05
-0.000407175
5.00466e-05
-0.000434226
5.11596e-05
-0.000456803
5.15452e-05
-0.0004772
5.14834e-05
-0.000497111
5.11508e-05
-0.000517591
5.06388e-05
-0.000539187
-0.00056199
4.99696e-05
2.01014e-06
-2.90296e-05
7.13183e-06
-9.10281e-05
1.43769e-05
-0.000157539
2.24836e-05
-0.000223773
3.02008e-05
-0.00028456
3.66123e-05
-0.000336271
4.12967e-05
-0.000377771
4.42801e-05
-0.000410158
4.5865e-05
-0.000435811
4.64434e-05
-0.000457381
4.63652e-05
-0.000477122
4.58818e-05
-0.000496628
4.51455e-05
-0.000516855
4.42317e-05
-0.000538273
-0.000560914
4.31562e-05
2.01489e-06
-3.10445e-05
7.05615e-06
-9.60693e-05
1.40482e-05
-0.000164531
2.16901e-05
-0.000231415
2.87624e-05
-0.000291632
3.44322e-05
-0.000341941
3.83706e-05
-0.000381709
4.06708e-05
-0.000412458
4.16634e-05
-0.000436804
4.1735e-05
-0.000457453
4.12115e-05
-0.000476599
4.03168e-05
-0.000495733
3.91817e-05
-0.00051572
3.78679e-05
-0.000536959
-0.000559434
3.63877e-05
2.00889e-06
-3.30534e-05
6.94247e-06
-0.000101003
1.36469e-05
-0.000171235
2.07962e-05
-0.000238564
2.72143e-05
-0.00029805
3.21542e-05
-0.000346881
3.5374e-05
-0.000384929
3.70248e-05
-0.000414109
3.74565e-05
-0.000437236
3.70453e-05
-0.000457042
3.60921e-05
-0.000475645
3.47944e-05
-0.000494435
3.32638e-05
-0.000514189
3.15515e-05
-0.000535247
-0.00055755
2.96675e-05
1.99211e-06
-3.50455e-05
6.7918e-06
-0.000105803
1.31773e-05
-0.000177621
1.98113e-05
-0.000245198
2.55705e-05
-0.000303809
2.97953e-05
-0.000351105
3.23245e-05
-0.000387459
3.33576e-05
-0.000415142
3.32569e-05
-0.000437135
3.23839e-05
-0.000456169
3.10138e-05
-0.000474275
2.93196e-05
-0.000492741
2.73956e-05
-0.000512265
2.5286e-05
-0.000533137
-0.000555264
2.29994e-05
1.9646e-06
-3.70101e-05
6.60552e-06
-0.000110444
1.2644e-05
-0.000183659
1.87445e-05
-0.000251299
2.38448e-05
-0.00030891
2.73715e-05
-0.000354632
2.92377e-05
-0.000389325
2.96831e-05
-0.000415588
2.90755e-05
-0.000436527
2.77589e-05
-0.000454852
2.59828e-05
-0.000472499
2.38971e-05
-0.000490655
2.15806e-05
-0.000509948
1.90733e-05
-0.00053063
-0.000552575
1.63847e-05
1.92653e-06
-3.89367e-05
6.38527e-06
-0.000114902
1.2052e-05
-0.000189326
1.76053e-05
-0.000256852
2.20499e-05
-0.000313354
2.48975e-05
-0.00035748
2.61278e-05
-0.000390555
2.60132e-05
-0.000415473
2.49215e-05
-0.000435435
2.31772e-05
-0.000453108
2.10047e-05
-0.000470327
1.85324e-05
-0.000488183
1.58252e-05
-0.000507241
1.29161e-05
-0.000527721
-0.00054947
9.81079e-06
1.87816e-06
-4.08148e-05
6.13298e-06
-0.000119157
1.14067e-05
-0.0001946
1.64028e-05
-0.000261848
2.01983e-05
-0.00031715
2.23865e-05
-0.000359668
2.30073e-05
-0.000391176
2.23584e-05
-0.000414824
2.08029e-05
-0.00043388
1.86447e-05
-0.00045095
1.60842e-05
-0.000467766
1.32308e-05
-0.00048533
1.01398e-05
-0.00050415
6.82638e-06
-0.000524407
-0.000545879
3.23618e-06
1.81984e-06
-4.26347e-05
5.85073e-06
-0.000123188
1.07131e-05
-0.000199462
1.5146e-05
-0.000266281
1.83013e-05
-0.000320305
1.98507e-05
-0.000361217
1.98873e-05
-0.000391212
1.87275e-05
-0.000413664
1.67266e-05
-0.000431879
1.41666e-05
-0.00044839
1.1225e-05
-0.000464825
7.99493e-06
-0.0004821
4.52831e-06
-0.000500684
8.60632e-07
-0.00052074
-0.000541854
-3.16469e-06
1.75199e-06
-4.43867e-05
5.54079e-06
-0.000126977
9.97681e-06
-0.000203898
1.38432e-05
-0.000270148
1.63693e-05
-0.000322831
1.73009e-05
-0.000362149
1.67774e-05
-0.000390689
1.51285e-05
-0.000412016
1.26984e-05
-0.000429449
9.74732e-06
-0.000445439
6.43116e-06
-0.000461508
2.82732e-06
-0.000478496
-1.02579e-06
-0.000496831
-5.11387e-06
-0.000516652
-0.000537545
-9.42247e-06
1.67511e-06
-4.60618e-05
5.20549e-06
-0.000130507
9.20294e-06
-0.000207896
1.25027e-05
-0.000273448
1.44123e-05
-0.000324741
1.47469e-05
-0.000362484
1.36861e-05
-0.000389628
1.1568e-05
-0.000409897
8.72328e-06
-0.000426604
5.39071e-06
-0.000442106
1.70571e-06
-0.000457823
-2.26715e-06
-0.000474523
-6.49493e-06
-0.000492603
-1.09721e-05
-0.000512175
-0.000532864
-1.56534e-05
1.58973e-06
-4.76515e-05
4.84726e-06
-0.000133765
8.39669e-06
-0.000211445
1.11321e-05
-0.000276183
1.24389e-05
-0.000326047
1.21973e-05
-0.000362242
1.06209e-05
-0.000388052
8.0517e-06
-0.000407328
4.80557e-06
-0.000423358
1.09957e-06
-0.0004384
-2.94758e-06
-0.000453776
-7.28584e-06
-0.000470185
-1.18911e-05
-0.000487998
-1.67471e-05
-0.000507319
-0.000527793
-2.18186e-05
1.49644e-06
-4.91479e-05
4.46852e-06
-0.000136737
7.56303e-06
-0.00021454
9.73836e-06
-0.000278358
1.04573e-05
-0.000326766
9.65981e-06
-0.000361444
7.58807e-06
-0.00038598
4.58456e-06
-0.000404325
9.48592e-07
-0.000419722
-3.12137e-06
-0.00043433
-7.52641e-06
-0.000449371
-1.22272e-05
-0.000465484
-1.72059e-05
-0.000483019
-2.2442e-05
-0.000502082
-0.000522331
-2.7904e-05
1.39587e-06
-5.05438e-05
4.07172e-06
-0.000139413
6.70674e-06
-0.000217175
8.32821e-06
-0.00027998
8.47481e-06
-0.000326913
7.14121e-06
-0.000360111
4.5933e-06
-0.000383432
1.17082e-06
-0.000400902
-2.84313e-06
-0.000415708
-7.27091e-06
-0.000429903
-1.20284e-05
-0.000444614
-1.70876e-05
-0.000460425
-2.24366e-05
-0.00047767
-2.80537e-05
-0.000496465
-0.000516481
-3.39036e-05
1.28867e-06
-5.18325e-05
3.65926e-06
-0.000141783
5.83237e-06
-0.000219348
6.90772e-06
-0.000281055
6.49793e-06
-0.000326503
4.64743e-06
-0.00035826
1.6414e-06
-0.000380426
-2.18568e-06
-0.000397075
-6.56808e-06
-0.000411326
-1.13465e-05
-0.000425124
-1.64511e-05
-0.000439509
-2.18641e-05
-0.000455012
-2.75801e-05
-0.000471954
-3.35778e-05
-0.000490468
-0.000510246
-3.98129e-05
1.17555e-06
-5.3008e-05
3.2335e-06
-0.000143841
4.94421e-06
-0.000221059
5.48256e-06
-0.000281593
4.53262e-06
-0.000325553
2.18368e-06
-0.000355911
-1.26337e-06
-0.000376979
-5.48203e-06
-0.000392857
-1.02236e-05