/*--------------------------------*- C++ -*----------------------------------*\
  =========                 |
  \\      /  F ield         | OpenFOAM: The Open Source CFD Toolbox
   \\    /   O peration     | Website:  https://openfoam.org
    \\  /    A nd           | Version:  7
     \\/     M anipulation  |
\*---------------------------------------------------------------------------*/
FoamFile
{
    version     2.0;
    format      ascii;
    class       volVectorField;
    location    "15";
    object      U;
}
// * * * * * * * * * * * * * * * * * * * * * * * * * * * * * * * * * * * * * //

dimensions      [0 1 -1 0 0 0 0];

internalField   nonuniform List<vector> 
18750
(
(-0.000476009 0.000453756 -8.52679e-20)
(-0.00299527 0.00113984 2.52395e-20)
(-0.00804064 0.00164648 1.71111e-19)
(-0.014531 0.00200668 2.94487e-20)
(-0.0220541 0.00224435 -4.33988e-20)
(-0.030247 0.00238288 -8.90172e-20)
(-0.0387986 0.00244488 6.71609e-20)
(-0.047479 0.00245201 3.63338e-20)
(-0.0561309 0.00242503 -2.44128e-20)
(-0.0646675 0.00238376 -5.71088e-20)
(-0.0730695 0.00234676 1.9518e-19)
(-0.0813825 0.00233075 -1.44237e-19)
(-0.0897197 0.00234934 7.96296e-20)
(-0.0981819 0.00241084 -1.39985e-19)
(-0.106862 0.00252236 3.30912e-20)
(-0.000520598 0.00135851 5.67878e-20)
(-0.00309782 0.00341328 4.49475e-20)
(-0.0081694 0.00493116 -5.55743e-21)
(-0.0146626 0.00601045 1.5016e-19)
(-0.0221684 0.00672262 2.54995e-19)
(-0.030326 0.00713749 2.76797e-19)
(-0.0388262 0.00732275 -1.88291e-19)
(-0.0474396 0.00734321 2.48552e-19)
(-0.0560092 0.00726105 2.03663e-19)
(-0.0644478 0.00713571 -4.35771e-20)
(-0.0727354 0.00702296 -2.02368e-19)
(-0.0809173 0.0069732 1.6385e-20)
(-0.0891078 0.00702757 4.32004e-20)
(-0.0974072 0.00721147 9.44371e-20)
(-0.1059 0.00754654 -1.31171e-19)
(-0.000609215 0.00225208 1.21375e-19)
(-0.00330183 0.00566037 1.13234e-19)
(-0.00842581 0.0081794 -3.57757e-19)
(-0.0149249 0.00997086 -1.4848e-20)
(-0.0223965 0.0111526 -5.00011e-19)
(-0.0304842 0.01184 1.20765e-19)
(-0.038882 0.0121451 -2.67379e-19)
(-0.0473622 0.0121751 -4.89222e-20)
(-0.0557678 0.0120335 -1.65042e-19)
(-0.0640111 0.0118189 3.91224e-19)
(-0.0720709 0.0116247 4.53078e-19)
(-0.0799914 0.0115354 3.53858e-19)
(-0.0878894 0.0116208 1.92458e-19)
(-0.0958644 0.0119246 1.23191e-19)
(-0.103985 0.0124843 -2.07869e-19)
(-0.000740737 0.00312728 -4.10855e-19)
(-0.00360509 0.00786414 4.3761e-19)
(-0.00880763 0.0113676 -2.74353e-19)
(-0.0153163 0.0138597 -4.56056e-19)
(-0.0227374 0.0155028 6.26725e-19)
(-0.0307215 0.0164564 -5.11971e-19)
(-0.0389672 0.0168754 5.95984e-19)
(-0.0472491 0.016909 -4.26345e-19)
(-0.0554107 0.0167006 2.42678e-19)
(-0.063363 0.0163882 -5.5121e-19)
(-0.0710831 0.0161029 -6.94792e-19)
(-0.0786137 0.0159644 3.08243e-20)
(-0.0860749 0.0160727 -1.16572e-19)
(-0.093566 0.0164924 -2.24722e-19)
(-0.101132 0.017279 7.6945e-19)
(-0.00091353 0.0039774 -2.09409e-19)
(-0.00400438 0.0100085 4.71331e-19)
(-0.00931152 0.0144733 1.52036e-19)
(-0.0158338 0.01765 4.08648e-19)
(-0.0231894 0.0197429 -3.71131e-19)
(-0.0310376 0.0209537 1.45234e-19)
(-0.0390831 0.0214787 1.31964e-18)
(-0.0471037 0.0215071 1.55294e-19)
(-0.0549433 0.0212219 2.41609e-19)
(-0.0625113 0.0207997 -6.49632e-20)
(-0.0697821 0.0204095 8.48726e-20)
(-0.0767966 0.020208 -1.68311e-20)
(-0.0836793 0.0203276 -6.00817e-19)
(-0.0905301 0.0208574 -3.18189e-19)
(-0.0973616 0.0218746 -8.7759e-19)
(-0.00112551 0.00479629 4.98894e-19)
(-0.00449553 0.0120785 1.28131e-20)
(-0.00993311 0.0174754 -2.10718e-19)
(-0.016474 0.0213161 -1.38129e-19)
(-0.0237503 0.023844 5.7967e-20)
(-0.031432 0.0253004 -1.29666e-18)
(-0.0392314 0.025921 -1.68791e-19)
(-0.0469298 0.0259333 7.70943e-20)
(-0.0543719 0.0255584 -3.87581e-19)
(-0.0614651 0.0250108 -4.70156e-19)
(-0.0681802 0.0244979 3.04904e-19)
(-0.0745553 0.024215 -2.79416e-19)
(-0.0807205 0.0243304 7.82346e-19)
(-0.0867783 0.0249627 -5.63811e-19)
(-0.0927003 0.0262166 1.19359e-18)
(-0.00137421 0.00557851 -3.3966e-19)
(-0.00507356 0.0140607 -6.90388e-19)
(-0.010667 0.0203545 2.006e-19)
(-0.0172321 0.0248342 1.4248e-18)
(-0.0244168 0.0277791 1.21879e-18)
(-0.0319033 0.029467 -3.26243e-19)
(-0.0394127 0.0301705 1.46434e-19)
(-0.046731 0.0301535 6.84913e-20)
(-0.0537032 0.0296732 7.59364e-19)
(-0.0602342 0.0289812 9.62186e-19)
(-0.0662906 0.0283236 -4.49856e-19)
(-0.0719065 0.0279361 -7.56206e-19)
(-0.0772182 0.0280274 -1.30263e-18)
(-0.0823341 0.0287523 2.05057e-19)
(-0.0871741 0.0302517 -1.43667e-18)
(-0.00165686 0.00631941 -2.07595e-19)
(-0.00573277 0.0159433 -2.87201e-19)
(-0.0115071 0.0230932 -2.07883e-18)
(-0.0181026 0.0281827 6.0554e-19)
(-0.0251846 0.0315232 -7.98423e-19)
(-0.0324491 0.033426 4.13273e-19)
(-0.039627 0.0341977 3.26463e-19)
(-0.0465096 0.034136 -1.49891e-18)
(-0.0529426 0.0335322 -8.81754e-19)
(-0.0588278 0.0326735 -1.33944e-18)
(-0.0641262 0.0318447 -2.3835e-19)
(-0.0688664 0.0313243 8.03877e-19)
(-0.0731914 0.0313664 2.90772e-18)
(-0.0772205 0.0321711 -4.07553e-19)
(-0.0808075 0.0339273 7.16774e-19)
(-0.0019705 0.00701522 1.17893e-18)
(-0.00646689 0.0177163 5.11764e-19)
(-0.012446 0.0256763 2.20098e-18)
(-0.0190785 0.0313423 -1.49536e-18)
(-0.026048 0.0350538 5.79851e-19)
(-0.0330653 0.0371524 -8.52491e-19)
(-0.0398724 0.0379756 -1.71983e-18)
(-0.0462664 0.0378519 1.43984e-18)
(-0.0520938 0.0371043 1.4009e-19)
(-0.0572527 0.0360537 1.94504e-18)
(-0.0616972 0.0350228 -5.8423e-19)
(-0.0654487 0.0343357 -2.36773e-18)
(-0.0686564 0.0342977 -1.35385e-18)
(-0.0714573 0.0351654 1.30443e-19)
(-0.0736187 0.0371917 -5.86684e-19)
(-0.00231203 0.00766305 -8.88219e-19)
(-0.00726919 0.0193713 -5.70088e-19)
(-0.013476 0.0280909 5.84906e-19)
(-0.0201519 0.0342962 9.02775e-20)
(-0.0269996 0.0383511 -2.18467e-19)
(-0.0337457 0.0406241 -2.24524e-19)
(-0.0401443 0.0414802 8.05344e-19)
(-0.0459988 0.0412758 -7.94886e-19)
(-0.0511567 0.0403623 7.28052e-19)
(-0.0555117 0.0390918 7.91247e-19)
(-0.0590095 0.0378243 -1.34129e-18)
(-0.0616619 0.0369307 2.38177e-18)
(-0.0636231 0.0367751 2.64795e-19)
(-0.0650576 0.0376834 3.05938e-19)
(-0.0656158 0.0399933 6.91952e-19)
(-0.0026783 0.00826087 1.46364e-18)
(-0.00813262 0.020902 -5.15155e-19)
(-0.0145882 0.0303264 -2.3162e-18)
(-0.0213134 0.0370299 8.03288e-19)
(-0.0280302 0.0413977 -4.60309e-19)
(-0.0344817 0.0438215 5.12452e-19)
(-0.0404346 0.0446907 3.1614e-18)
(-0.0456999 0.0443858 1.33532e-18)
(-0.0501258 0.0432834 8.10014e-19)
(-0.0536011 0.0417634 -2.56729e-18)
(-0.0560616 0.0402211 2.56564e-18)
(-0.057506 0.0390757 8.26969e-19)
(-0.0580912 0.0387573 -1.29569e-18)
(-0.0580241 0.0396762 1.51863e-18)
(-0.056791 0.0422798 -3.6287e-20)
(-0.00306621 0.00880751 1.88855e-19)
(-0.00904989 0.0223038 1.01212e-19)
(-0.015773 0.0323744 -8.03393e-20)
(-0.0225521 0.0395318 -1.40891e-18)
(-0.0291281 0.044179 2.62407e-18)
(-0.0352609 0.0467282 -1.24989e-18)
(-0.040731 0.0475895 -3.3108e-18)
(-0.0453569 0.0471641 8.38992e-19)
(-0.0489885 0.0458495 -1.32405e-18)
(-0.0515084 0.0440498 1.89043e-18)
(-0.0528411 0.0421922 -3.1464e-18)
(-0.0529684 0.0407448 2.17902e-19)
(-0.0520453 0.0402115 1.14374e-18)
(-0.0503447 0.0411024 -2.2614e-18)
(-0.047116 0.0440011 -5.10608e-19)
(-0.00347276 0.00930252 -8.78634e-19)
(-0.0100135 0.0235737 2.77152e-19)
(-0.0170203 0.0342287 8.08528e-19)
(-0.0238556 0.0417924 -1.78706e-20)
(-0.0302788 0.0466832 -3.40036e-18)
(-0.0360671 0.0493305 3.36355e-19)
(-0.0410151 0.0501625 1.06237e-18)
(-0.0449498 0.049597 -2.62953e-18)
(-0.0477224 0.0480481 1.71661e-18)
(-0.0492093 0.0459391 -1.47533e-18)
(-0.0493212 0.0437251 3.75806e-18)
(-0.0480188 0.0419217 -1.51319e-18)
(-0.0454479 0.0411156 1.64005e-18)
(-0.0419864 0.0419335 3.1547e-18)
(-0.036543 0.0451348 1.28122e-18)
(-0.00389506 0.00974615 -3.13534e-19)
(-0.011016 0.0247103 1.49578e-20)
(-0.0183188 0.0358849 -5.53803e-20)
(-0.0252094 0.0438044 -9.25135e-20)
(-0.0314648 0.0489005 -1.51361e-18)
(-0.0368793 0.0516177 -6.02333e-19)
(-0.0412622 0.0523989 9.82166e-19)
(-0.0444494 0.0516749 5.16286e-19)
(-0.0462936 0.049872 -3.00664e-18)
(-0.0466643 0.047427 -1.72092e-19)
(-0.0454563 0.0448167 -7.37968e-19)
(-0.0426035 0.0426016 1.40357e-18)
(-0.0382286 0.0414559 -1.81956e-18)
(-0.0328661 0.0421365 -2.15388e-19)
(-0.0250141 0.0457417 -1.44029e-18)
(-0.00433041 0.0101392 1.34653e-18)
(-0.0120495 0.0257132 -1.26694e-18)
(-0.0196564 0.0373403 -1.758e-18)
(-0.026597 0.0455626 3.00936e-18)
(-0.0326649 0.0508237 2.56317e-18)
(-0.0376711 0.0535815 3.06842e-18)
(-0.0414397 0.0542908 9.9601e-20)
(-0.0438159 0.0533925 1.757e-18)
(-0.0446542 0.0513198 2.23369e-18)
(-0.0438161 0.0485171 3.07421e-18)
(-0.0411787 0.0454752 -1.29491e-18)
(-0.0366435 0.0427923 2.57497e-18)
(-0.0302875 0.0412225 -4.58981e-20)
(-0.0227838 0.0416231 -1.18889e-18)
(-0.0123919 0.0458743 -2.74362e-18)
(-0.00477627 0.0104828 -8.23493e-19)
(-0.0131065 0.026583 1.41781e-18)
(-0.0210201 0.0385936 9.28406e-19)
(-0.0279997 0.0470633 -2.7893e-18)
(-0.0338538 0.0524474 -1.25225e-18)
(-0.0384097 0.0552157 -2.08937e-19)
(-0.041506 0.0558335 -1.44776e-18)
(-0.0429972 0.0547481 -2.33933e-18)
(-0.0427395 0.0523957 -3.66794e-18)
(-0.0405861 0.0492215 -1.46454e-18)
(-0.0363938 0.0457213 1.92615e-18)
(-0.0300321 0.04252 -3.81871e-18)
(-0.0215398 0.0404434 1.34542e-19)
(-0.011549 0.0404739 2.14233e-18)
(0.00168486 0.0453589 2.92407e-18)
(-0.00523025 0.0107784 -1.94816e-18)
(-0.0141788 0.0273212 1.63701e-18)
(-0.0223957 0.0396445 -2.84755e-18)
(-0.029396 0.0483043 -1.30474e-18)
(-0.0350018 0.0537676 -4.40163e-20)
(-0.0390555 0.0565163 1.65188e-18)
(-0.0414098 0.0570242 2.42647e-18)
(-0.0419278 0.0557434 7.03011e-19)
(-0.0404668 0.0531089 9.73224e-19)
(-0.0368709 0.0495604 -2.78858e-18)
(-0.0309744 0.0455891 6.46999e-20)
(-0.0226082 0.0418336 -1.81874e-18)
(-0.0117834 0.0391835 -1.28283e-18)
(0.000929698 0.0388012 -3.46567e-18)
(0.017489 0.0440753 -4.30181e-20)
(-0.0056901 0.0110278 1.71864e-18)
(-0.0152583 0.0279297 2.82617e-19)
(-0.0237677 0.0404936 4.58455e-19)
(-0.0307619 0.0492841 3.28697e-18)
(-0.0360745 0.0547817 1.33621e-18)
(-0.0395619 0.0574803 -1.48512e-18)
(-0.0410892 0.0578623 1.14245e-18)
(-0.0405271 0.0563826 -5.99214e-19)
(-0.037733 0.0534725 -1.10231e-18)
(-0.0325406 0.0495607 1.21614e-18)
(-0.0247602 0.0451236 -3.80104e-18)
(-0.0141782 0.0407963 -1.58081e-19)
(-0.000763857 0.0375089 -1.88026e-18)
(0.0149189 0.0366162 2.78555e-18)
(0.0352805 0.0421771 2.81887e-19)
(-0.00615369 0.0112325 -6.55233e-19)
(-0.0163365 0.0284104 -1.9704e-18)
(-0.0251192 0.0411416 5.11083e-19)
(-0.0320702 0.0500021 -3.74855e-18)
(-0.0370324 0.0554878 -2.45027e-18)
(-0.0398741 0.0581061 -1.32196e-18)
(-0.040471 0.0583482 -2.11551e-18)
(-0.0386992 0.0566718 1.99749e-18)
(-0.034414 0.0535027 2.55231e-18)
(-0.0274369 0.049255 4.65956e-18)
(-0.0175532 0.0443813 -1.84389e-19)
(-0.00450218 0.0394951 4.60019e-18)
(0.0118043 0.0355392 1.67478e-18)
(0.0307612 0.0340088 1.24167e-18)
(0.05544 0.0398127 -2.64336e-18)
(-0.00661888 0.0113941 1.13311e-18)
(-0.0174043 0.0287653 2.99542e-18)
(-0.0264316 0.0415897 2.06641e-18)
(-0.0332903 0.050458 2.6045e-18)
(-0.0378304 0.0558848 -3.38481e-20)
(-0.0399293 0.0583927 8.99727e-19)
(-0.0394705 0.0584834 6.65496e-20)
(-0.036332 0.056618 -1.41506e-18)
(-0.0303639 0.0532175 2.20583e-18)
(-0.0213729 0.0486794 -7.21094e-18)
(-0.009118 0.0434262 1.91733e-18)
(0.00670925 0.0380337 -1.21756e-18)
(0.0262644 0.033426 2.07134e-19)
(0.0488526 0.0311537 -1.59044e-18)
(0.0784393 0.037164 -1.70318e-18)
(-0.00708353 0.0115142 -1.85105e-18)
(-0.018452 0.0289962 2.66906e-18)
(-0.0276845 0.0418389 -6.36701e-19)
(-0.0343883 0.0506517 -1.11479e-18)
(-0.0384177 0.0559718 2.23496e-18)
(-0.0396562 0.0583398 1.62223e-19)
(-0.0379911 0.0582698 -6.18421e-19)
(-0.0332978 0.0562289 -7.07341e-20)
(-0.0254162 0.0526351 -1.39251e-18)
(-0.014134 0.0478709 3.45402e-18)
(0.000816758 0.0423264 2.01479e-18)
(0.0197909 0.0365269 1.05907e-18)
(0.0430164 0.0313474 -8.34385e-20)
(0.0696491 0.0282806 2.12869e-18)
(0.104807 0.0344958 -1.79408e-19)
(-0.00754538 0.0115938 5.45433e-19)
(-0.0194691 0.0291045 -5.96378e-19)
(-0.0288553 0.04189 5.3206e-19)
(-0.0353263 0.0505835 2.08037e-18)
(-0.0387376 0.0557486 -1.29866e-18)
(-0.0389751 0.0579476 -8.34339e-19)
(-0.0359247 0.0577101 -1.36823e-18)
(-0.0294532 0.0555122 1.05316e-18)
(-0.0193841 0.0517732 -1.01669e-18)
(-0.0054809 0.0468655 -1.17698e-18)
(0.0125533 0.041149 -1.73508e-18)
(0.0351154 0.0350932 -9.51878e-19)
(0.0625041 0.0294988 3.31116e-18)
(0.0936572 0.0256613 -4.28237e-18)
(0.135094 0.0321721 -9.11234e-20)
(-0.00800199 0.011634 2.36561e-18)
(-0.0204439 0.0290913 -9.62831e-19)
(-0.029919 0.0417436 -2.58889e-18)
(-0.0360621 0.0502534 -6.50215e-19)
(-0.0387269 0.0552156 3.42512e-18)
(-0.0377973 0.0572175 -1.33008e-19)
(-0.0331514 0.0568079 1.4855e-18)
(-0.0246403 0.0544764 -8.14218e-19)
(-0.0120632 0.0506494 -2.80323e-18)
(0.00484703 0.0456966 6.108e-18)
(0.0264178 0.0399562 -4.27099e-18)
(0.0530822 0.0338454 1.17412e-18)
(0.0851954 0.0280782 -4.78299e-18)
(0.121414 0.0235933 1.67733e-18)
(0.169826 0.030654 1.29252e-18)
(-0.0084506 0.0116353 -8.2823e-19)
(-0.0213634 0.028957 -2.98369e-18)
(-0.0308478 0.0414003 1.40745e-18)
(-0.036549 0.0496623 2.59134e-19)
(-0.038316 0.0543742 -3.13732e-18)
(-0.0360251 0.0561524 1.8766e-18)
(-0.02954 0.0555689 9.22188e-20)
(-0.0186875 0.0531318 -4.90907e-19)
(-0.00323346 0.0492814 -3.14213e-18)
(0.0171267 0.0443956 -3.50238e-19)
(0.0427521 0.0388033 3.46161e-18)
(0.074103 0.0328844 3.16198e-19)
(0.111558 0.0272682 7.41087e-19)
(0.153462 0.0223776 1.99928e-18)
(0.209431 0.0304812 -4.6065e-18)
(-0.00888803 0.0115979 -1.30144e-18)
(-0.022213 0.0287015 7.75508e-21)
(-0.0316105 0.0408603 -1.74764e-18)
(-0.0367353 0.0488114 1.43725e-18)
(-0.0374278 0.0532274 1.81174e-18)
(-0.0335516 0.0547579 -1.31533e-18)
(-0.024948 0.0540023 -1.91451e-19)
(-0.0114103 0.0514923 -9.99563e-19)
(0.00733806 0.0476902 2.27698e-18)
(0.0316458 0.0429935 5.10739e-19)
(0.061903 0.0377393 -5.23708e-18)
(0.0985859 0.0322944 1.4666e-18)
(0.142033 0.0272196 7.5438e-19)
(0.190328 0.022292 -3.31695e-18)
(0.254154 0.0322168 5.59389e-19)
(-0.00931055 0.0115217 3.09589e-19)
(-0.0229761 0.0283243 8.67098e-19)
(-0.0321724 0.040124 1.74971e-18)
(-0.0365636 0.0477032 -1.41485e-18)
(-0.0359781 0.0517805 9.07202e-21)
(-0.0302605 0.0530433 3.40613e-18)
(-0.0192219 0.0521222 -8.72687e-20)
(-0.00261266 0.0495779 1.8821e-20)
(0.0198945 0.0459027 3.9567e-18)
(0.0486974 0.0415257 -2.18787e-18)
(0.0842121 0.0368107 1.29762e-18)
(0.126917 0.0321461 -3.67803e-18)
(0.177002 0.0280401 2.87266e-19)
(0.232493 0.0235709 -8.86454e-19)
(0.303975 0.036356 1.33471e-18)
(-0.00971372 0.0114062 -2.1005e-19)
(-0.0236337 0.0278242 1.14853e-18)
(-0.0324948 0.0391924 -1.48387e-18)
(-0.0359706 0.0463416 3.27588e-18)
(-0.0338744 0.0500421 -2.6006e-18)
(-0.0260257 0.051023 -2.2376e-18)
(-0.0121974 0.04995 -1.41713e-18)
(0.0079115 0.047418 -2.88632e-18)
(0.0346857 0.0439558 -5.15341e-18)
(0.0685733 0.0400361 5.92732e-19)
(0.110005 0.0360673 3.5214e-18)
(0.159442 0.0325039 2.61713e-18)
(0.216751 0.0297928 3.22391e-19)
(0.280335 0.0264347 -1.89602e-18)
(0.358454 0.0433178 -8.03345e-19)
(-0.0100923 0.0112503 5.80028e-19)
(-0.0241642 0.0272001 1.10098e-18)
(-0.0325342 0.0380665 -4.76584e-18)
(-0.0348866 0.0447322 -3.28618e-18)
(-0.0310161 0.0480245 -1.03344e-19)
(-0.0207116 0.0487176 2.50812e-18)
(-0.00370035 0.0475161 -8.63507e-19)
(0.0203766 0.0450532 6.41084e-18)
(0.0519643 0.0419005 2.29271e-19)
(0.0915566 0.0385825 -3.34564e-18)
(0.139579 0.0355678 -2.79664e-18)
(0.196452 0.0334282 -4.08531e-18)
(0.26148 0.0324932 4.41104e-18)
(0.334054 0.031221 2.61095e-18)
(0.416355 0.0537025 -8.50242e-20)
(-0.0104399 0.0110529 -1.60343e-18)
(-0.0245429 0.0264505 -3.23718e-18)
(-0.0322421 0.0367482 2.39548e-18)
(-0.0332349 0.0428835 2.98497e-18)
(-0.0272944 0.0457449 1.84396e-18)
(-0.0141734 0.0461554 -1.72681e-18)
(0.00645204 0.0448617 4.51072e-18)
(0.0350019 0.0425388 -6.05328e-18)
(0.0719787 0.0398045 6.40047e-18)
(0.117909 0.0372394 3.81907e-18)
(0.173187 0.0353793 -1.21229e-18)
(0.23817 0.0349569 -1.52493e-18)
(0.311389 0.0360723 -1.82921e-18)
(0.393885 0.0384529 -3.26235e-18)
(0.475735 0.0679839 3.66811e-18)
(-0.010749 0.0108122 4.62149e-18)
(-0.0247419 0.0255736 3.84599e-18)
(-0.0315646 0.0352405 9.10866e-19)
(-0.0309318 0.0408066 -4.33734e-20)
(-0.0225919 0.0432259 -6.22297e-19)
(-0.00625765 0.0433733 -7.76407e-19)
(0.018449 0.0420404 -3.56996e-18)
(0.052007 0.0399462 6.04025e-18)
(0.0949643 0.0377555 -4.57386e-18)
(0.147854 0.0361018 6.40043e-20)
(0.210996 0.0355772 3.92985e-18)
(0.28466 0.0370805 2.53703e-18)
(0.366634 0.0403417 2.3679e-18)
(0.460488 0.0483366 2.40835e-20)
(0.537281 0.0828669 -2.42221e-18)
(-0.0110103 0.010526 -2.79244e-18)
(-0.0247292 0.0245677 -3.13534e-18)
(-0.0304424 0.033548 1.0369e-18)
(-0.0278865 0.0385165 -1.68915e-18)
(-0.0167836 0.0404963 -7.65364e-19)
(0.00319586 0.0404174 2.79818e-18)
(0.0324831 0.0391188 -7.58689e-19)
(0.0716061 0.0373644 -5.99131e-19)
(0.121133 0.0358628 -2.13646e-18)
(0.181556 0.03529 -4.5377e-18)
(0.253045 0.036261 2.04359e-18)
(0.335691 0.0397831 -2.25062e-18)
(0.42672 0.0450785 -3.00616e-18)
(0.532916 0.0594594 -1.20952e-18)
(0.609445 0.0873201 4.46015e-18)
(-0.0112131 0.0101921 3.20979e-18)
(-0.0244689 0.0234316 -2.73961e-18)
(-0.0288105 0.0316771 -4.62137e-18)
(-0.0240018 0.0360318 4.65928e-19)
(-0.00973811 0.0375913 1.17795e-18)
(0.014352 0.0373437 -7.68493e-19)
(0.0487457 0.0361768 2.25056e-18)
(0.0940003 0.0348994 5.89013e-19)
(0.150661 0.0342579 -5.93622e-19)
(0.219107 0.0349535 -2.49512e-19)
(0.299245 0.0375805 -2.19851e-18)
(0.390795 0.0431622 1.79237e-19)
(0.490372 0.0502112 9.38728e-19)
(0.604602 0.0674615 -6.75207e-19)
(0.691077 0.0804766 5.04151e-18)
(-0.0113451 0.00980822 6.91965e-19)
(-0.0239209 0.0221646 -1.60842e-18)
(-0.0265982 0.0296361 4.53325e-18)
(-0.0191741 0.0333754 3.59101e-18)
(-0.00131861 0.0345532 -3.64002e-18)
(0.027377 0.0342179 -2.16717e-19)
(0.0674218 0.0333073 -1.70918e-18)
(0.119369 0.0326731 -5.57245e-19)
(0.18368 0.0330905 4.66263e-18)
(0.260518 0.0352641 2.24889e-18)
(0.349384 0.0397242 3.25382e-18)
(0.449382 0.0474113 -2.37667e-18)
(0.556473 0.056202 1.40675e-18)
(0.675286 0.0748898 -7.54301e-19)
(0.768019 0.0819392 -6.4424e-18)
(-0.0113923 0.00937196 5.57202e-19)
(-0.0230412 0.0207672 9.27769e-19)
(-0.0237295 0.0274364 -2.50861e-18)
(-0.0132949 0.0305751 -2.92433e-18)
(0.00861441 0.0314313 -2.73411e-18)
(0.0424345 0.0311151 2.57553e-19)
(0.0886826 0.0306144 2.08604e-18)
(0.14786 0.0308191 -3.90545e-18)
(0.22026 0.0325206 -2.22098e-18)
(0.305704 0.0364001 1.239e-18)
(0.403122 0.0428819 -3.13288e-18)
(0.510771 0.0527335 2.31618e-19)
(0.623905 0.0634136 1.83566e-18)
(0.744618 0.0829981 -2.2209e-18)
(0.839892 0.0884635 1.74222e-18)
(-0.0113384 0.00888115 -1.25387e-18)
(-0.0217819 0.0192411 3.06979e-18)
(-0.020124 0.0250924 2.07422e-18)
(-0.00625195 0.0276638 1.40715e-18)
(0.0202005 0.028282 2.33821e-18)
(0.0596807 0.0281195 -2.42995e-19)
(0.112678 0.0282118 -1.97916e-18)
(0.179576 0.0294792 3.83468e-19)
(0.260394 0.0327105 2.8391e-18)
(0.354463 0.0385297 -5.09188e-18)
(0.459976 0.0472107 -2.52172e-18)
(0.574155 0.05926 3.17827e-20)
(0.691517 0.0719083 -6.03289e-19)
(0.811714 0.0919939 2.91459e-18)
(0.90688 0.0975743 -2.32727e-18)
(-0.0111657 0.00833411 1.402e-18)
(-0.0200912 0.0175905 1.03065e-18)
(-0.0156975 0.0226223 -1.05205e-19)
(0.00206853 0.0246803 -9.10781e-19)
(0.033576 0.0251694 2.11158e-19)
(0.0792581 0.0253236 -2.82548e-18)
(0.139526 0.0262205 6.87506e-19)
(0.214562 0.0287978 -1.45935e-18)
(0.303985 0.0338154 -1.76278e-18)
(0.406469 0.0417967 3.58422e-18)
(0.519309 0.0528153 5.24368e-18)
(0.638593 0.0670356 2.36304e-18)
(0.758121 0.0815826 2.02077e-18)
(0.875542 0.101841 -2.40264e-18)
(0.96809 0.108179 -2.31323e-18)
(-0.0108547 0.00772995 1.1986e-18)
(-0.0179143 0.0158218 -2.34746e-18)
(-0.0103631 0.020049 -1.16497e-18)
(0.0117801 0.0216694 -2.67086e-18)
(0.04887 0.022165 1.20657e-18)
(0.10129 0.0228272 2.996e-18)
(0.169308 0.0247664 -3.67101e-18)
(0.252797 0.0289173 1.33114e-18)
(0.35083 0.0359753 2.76856e-18)
(0.461259 0.04631 8.80446e-19)
(0.58035 0.059739 -3.61004e-18)
(0.703043 0.0760223 -1.32264e-18)
(0.822544 0.0922449 1.984e-20)
(0.935134 0.112371 1.30027e-18)
(1.02285 0.119512 4.61247e-18)
(-0.0103843 0.00706881 -1.9081e-18)
(-0.0151938 0.0139447 -2.06208e-18)
(-0.00403263 0.0174003 1.18255e-18)
(0.0229932 0.018683 4.73939e-18)
(0.0662 0.0193478 -3.12597e-18)
(0.125872 0.0207366 9.13817e-19)
(0.202052 0.0239773 1.48294e-18)
(0.294178 0.029973 -9.34222e-20)
(0.400617 0.039308 3.4081e-19)
(0.518246 0.0521359 1.78134e-18)
(0.642219 0.0679617 -1.6839e-18)
(0.766429 0.0861067 -3.14583e-18)
(0.883719 0.103652 -2.41952e-18)
(0.989704 0.123338 1.97111e-18)
(1.07083 0.131009 4.89662e-19)
(-0.00973201 0.00635215 -4.84446e-19)
(-0.0118704 0.0119729 4.18365e-18)
(0.00338159 0.0147101 9.18993e-19)
(0.0358128 0.01578 1.28967e-18)
(0.0856676 0.016804 1.17424e-18)
(0.15307 0.0191631 1.14041e-18)
(0.237733 0.0239802 -4.49053e-19)
(0.338517 0.0320877 8.6039e-19)
(0.452924 0.043902 4.92353e-19)
(0.576728 0.0592927 2.27131e-18)
(0.703973 0.0774029 1.32661e-19)
(0.827711 0.0971156 2.19143e-18)
(0.940749 0.115543 -1.49498e-18)
(1.03871 0.134476 -1.25236e-18)
(1.11199 0.142274 7.51884e-19)
(-0.00887435 0.00558301 1.8034e-18)
(-0.0078841 0.00992443 -1.6976e-18)
(0.0119652 0.0120187 2.26124e-19)
(0.0503348 0.013027 -2.62047e-18)
(0.107354 0.014627 -2.21757e-18)
(0.182908 0.0182217 3.92929e-18)
(0.276259 0.0248974 1.22227e-18)
(0.385538 0.0353667 -1.84273e-18)
(0.507225 0.0498109 4.74103e-19)
(0.635924 0.0677494 -6.11702e-18)
(0.764659 0.08793 2.11412e-18)
(0.885952 0.108837 -2.34866e-18)
(0.992958 0.127661 2.46319e-18)
(1.08189 0.145541 -3.70315e-19)
(1.14659 0.153051 -1.18767e-18)
(-0.00778706 0.00476633 -2.83699e-18)
(-0.00317485 0.00782217 -3.07775e-18)
(0.0217998 0.00937317 -3.16912e-18)
(0.066643 0.010498 -2.44544e-18)
(0.131313 0.0129162 1.63405e-18)
(0.215364 0.0180281 -6.81828e-18)
(0.317471 0.0268429 6.46962e-19)
(0.434873 0.0398921 6.36286e-19)
(0.562908 0.0570502 3.64642e-19)
(0.695008 0.0774279 2.86124e-18)
(0.823373 0.0993716 -2.26195e-18)
(0.940377 0.121042 5.09612e-18)
(1.03991 0.139778 -1.00279e-18)
(1.11922 0.156337 -1.7164e-18)
(1.17507 0.163193 9.28171e-19)
(-0.00644547 0.0039091 5.08642e-19)
(0.002316 0.00569442 2.52238e-18)
(0.0329606 0.00682803 3.68592e-18)
(0.0848059 0.00827482 5.63536e-19)
(0.157572 0.0117761 2.99433e-18)
(0.250368 0.0186971 1.68201e-18)
(0.361137 0.029918 5.2802e-19)
(0.486074 0.0457191 -2.94973e-18)
(0.619298 0.0655954 -2.04068e-19)
(0.753153 0.0882093 1.4352e-18)
(0.879305 0.111533 5.51554e-18)
(0.9904 0.133508 -7.07148e-19)
(1.08142 0.151702 1.67469e-18)
(1.15089 0.16672 1.4809e-18)
(1.19804 0.172638 2.17203e-18)
(-0.00482489 0.00302057 9.53003e-19)
(0.00864452 0.00357512 -3.409e-18)
(0.0455143 0.00444503 -7.10455e-19)
(0.104873 0.00644585 1.61669e-22)
(0.186121 0.0113142 -5.65337e-18)
(0.287797 0.0203387 1.49681e-18)
(0.406957 0.0342072 -7.63139e-19)
(0.538625 0.0528723 9.45441e-19)
(0.675685 0.0753842 3.37404e-18)
(0.809575 0.0999438 -1.25913e-18)
(0.931785 0.12421 -4.13785e-18)
(1.03565 0.146034 -5.30063e-19)
(1.1175 0.163289 -5.69008e-19)
(1.17727 0.176604 -1.23096e-18)
(1.21616 0.181387 -2.3623e-18)
(-0.00290105 0.00211242 1.94017e-19)
(0.0158629 0.00150401 9.12709e-19)
(0.0595167 0.00229298 -2.44041e-18)
(0.126871 0.0051055 1.00322e-18)
(0.216911 0.0116396 2.35818e-18)
(0.32747 0.0230548 -1.00987e-18)
(0.454564 0.0397743 -2.14003e-19)
(0.591957 0.061344 -2.48328e-18)
(0.731358 0.0863201 5.39199e-19)
(0.863569 0.112462 -2.0041e-18)
(0.980304 0.137209 1.95212e-18)
(1.07594 0.158449 -1.5408e-18)
(1.14834 0.174442 2.5599e-18)
(1.19882 0.185949 -8.93596e-19)
(1.23011 0.189485 -1.6841e-18)
(-0.000650562 0.00119876 1.06153e-18)
(0.0240178 -0.00047344 7.13342e-19)
(0.07501 0.000447325 6.40938e-19)
(0.150802 0.00435268 1.39066e-19)
(0.249855 0.0128596 1.11148e-18)
(0.369153 0.0269357 -2.6631e-18)
(0.503537 0.0466592 1.48523e-18)
(0.645471 0.071095 3.61218e-18)
(0.785639 0.0982802 -3.99766e-19)
(0.914543 0.125587 2.93518e-18)
(1.02452 0.15035 1.76056e-18)
(1.11128 0.170623 3.17979e-19)
(1.17426 0.185105 5.03768e-19)
(1.21607 0.194757 9.13301e-19)
(1.24053 0.197003 1.9993e-18)
(0.00194861 0.000296242 1.64653e-18)
(0.0331493 -0.0023062 2.45726e-18)
(0.0920211 -0.00101073 -2.24766e-18)
(0.176639 0.00428905 2.038e-18)
(0.284823 0.0150771 -4.75308e-18)
(0.412558 0.0320566 1.12495e-18)
(0.553408 0.0548758 -4.24104e-19)
(0.698562 0.082057 -2.25339e-18)
(0.837911 0.111123 -4.18958e-18)
(0.962035 0.139145 -1.65657e-18)
(1.06426 0.163483 -4.11556e-18)
(1.14182 0.182463 2.50738e-18)
(1.19568 0.195259 -3.19243e-18)
(1.22954 0.203058 2.00607e-18)
(1.24802 0.204027 1.25873e-18)
(0.00491659 -0.000576009 -3.90694e-18)
(0.043289 -0.00393807 1.62845e-19)
(0.110559 -0.0019953 2.7741e-19)
(0.204326 0.00501685 5.67407e-19)
(0.32164 0.0183877 2.89849e-19)
(0.457353 0.0384743 2.28025e-18)
(0.603682 0.0644116 1.29269e-18)
(0.750646 0.094137 -3.73458e-19)
(0.88764 0.124698 1.8805e-18)
(1.00572 0.152977 1.24569e-18)
(1.09949 0.176485 5.71771e-19)
(1.1678 0.19391 -1.39589e-18)
(1.21304 0.204915 4.41629e-18)
(1.23979 0.2109 7.29976e-19)
(1.2531 0.210644 -1.39689e-18)
(0.00827102 -0.00139647 3.63538e-18)
(0.0544587 -0.00530828 -2.72964e-18)
(0.130612 -0.00241721 8.79055e-19)
(0.233774 0.00663658 -8.93319e-20)
(0.360091 0.0228764 4.63822e-18)
(0.503165 0.0462251 -3.97188e-19)
(0.653852 0.0752287 -1.54626e-18)
(0.801177 0.107224 3.92163e-18)
(0.934392 0.138854 3.72076e-19)
(1.04539 0.166941 1.62591e-18)
(1.1303 0.189266 -3.26805e-18)
(1.18956 0.20494 9.23731e-20)
(1.22682 0.214102 -1.3424e-18)
(1.24728 0.218346 -2.19729e-19)
(1.25622 0.216941 -7.86491e-19)
(0.0120265 -0.0021414 -9.59734e-19)
(0.0666691 -0.00635221 2.91538e-18)
(0.152148 -0.00218563 1.78073e-18)
(0.264862 0.00924436 1.43462e-18)
(0.399925 0.0286145 -7.38653e-19)
(0.549595 0.0553234 -3.22831e-19)
(0.703417 0.087266 2.11092e-18)
(0.849671 0.121193 -1.65222e-18)
(0.977839 0.153446 5.29817e-19)
(1.08099 0.18092 -2.75544e-18)
(1.15688 0.201764 1.88204e-19)
(1.20748 0.215551 4.06599e-19)
(1.23746 0.222868 -5.5374e-19)
(1.25246 0.225459 -3.23002e-18)
(1.25775 0.222995 1.27582e-18)
(0.0161942 -0.00278503 -1.75382e-18)
(0.0799185 -0.00700237 -2.30145e-18)
(0.175112 -0.00120986 1.26386e-18)
(0.297436 0.0129294 -1.53814e-19)
(0.440854 0.0356577 -1.96565e-18)
(0.596226 0.0657613 -9.09407e-20)
(0.7519 0.100443 -1.46912e-18)
(0.895714 0.135917 -2.97975e-18)
(1.01776 0.168342 -1.21689e-18)
(1.11253 0.194819 1.1394e-18)
(1.17947 0.213942 1.03822e-18)
(1.22193 0.22576 -9.61475e-20)
(1.24541 0.231265 -1.55388e-18)
(1.25572 0.232305 2.70912e-18)
(1.258 0.228874 7.91557e-19)
(0.0207809 -0.00329986 1.7535e-18)
(0.0941915 -0.00718943 1.36552e-20)
(0.199425 0.000598651 -3.06824e-18)
(0.331314 0.0177716 -5.90275e-20)
(0.482565 0.044044 4.86711e-19)
(0.642637 0.0775097 8.77573e-19)
(0.798859 0.114665 -1.61871e-18)
(0.938975 0.151265 8.32607e-19)
(1.05403 0.183425 -3.92514e-20)
(1.14013 0.208567 9.34231e-19)
(1.19838 0.225786 -8.2889e-19)
(1.23332 0.235598 -2.27726e-18)
(1.25104 0.23935 -1.12857e-19)
(1.25739 0.238942 -1.3134e-18)
(1.2572 0.234634 -1.06143e-18)
(0.0257889 -0.003657 7.28473e-19)
(0.109459 -0.00684347 -1.56321e-18)
(0.224986 0.00332435 1.57221e-18)
(0.366285 0.0238391 -5.12791e-19)
(0.524726 0.0537924 -2.78617e-19)
(0.688415 0.0905196 -8.03377e-19)
(0.843904 0.129826 1.27717e-18)
(0.979201 0.167115 8.41777e-19)
(1.08661 0.198595 -5.05304e-19)
(1.16397 0.222114 -1.43136e-18)
(1.21391 0.237297 -5.09438e-19)
(1.242 0.245104 2.34634e-18)
(1.2547 0.247177 1.40039e-18)
(1.25772 0.245425 1.32733e-18)
(1.25555 0.240321 -3.85463e-19)
(0.0312154 -0.00382664 -4.52074e-19)
(0.125676 -0.00589531 1.64857e-19)
(0.251669 0.00704553 -6.62072e-19)
(0.402113 0.0311862 -1.79439e-20)
(0.566994 0.0649027 -5.24688e-19)
(0.733167 0.104725 -8.01458e-19)
(0.886698 0.145815 2.70841e-19)
(1.01622 0.183351 -1.69562e-18)
(1.11554 0.213771 1.49759e-18)
(1.18424 0.235427 1.88108e-18)
(1.22639 0.248488 2.2626e-19)
(1.24832 0.25432 -2.04881e-18)
(1.25668 0.254798 -1.92517e-18)
(1.25696 0.251798 -1.39578e-18)
(1.2532 0.24597 5.21985e-19)
(0.0370521 -0.00377844 -1.5006e-18)
(0.142783 -0.00427786 4.23821e-19)
(0.27933 0.0118324 -3.23902e-19)
(0.438545 0.0398522 -7.83118e-21)
(0.609022 0.0773561 -1.41927e-19)
(0.776528 0.120047 -3.17608e-19)
(0.926967 0.162519 5.69979e-19)
(1.04993 0.199868 -3.47518e-19)
(1.14091 0.228886 -4.26121e-19)
(1.20121 0.24849 -8.39553e-19)
(1.23612 0.259383 -7.42298e-19)
(1.25259 0.263289 -3.4007e-19)
(1.25725 0.262259 1.20012e-18)
(1.25526 0.258098 -4.70178e-20)
(1.25024 0.251607 8.6325e-19)
(0.0432851 -0.00348214 6.21529e-19)
(0.160706 -0.00192761 1.10495e-18)
(0.307801 0.0177451 1.902e-19)
(0.475311 0.0498599 7.13808e-19)
(0.65047 0.0911158 1.574e-18)
(0.818169 0.136394 5.82499e-19)
(0.964497 0.179826 2.18697e-18)
(1.0803 0.216572 1.14567e-18)
(1.16286 0.243889 7.33803e-19)
(1.21512 0.261297 1.65233e-18)
(1.24341 0.270007 5.00714e-19)
(1.25507 0.272051 9.01325e-19)
(1.2566 0.269598 4.4172e-19)
(1.25278 0.264354 1.91884e-19)
(1.24677 0.257248 6.04981e-19)
(0.0498944 -0.00290807 8.84827e-19)
(0.179356 0.001214 -1.57031e-18)
(0.336902 0.0248326 -3.19904e-19)
(0.512134 0.0612154 7.4375e-19)
(0.691009 0.106129 -1.59763e-18)
(0.857804 0.153667 -6.59653e-19)
(0.999131 0.197629 -1.35099e-18)
(1.10735 0.233383 -4.25736e-20)
(1.18156 0.258743 -3.55688e-19)
(1.22622 0.273849 -1.39757e-18)
(1.24853 0.280388 1.05261e-18)
(1.256 0.280643 8.06057e-20)
(1.25491 0.276846 -4.34301e-20)
(1.24962 0.270587 3.36676e-19)
(1.24283 0.262902 -7.40792e-19)
(0.0568543 -0.00202775 -5.60546e-20)
(0.198631 0.00519915 6.91038e-19)
(0.366434 0.0331308 1.95594e-19)
(0.548732 0.0739076 -1.05199e-18)
(0.730332 0.122328 7.1058e-19)
(0.895189 0.171765 2.33252e-19)
(1.03077 0.215826 -6.19288e-19)
(1.13113 0.25023 -2.96416e-19)
(1.1972 0.273419 -8.81012e-19)
(1.23477 0.286156 1.48829e-19)
(1.25171 0.290554 -1.02013e-18)
(1.25558 0.289096 -7.03855e-19)
(1.25232 0.284028 1.81516e-19)
(1.24586 0.27681 1.77889e-19)
(1.23846 0.268573 -3.06596e-19)
(0.0641331 -0.000814505 -3.34158e-19)
(0.218415 0.0100724 -2.16414e-19)