/*--------------------------------*- C++ -*----------------------------------*\
  =========                 |
  \\      /  F ield         | OpenFOAM: The Open Source CFD Toolbox
   \\    /   O peration     | Website:  https://openfoam.org
    \\  /    A nd           | Version:  7
     \\/     M anipulation  |
\*---------------------------------------------------------------------------*/
FoamFile
{
    version     2.0;
    format      ascii;
    class       volScalarField;
    location    "9.999";
    object      p;
}
// * * * * * * * * * * * * * * * * * * * * * * * * * * * * * * * * * * * * * //

dimensions      [0 2 -2 0 0 0 0];

internalField   nonuniform List<scalar> 
18750
(
-0.0395973
-0.0558365
-0.0851385
-0.127689
-0.18087
-0.242916
-0.311516
-0.384605
-0.460202
-0.536642
-0.61234
-0.685781
-0.755563
-0.820619
-0.880192
-0.0461143
-0.0619214
-0.0908266
-0.133028
-0.185907
-0.247686
-0.316041
-0.388885
-0.464213
-0.54037
-0.615802
-0.689024
-0.758612
-0.823429
-0.882715
-0.0588266
-0.073794
-0.101916
-0.143423
-0.195696
-0.256937
-0.324792
-0.397132
-0.471917
-0.547494
-0.62237
-0.695127
-0.764319
-0.828706
-0.887511
-0.077118
-0.0908841
-0.11786
-0.158344
-0.209713
-0.270135
-0.337222
-0.408791
-0.482751
-0.557443
-0.631451
-0.703456
-0.772041
-0.835872
-0.894125
-0.100128
-0.112385
-0.137888
-0.177059
-0.227243
-0.286573
-0.352622
-0.42315
-0.496006
-0.569517
-0.642338
-0.71329
-0.781054
-0.844266
-0.902007
-0.126826
-0.13729
-0.161069
-0.198696
-0.247454
-0.305439
-0.370192
-0.439422
-0.51092
-0.582981
-0.654323
-0.723933
-0.790682
-0.853259
-0.910636
-0.156085
-0.164443
-0.186373
-0.222313
-0.269457
-0.325883
-0.389112
-0.456819
-0.526739
-0.597132
-0.666762
-0.734793
-0.800364
-0.862333
-0.919578
-0.186652
-0.192674
-0.21276
-0.246955
-0.29236
-0.347066
-0.408591
-0.474592
-0.542769
-0.61134
-0.679104
-0.745395
-0.809668
-0.871077
-0.928465
-0.217233
-0.220842
-0.239241
-0.271709
-0.315316
-0.368205
-0.427902
-0.492067
-0.558389
-0.625059
-0.690891
-0.755366
-0.818269
-0.879152
-0.93694
-0.24658
-0.247892
-0.264918
-0.295734
-0.337549
-0.388589
-0.446397
-0.508654
-0.573067
-0.637817
-0.701731
-0.764401
-0.825898
-0.886236
-0.944602
-0.273553
-0.272931
-0.289002
-0.318281
-0.358379
-0.407607
-0.46352
-0.523851
-0.586349
-0.649213
-0.711283
-0.772224
-0.832314
-0.89201
-0.950999
-0.297173
-0.29533
-0.310815
-0.338708
-0.377242
-0.424747
-0.478808
-0.537239
-0.597859
-0.658899
-0.71923
-0.778563
-0.837288
-0.896177
-0.95561
-0.316668
-0.31473
-0.329771
-0.356503
-0.393694
-0.439599
-0.491887
-0.548478
-0.607282
-0.666575
-0.725275
-0.78313
-0.840578
-0.898484
-0.957874
-0.331837
-0.330676
-0.345393
-0.371316
-0.40742
-0.451856
-0.502468
-0.557297
-0.61437
-0.671987
-0.729149
-0.785615
-0.841911
-0.898765
-0.957261
-0.342767
-0.342806
-0.357484
-0.382979
-0.41821
-0.461307
-0.51035
-0.563487
-0.618922
-0.674919
-0.730617
-0.785724
-0.840928
-0.896865
-0.953708
-0.349669
-0.351034
-0.366144
-0.391547
-0.425943
-0.467842
-0.515425
-0.566908
-0.620807
-0.675177
-0.729482
-0.783215
-0.837263
-0.892397
-0.947472
-0.353007
-0.355731
-0.371527
-0.396977
-0.430697
-0.47149
-0.517689
-0.567637
-0.619762
-0.672625
-0.72551
-0.777991
-0.830707
-0.884981
-0.938446
-0.353579
-0.357562
-0.373926
-0.399378
-0.43252
-0.47227
-0.517109
-0.565501
-0.615949
-0.667236
-0.718709
-0.769898
-0.821032
-0.874537
-0.9261
-0.352448
-0.3573
-0.373734
-0.398975
-0.431539
-0.470274
-0.513751
-0.560572
-0.609367
-0.659
-0.708971
-0.758922
-0.808128
-0.860959
-0.910274
-0.350754
-0.355672
-0.37135
-0.396054
-0.427974
-0.465676
-0.507757
-0.552958
-0.600067
-0.647953
-0.69618
-0.745117
-0.792014
-0.844173
-0.890988
-0.349398
-0.353139
-0.367105
-0.390942
-0.422102
-0.458697
-0.499314
-0.542792
-0.58813
-0.634242
-0.680292
-0.728534
-0.77284
-0.824283
-0.868404
-0.3486
-0.349681
-0.361273
-0.384003
-0.414227
-0.449585
-0.488645
-0.530257
-0.573622
-0.618086
-0.661404
-0.709175
-0.750823
-0.801428
-0.843271
-0.347678
-0.344792
-0.354198
-0.375643
-0.404652
-0.4386
-0.475996
-0.515609
-0.556606
-0.599664
-0.639808
-0.687018
-0.726236
-0.775457
-0.816254
-0.345495
-0.338241
-0.346467
-0.36628
-0.393691
-0.426039
-0.461615
-0.49918
-0.537199
-0.578997
-0.615935
-0.662096
-0.699712
-0.746377
-0.787144
-0.341461
-0.331149
-0.338828
-0.35631
-0.381716
-0.412287
-0.445753
-0.481283
-0.515702
-0.555939
-0.590143
-0.634287
-0.67202
-0.715144
-0.755725
-0.335929
-0.325652
-0.331734
-0.346176
-0.369228
-0.397853
-0.428709
-0.462094
-0.492593
-0.530353
-0.562803
-0.603295
-0.642978
-0.682763
-0.723027
-0.329968
-0.322452
-0.325128
-0.336499
-0.356906
-0.383368
-0.41092
-0.441675
-0.468414
-0.502149
-0.534362
-0.569258
-0.611921
-0.649089
-0.689819
-0.324854
-0.320411
-0.319247
-0.328185
-0.345541
-0.369479
-0.393026
-0.420068
-0.44367
-0.471465
-0.50508
-0.532725
-0.579385
-0.613444
-0.656666
-0.321191
-0.318346
-0.315238
-0.322068
-0.335953
-0.35679
-0.375891
-0.397513
-0.418619
-0.438701
-0.474558
-0.495588
-0.5456
-0.57645
-0.625017
-0.318846
-0.316316
-0.313721
-0.318263
-0.328857
-0.345854
-0.360429
-0.374702
-0.393082
-0.405396
-0.440848
-0.459826
-0.509575
-0.539641
-0.596934
-0.317254
-0.314958
-0.313614
-0.316496
-0.324663
-0.33719
-0.34732
-0.352913
-0.366617
-0.373815
-0.402849
-0.42639
-0.468897
-0.506081
-0.567656
-0.31604
-0.31418
-0.31381
-0.316444
-0.323135
-0.33108
-0.336606
-0.334019
-0.339613
-0.344513
-0.363874
-0.393626
-0.430671
-0.47579
-0.5328
-0.314899
-0.313648
-0.314259
-0.317478
-0.323203
-0.327388
-0.327951
-0.318614
-0.314669
-0.316877
-0.330352
-0.361489
-0.400808
-0.450161
-0.500405
-0.313586
-0.313063
-0.314703
-0.318571
-0.32356
-0.325195
-0.32092
-0.306198
-0.29381
-0.291622
-0.303314
-0.335137
-0.376931
-0.428443
-0.47386
-0.311902
-0.312146
-0.314679
-0.318935
-0.323178
-0.323064
-0.314606
-0.295882
-0.276953
-0.270774
-0.282115
-0.315749
-0.358782
-0.408405
-0.450952
-0.309703
-0.310639
-0.313753
-0.318085
-0.321571
-0.319759
-0.308003
-0.28671
-0.263347
-0.254811
-0.266672
-0.30106
-0.344858
-0.389754
-0.429645
-0.306954
-0.308408
-0.311686
-0.315689
-0.317947
-0.314591
-0.300452
-0.277216
-0.251948
-0.2429
-0.256667
-0.290829
-0.332642
-0.372607
-0.409658
-0.303785
-0.305542
-0.30855
-0.311839
-0.312588
-0.307134
-0.291404
-0.266883
-0.242233
-0.234256
-0.251555
-0.283787
-0.321489
-0.357078
-0.391097
-0.300547
-0.302375
-0.304799
-0.307037
-0.305934
-0.298206
-0.281654
-0.257723
-0.234751
-0.230913
-0.249574
-0.278692
-0.311694
-0.343247
-0.37402
-0.297732
-0.299487
-0.301245
-0.302374
-0.29947
-0.290003
-0.273818
-0.251711
-0.23199
-0.231893
-0.249457
-0.274983
-0.303393
-0.331008
-0.358658
-0.295814
-0.297455
-0.298698
-0.29903
-0.294996
-0.284167
-0.269008
-0.247737
-0.233755
-0.235275
-0.250784
-0.272457
-0.296526
-0.320367
-0.344773
-0.295065
-0.296622
-0.297619
-0.297643
-0.29309
-0.281363
-0.265275
-0.247708
-0.237688
-0.240173
-0.253157
-0.270908
-0.290889
-0.311037
-0.332319
-0.29551
-0.297046
-0.298037
-0.298158
-0.293744
-0.282259
-0.262029
-0.250364
-0.243215
-0.245733
-0.25603
-0.270023
-0.286162
-0.302819
-0.321106
-0.296993
-0.298523
-0.299695
-0.300324
-0.29686
-0.284622
-0.264372
-0.25424
-0.249079
-0.25119
-0.258874
-0.269443
-0.282097
-0.295509
-0.310921
-0.299219
-0.300767
-0.30223
-0.30377
-0.302488
-0.287077
-0.270957
-0.259435
-0.254614
-0.255924
-0.26126
-0.2689
-0.278439
-0.288855
-0.30164
-0.301901
-0.303467
-0.305255
-0.308354
-0.308899
-0.292989
-0.277371
-0.265046
-0.259541
-0.25969
-0.262984
-0.268143
-0.274963
-0.28274
-0.293064
-0.304764
-0.306329
-0.308276
-0.314117
-0.311236
-0.300395
-0.283519
-0.270272
-0.263709
-0.262465
-0.263916
-0.267028
-0.271534
-0.276965
-0.285056
-0.307574
-0.309038
-0.31098
-0.319761
-0.313025
-0.304694
-0.288472
-0.27474
-0.26701
-0.264283
-0.264101
-0.265483
-0.267997
-0.271437
-0.277499
-0.310181
-0.311242
-0.313833
-0.321607
-0.316822
-0.307068
-0.291749
-0.278071
-0.269385
-0.265259
-0.26358
-0.263473
-0.264313
-0.266043
-0.270247
-0.312552
-0.312746
-0.317381
-0.318907
-0.319734
-0.30862
-0.293663
-0.280218
-0.270841
-0.265458
-0.26245
-0.261035
-0.260414
-0.260705
-0.263245
-0.314546
-0.313823
-0.320508
-0.314355
-0.318784
-0.308693
-0.294426
-0.281284
-0.271414
-0.264976
-0.260779
-0.258182
-0.256311
-0.255382
-0.256395
-0.316098
-0.314548
-0.321492
-0.313768
-0.315974
-0.307492
-0.294266
-0.281459
-0.271212
-0.263873
-0.258626
-0.254971
-0.25199
-0.250012
-0.249677
-0.317277
-0.316413
-0.319141
-0.317491
-0.314376
-0.305638
-0.293256
-0.280826
-0.270309
-0.26222
-0.256048
-0.251421
-0.247471
-0.244585
-0.243038
-0.318249
-0.319638
-0.314079
-0.319983
-0.313865
-0.303799
-0.29171
-0.279548
-0.268813
-0.260076
-0.253079
-0.247574
-0.242755
-0.239054
-0.236449
-0.319139
-0.323622
-0.30914
-0.318803
-0.312951
-0.302125
-0.289899
-0.27777
-0.266794
-0.257486
-0.249756
-0.243444
-0.237846
-0.23342
-0.229864
-0.320416
-0.326651
-0.309396
-0.315853
-0.311098
-0.300356
-0.287951
-0.275652
-0.264357
-0.254505
-0.246099
-0.239051
-0.232748
-0.227651
-0.223246
-0.322562
-0.327687
-0.315625
-0.314588
-0.308888
-0.298333
-0.28582
-0.273248
-0.261555
-0.251164
-0.242131
-0.234402
-0.227456
-0.221751
-0.216584
-0.326007
-0.32649
-0.323774
-0.316217
-0.307358
-0.296168
-0.283449
-0.270566
-0.258432
-0.247496
-0.237864
-0.229503
-0.221973
-0.21571
-0.209878
-0.331378
-0.32407
-0.330196
-0.319361
-0.30694
-0.294168
-0.280871
-0.267581
-0.25498
-0.243505
-0.233304
-0.224355
-0.216291
-0.209531
-0.203142
-0.339147
-0.323292
-0.333877
-0.322491
-0.307292
-0.292486
-0.278167
-0.264298
-0.251195
-0.239192
-0.228449
-0.218955
-0.210412
-0.203213
-0.196364
-0.348727
-0.327872
-0.3359
-0.324765
-0.307767
-0.291008
-0.275385
-0.260736
-0.247063
-0.23454
-0.223288
-0.213295
-0.204323
-0.196745
-0.189523
-0.359346
-0.338503
-0.338225
-0.325988
-0.307793
-0.289433
-0.272467
-0.256903
-0.242591
-0.229543
-0.217812
-0.207362
-0.198012
-0.190108
-0.182573
-0.369577
-0.352525
-0.341993
-0.326475
-0.307058
-0.287457
-0.269289
-0.252777
-0.237774
-0.224194
-0.212007
-0.20114
-0.191455
-0.183276
-0.175485
-0.377665
-0.365456
-0.346764
-0.326641
-0.305539
-0.28488
-0.265705
-0.248304
-0.232604
-0.218488
-0.205861
-0.194609
-0.184633
-0.176227
-0.168232
-0.382417
-0.374525
-0.350805
-0.326513
-0.303373
-0.281652
-0.261617
-0.243425
-0.227058
-0.212414
-0.199359
-0.187752
-0.177522
-0.168931
-0.160787
-0.383703
-0.379289
-0.353123
-0.325817
-0.300675
-0.277818
-0.256981
-0.238087
-0.221108
-0.205961
-0.192496
-0.180558
-0.1701
-0.161351
-0.153107
-0.382993
-0.38063
-0.35356
-0.324311
-0.297453
-0.273434
-0.251798
-0.232259
-0.214725
-0.19911
-0.185261
-0.173017
-0.162346
-0.153455
-0.145143
-0.381699
-0.379825
-0.352354
-0.321882
-0.293654
-0.268519
-0.246077
-0.225924
-0.207882
-0.191842
-0.177643
-0.165123
-0.154258
-0.145233
-0.136819
-0.380772
-0.377951
-0.349882
-0.318536
-0.289215
-0.263058
-0.239823
-0.219073
-0.200561
-0.184137
-0.169627
-0.156867
-0.145843
-0.1367
-0.128017
-0.380601
-0.375621
-0.346468
-0.314329
-0.284089
-0.257014
-0.233017
-0.211693
-0.192745
-0.175978
-0.161197
-0.148241
-0.137117
-0.127902
-0.118635
-0.381143
-0.373111
-0.342342
-0.309324
-0.278246
-0.250341
-0.225632
-0.203765
-0.184418
-0.167352
-0.152343
-0.139237
-0.128083
-0.118891
-0.108691
-0.382087
-0.370498
-0.337628
-0.303562
-0.271658
-0.242993
-0.217629
-0.195263
-0.175565
-0.158251
-0.143062
-0.129863
-0.118744
-0.109638
-0.0984129
-0.38296
-0.367731
-0.332361
-0.297046
-0.264289
-0.234917
-0.208967
-0.186162
-0.166173
-0.148672
-0.133366
-0.120149
-0.10913
-0.0999645
-0.0881653
-0.383269
-0.364593
-0.326473
-0.28974
-0.256095
-0.226067
-0.199609
-0.176446
-0.15624
-0.138622
-0.123273
-0.110126
-0.0992861
-0.0897355
-0.0780043
-0.382628
-0.360627
-0.319809
-0.281577
-0.247026
-0.2164
-0.189529
-0.166111
-0.145774
-0.128108
-0.112796
-0.0997965
-0.0890893
-0.0791068
-0.0678296
-0.38067
-0.355446
-0.312171
-0.272466
-0.237039
-0.205891
-0.178723
-0.155166
-0.134782
-0.117131
-0.101921
-0.0891232
-0.0784806
-0.0682228
-0.0575465
-0.377099
-0.348787
-0.303374
-0.262314
-0.226091
-0.194536
-0.16721
-0.14362
-0.12324
-0.10567
-0.0906444
-0.078077
-0.0674703
-0.0571533
-0.0471088
-0.371679
-0.340465
-0.293256
-0.251041
-0.214161
-0.182358
-0.155011
-0.131425
-0.111131
-0.0937292
-0.0789607
-0.0666506
-0.0561128
-0.045903
-0.0365089
-0.364247
-0.330372
-0.281694
-0.238591
-0.201265
-0.169391
-0.142045
-0.118565
-0.0984543
-0.0813139
-0.0668707
-0.0548548
-0.0444576
-0.0344611
-0.0257596
-0.354703
-0.318469
-0.268584
-0.224943
-0.187445
-0.155543
-0.128305
-0.105043
-0.0852205
-0.0684342
-0.0543833
-0.0427068
-0.0325268
-0.0228264
-0.0148708
-0.343003
-0.304797
-0.253858
-0.210105
-0.172621
-0.140803
-0.1138
-0.0908712
-0.0714436
-0.0551044
-0.041514
-0.0302248
-0.0203265
-0.0109969
-0.00384885
-0.329146
-0.289431
-0.237529
-0.194017
-0.156743
-0.125183
-0.0985463
-0.0760661
-0.0571418
-0.0413434
-0.0282821
-0.0174255
-0.00786028
0.0010293
0.00728053
-0.313165
-0.27239
-0.219766
-0.176575
-0.139798
-0.108701
-0.0825683
-0.0606524
-0.0423379
-0.0271719
-0.0147056
-0.00432394
0.00485676
0.0132309
0.0184664
-0.295132
-0.253516
-0.200685
-0.15788
-0.121811
-0.0913778
-0.0658949
-0.0446589
-0.0270572
-0.0126088
-0.000795722
0.00906714
0.0177883
0.0255293
0.0296546
-0.275175
-0.232521
-0.180462
-0.138083
-0.102843
-0.0732478
-0.048559
-0.0281187
-0.0113271
0.00233027
0.0134443
0.0227391
0.0308799
0.0377856
0.0407582
-0.25345
-0.209458
-0.159035
-0.117309
-0.0829786
-0.0543574
-0.0305992
-0.0110682
0.00482431
0.0176325
0.0280154
0.0366826
0.0440728
0.0498327
0.0514714
-0.230043
-0.184686
-0.136311
-0.0956211
-0.0623049
-0.0347664
-0.0120611
0.00645326
0.0213679
0.0332833
0.0429098
0.0508717
0.0573037
0.0615005
0.0612022
-0.204897
-0.158723
-0.112353
-0.0730474
-0.0408961
-0.0145431
0.00700231
0.0244036
0.0382728
0.0492604
0.0580955
0.0652427
0.0704794
0.0726546
0.0697195
-0.177993
-0.13195
-0.0873314
-0.0496252
-0.0188162
0.0062428
0.0265323
0.0427376
0.055505
0.0655279
0.0735049
0.0796845
0.0834829
0.0834152
0.0781563
-0.14957
-0.104373
-0.0614206
-0.0254346
0.00386901
0.0275211
0.0464673
0.0614066
0.0730237
0.0820337
0.0890465
0.0940708
0.0962544
0.0943696
0.0889273
-0.119866
-0.0759818
-0.0347618
-0.000584552
0.0270827
0.0492206
0.0667436
0.0803577
0.0907785
0.0987122
0.104634
0.108336
0.108897
0.10584
0.104083
-0.0891015
-0.0468339
-0.00747399
0.0248094
0.0507373
0.0712671
0.0872956
0.0995325
0.108709
0.115491
0.120207
0.122513
0.121652
0.118088
0.118832
-0.0574721
-0.0170337
0.0203293
0.0506329
0.0747382
0.093582
0.108055
0.118867
0.126749
0.132301
0.135736
0.136678
0.134678
0.131046
0.132695
-0.0251645
0.0132838
0.0485313
0.0767747
0.0989879
0.116083
0.128949
0.138294
0.144829
0.14909
0.151209
0.150864
0.147908
0.144209
0.145734
0.00764482
0.0439737
0.0770097
0.103124
0.123388
0.138685
0.149902
0.157741
0.162886
0.165813
0.166621
0.165079
0.161301
0.157382
0.158194
0.0407814
0.0748861
0.105638
0.129569
0.147838
0.161301
0.170838
0.177139
0.18086
0.18243
0.181944
0.179256
0.174669
0.170331
0.170289
0.0740759
0.105873
0.13429
0.155999
0.172241
0.183842
0.191676
0.196416
0.198692
0.198902
0.197148
0.193362
0.187962
0.183037
0.182065
0.107361
0.136789
0.162835
0.1823
0.196496
0.206221
0.212337
0.215504
0.216325
0.215178
0.212172
0.207298
0.201056
0.195474
0.193574
0.140473
0.16749
0.191149
0.208363
0.220506
0.228349
0.232745
0.234335
0.233703
0.231212
0.226978
0.221032
0.213925
0.207615
0.204783
0.173253
0.197836
0.219107
0.234077
0.244172
0.25014
0.252821
0.252841
0.250766
0.246942
0.241492
0.234482
0.226511
0.219469
0.215692
0.205546
0.227693
0.246588
0.259335
0.267399
0.271509
0.272491
0.270957
0.267456
0.262323
0.25568
0.24762
0.238776
0.230972
0.226258
0.237201
0.256928
0.273475
0.28403
0.290093
0.292372
0.29168
0.288616
0.283712
0.277289
0.269474
0.260389
0.250695
0.242131
0.236461
0.268073
0.285413
0.299653
0.308063
0.312164
0.312648
0.310316
0.305754
0.29948
0.291799
0.28284
0.27275
0.262213
0.252883
0.24627
0.298023
0.313027
0.325013
0.331334
0.333523
0.332259
0.32833
0.322309
0.314698
0.305791
0.295725
0.284668
0.273317
0.263221
0.255656
0.326916
0.339652
0.349451
0.353748
0.354087
0.35113
0.345654
0.338222
0.329318
0.319227
0.308087
0.296095
0.283952
0.273099
0.264595
0.354627
0.365175
0.372865
0.375217
0.373774
0.369187
0.362224
0.353431
0.343283
0.332053
0.31989
0.307007
0.294101
0.282495
0.273062
0.381034
0.389493
0.395162
0.395655
0.392508
0.386364
0.377978
0.367886
0.356547
0.344229
0.331087
0.317357
0.303721
0.291382
0.281037
0.406023
0.412503
0.41625
0.414981
0.410217
0.402595
0.392858
0.381531
0.369063
0.355714
0.341651
0.327121
0.312787
0.299731
0.288499
0.429488
0.434113
0.436047
0.433119
0.426833
0.417818
0.406809
0.39432
0.380786
0.366467
0.351538
0.336262
0.321269
0.307521
0.295431
0.45133
0.454235
0.454474
0.45
0.442292
0.431978
0.419781
0.406206
0.391678
0.376455
0.360723
0.344752
0.32914
0.314728
0.301819
0.471456
0.472791
0.47146
0.465558
0.456537
0.445022
0.431726
0.417146
0.401699
0.385642
0.369172
0.352564
0.336375
0.321335
0.307648
0.489782
0.489709
0.486941
0.479736
0.469514
0.456901
0.442602
0.427104
0.410817
0.394
0.376859
0.359672
0.342953
0.327323
0.312908
0.506231
0.504926
0.500859
0.492478
0.481174
0.467571
0.452368
0.436043
0.419
0.401499
0.383758
0.366053
0.348852
0.332676
0.31759
0.52074
0.518385
0.513162
0.503737
0.491474
0.476995
0.460991
0.443933
0.42622
0.408116
0.389847
0.371687
0.354055
0.337382
0.321685
0.533265
0.530026
0.523801
0.51347
0.500375
0.485137
0.468439
0.450746
0.432454
0.413828
0.395105
0.376552
0.358544
0.341428
0.325191
0.543778
0.539791
0.53273
0.521637
0.507844
0.491968
0.474686
0.45646
0.43768
0.418617
0.399515
0.380634
0.362305
0.344807
0.328104
0.55224
0.547643
0.539915
0.528207
0.513852
0.497462
0.479711
0.461054
0.441882
0.422467
0.403061
0.383917
0.365327
0.347511
0.330427
0.558619
0.553555
0.545326
0.533157
0.518378
0.5016
0.483494
0.464513
0.445045
0.425366
0.405731
0.38639
0.3676
0.349538
0.332163
0.562886
0.557507
0.548944
0.536466
0.521404
0.504366
0.486024
0.466826
0.447159
0.427304
0.407517
0.388043
0.369119
0.350889
0.333318
0.565025
0.559487
0.550756
0.538124
0.52292
0.505752
0.487291
0.467984
0.448218
0.428274
0.408411
0.388871
0.369878
0.351563
0.333893
0.565025
0.559487
0.550756
0.538124
0.52292
0.505752
0.487291
0.467984
0.448219
0.428274
0.408412
0.388872
0.369878
0.351563
0.333893
0.562887
0.557507
0.548944
0.536466
0.521404
0.504367
0.486024
0.466826
0.44716
0.427304
0.407517
0.388043
0.369119
0.350889
0.333318
0.558619
0.553555
0.545326
0.533157
0.518378
0.5016
0.483494
0.464514
0.445045
0.425366
0.405732
0.38639
0.3676
0.349538
0.332164
0.552241
0.547644
0.539915
0.528208
0.513853
0.497462
0.479711
0.461054
0.441882
0.422468
0.403061
0.383917
0.365327
0.347511
0.330427
0.543779
0.539792
0.532731
0.521637
0.507845
0.491968
0.474687
0.45646
0.437681
0.418618
0.399515
0.380634
0.362306
0.344807
0.328104
0.533266
0.530027
0.523802
0.51347
0.500376
0.485138
0.46844
0.450747
0.432454
0.413829
0.395106
0.376553
0.358544
0.341429
0.325191
0.520741
0.518386
0.513163
0.503738
0.491475
0.476996
0.460992
0.443934
0.426221
0.408116
0.389848
0.371687
0.354055
0.337382
0.321686
0.506233
0.504927
0.50086
0.492479
0.481175
0.467572
0.452369
0.436044
0.419001
0.4015
0.383759
0.366054
0.348853
0.332677
0.31759
0.489783
0.48971
0.486942
0.479737
0.469515
0.456901
0.442603
0.427105
0.410818
0.394
0.37686
0.359673
0.342954
0.327323
0.312909
0.471457
0.472792
0.471461
0.46556
0.456538
0.445023
0.431727
0.417147
0.4017
0.385643
0.369173
0.352565
0.336376
0.321336
0.307649
0.451331
0.454237
0.454475
0.450001
0.442293
0.431979
0.419782
0.406207
0.391679
0.376456
0.360724
0.344752
0.32914
0.314729
0.30182
0.42949
0.434114
0.436048
0.433121
0.426834
0.41782
0.406811
0.394321
0.380787
0.366468
0.351539
0.336263
0.32127
0.307521
0.295432
0.406025
0.412505
0.416252
0.414982
0.410218
0.402596
0.392859
0.381533
0.369064
0.355715
0.341652
0.327122
0.312787
0.299731
0.2885
0.381036
0.389494
0.395163
0.395657
0.39251
0.386366
0.37798
0.367888
0.356548
0.34423
0.331088
0.317358
0.303722
0.291383
0.281038
0.354629
0.365178
0.372867
0.375219
0.373776
0.369189
0.362225
0.353433
0.343284
0.332054
0.319891
0.307008
0.294102
0.282496
0.273063
0.326919
0.339654
0.349453
0.35375
0.354089
0.351131
0.345656
0.338223
0.32932
0.319228
0.308088
0.296096
0.283953
0.2731
0.264596
0.298025
0.313029
0.325016
0.331336
0.333525
0.332261
0.328332
0.322311
0.314699
0.305793
0.295726
0.284669
0.273319
0.263222
0.255657
0.268076
0.285416
0.299655
0.308065
0.312166
0.31265
0.310318
0.305756
0.299482
0.2918
0.282842
0.272751
0.262214
0.252884
0.246271
0.237204
0.25693
0.273477
0.284033
0.290095
0.292374
0.291682
0.288617
0.283714
0.27729
0.269475
0.26039
0.250696
0.242133
0.236463
0.205549
0.227696
0.24659
0.259337
0.267401
0.271511
0.272493
0.270959
0.267458
0.262324
0.255682
0.247622
0.238777
0.230973
0.226259
0.173256
0.197839
0.219109
0.23408
0.244174
0.250143
0.252823
0.252843
0.250768
0.246944
0.241494
0.234484
0.226512
0.21947
0.215693
0.140476
0.167493
0.191152
0.208366
0.220508
0.228352
0.232747
0.234337
0.233705
0.231213
0.22698
0.221034
0.213927
0.207617
0.204784
0.107364
0.136792
0.162838
0.182303
0.196499
0.206223
0.21234
0.215506
0.216327
0.21518
0.212174
0.207299
0.201057
0.195475
0.193575
0.0740794
0.105877
0.134293
0.156001
0.172244
0.183845
0.191678
0.196419
0.198694
0.198904
0.19715
0.193363
0.187964
0.183039
0.182066
0.0407851
0.0748896
0.105642
0.129572
0.147841
0.161303
0.17084
0.177141
0.180862
0.182432
0.181946
0.179258
0.174671
0.170333
0.17029
0.00764864
0.0439772
0.077013
0.103127
0.12339
0.138688
0.149905
0.157744
0.162889
0.165815
0.166623
0.165081
0.161303
0.157383
0.158196
-0.0251606
0.0132875
0.0485347
0.0767779
0.0989908
0.116086
0.128951
0.138296
0.144831
0.149092
0.151212
0.150866
0.14791
0.144211
0.145736
-0.0574681
-0.0170299
0.0203328
0.0506362
0.0747413
0.0935848
0.108057
0.11887
0.126751
0.132304
0.135738
0.13668
0.13468
0.131048
0.132697
-0.0890973
-0.04683
-0.00747037
0.0248127
0.0507404
0.07127
0.0872984
0.0995351
0.108712
0.115493
0.120209
0.122515
0.121654
0.11809
0.118834
-0.119861
-0.0759778
-0.034758
-0.000581086
0.027086
0.0492237
0.0667464
0.0803604
0.090781
0.0987146
0.104636
0.108338
0.108899
0.105842
0.104085
-0.149566
-0.104369
-0.0614168
-0.0254311
0.00387234
0.0275242
0.0464702
0.0614094
0.0730263
0.0820362
0.0890489
0.0940731
0.0962566
0.0943717
0.0889294
-0.177988
-0.131946
-0.0873274
-0.0496215
-0.0188128
0.00624601
0.0265353
0.0427404
0.0555077
0.0655304
0.0735073
0.0796868
0.0834851
0.0834173
0.0781584
-0.204892
-0.158719
-0.112349
-0.0730436
-0.0408926
-0.0145398
0.00700541
0.0244065
0.0382756
0.049263
0.058098
0.0652451
0.0704816
0.0726567
0.0697216
-0.230038
-0.184682
-0.136307
-0.0956173
-0.0623013
-0.0347631
-0.0120579
0.00645625
0.0213707
0.0332859
0.0429124
0.0508741
0.057306
0.0615028
0.0612043
-0.253446
-0.209453
-0.15903
-0.117305
-0.0829749
-0.0543539
-0.0305959
-0.0110652
0.00482722
0.0176352
0.028018
0.0366851
0.0440752
0.049835
0.0514736
-0.27517
-0.232517
-0.180458
-0.138079
-0.102839
-0.0732443
-0.0485557
-0.0281156
-0.0113241
0.00233309
0.013447
0.0227417
0.0308823
0.0377879
0.0407605
-0.295127
-0.253511
-0.200681
-0.157876
-0.121807
-0.0913742
-0.0658915
-0.0446557
-0.0270542
-0.0126059
-0.000792983
0.00906975
0.0177907
0.0255317
0.0296569
-0.31316
-0.272385
-0.219762
-0.176571
-0.139794
-0.108697
-0.0825648
-0.0606491
-0.0423348
-0.0271689
-0.0147028
-0.00432128
0.00485929
0.0132333
0.0184687
-0.329141
-0.289426
-0.237525
-0.194013
-0.156739
-0.12518
-0.0985428
-0.0760628
-0.0571387
-0.0413404
-0.0282793
-0.0174228
-0.00785769
0.00103176
0.00728288
-0.342998
-0.304792
-0.253853
-0.210101
-0.172617
-0.1408
-0.113796
-0.0908678
-0.0714404
-0.0551014
-0.0415111
-0.0302221
-0.0203239
-0.0109943
-0.00384645
-0.354698
-0.318464
-0.26858
-0.224939
-0.187441
-0.155539
-0.128301
-0.10504
-0.0852172
-0.0684311
-0.0543803
-0.042704
-0.0325241
-0.0228238
-0.0148684
-0.364242
-0.330367
-0.281689
-0.238586
-0.201261
-0.169387
-0.142041
-0.118562
-0.0984509
-0.0813108
-0.0668677
-0.0548519
-0.0444548
-0.0344585
-0.0257572
-0.371674
-0.34046
-0.293251
-0.251036
-0.214156
-0.182354
-0.155007
-0.131421
-0.111127
-0.0937259
-0.0789576
-0.0666477
-0.05611
-0.0459003
-0.0365063
-0.377093
-0.348782
-0.303369
-0.26231
-0.226086
-0.194532
-0.167207
-0.143617
-0.123237
-0.105667
-0.0906413
-0.078074
-0.0674675
-0.0571506
-0.0471063
-0.380664
-0.355441
-0.312167
-0.272461
-0.237035
-0.205887
-0.178719
-0.155162
-0.134778
-0.117128
-0.101918
-0.0891201
-0.0784777
-0.0682201
-0.0575438
-0.382623
-0.360622
-0.319804
-0.281573
-0.247022
-0.216396
-0.189525
-0.166107
-0.145771
-0.128105
-0.112793
-0.0997934
-0.0890863
-0.079104
-0.067827
-0.383263
-0.364587
-0.326468
-0.289735
-0.25609
-0.226063
-0.199605
-0.176442
-0.156237
-0.138619
-0.12327
-0.110123
-0.0992832
-0.0897327
-0.0780016
-0.382955
-0.367726
-0.332356
-0.297041
-0.264285
-0.234913
-0.208963
-0.186158
-0.166169
-0.148669
-0.133363
-0.120146
-0.109127
-0.0999616
-0.0881625
-0.382081
-0.370492
-0.337623
-0.303557
-0.271654
-0.242988
-0.217625
-0.195259
-0.175561
-0.158247
-0.143058
-0.12986
-0.118741
-0.109635
-0.0984101
-0.381137
-0.373106
-0.342337
-0.309319
-0.278242
-0.250337
-0.225628
-0.203761
-0.184415
-0.167348
-0.152339
-0.139234
-0.128079
-0.118888
-0.108688
-0.380595
-0.375616
-0.346463
-0.314324
-0.284084
-0.257009
-0.233013
-0.211689
-0.192741
-0.175974
-0.161194
-0.148237
-0.137113
-0.127899
-0.118633
-0.380767
-0.377946
-0.349877
-0.318531
-0.28921
-0.263053
-0.239818
-0.219069
-0.200558
-0.184133
-0.169624
-0.156864
-0.14584
-0.136697
-0.128014
-0.381694
-0.379819
-0.352349
-0.321877
-0.293649
-0.268515
-0.246073
-0.22592
-0.207878
-0.191838
-0.17764
-0.16512
-0.154254
-0.14523
-0.136816
-0.382988
-0.380625
-0.353555
-0.324306
-0.297448
-0.273429
-0.251793
-0.232255
-0.214721
-0.199106
-0.185257
-0.173014
-0.162343
-0.153452
-0.14514
-0.383698
-0.379283
-0.353117
-0.325812
-0.30067
-0.277813
-0.256976
-0.238082
-0.221104
-0.205957
-0.192492
-0.180554
-0.170096
-0.161348
-0.153104
-0.382411
-0.37452
-0.3508
-0.326508
-0.303368
-0.281647
-0.261613
-0.24342
-0.227054
-0.21241
-0.199356
-0.187748
-0.177519
-0.168928
-0.160784
-0.377659
-0.36545
-0.346759
-0.326636
-0.305534
-0.284875
-0.265701
-0.248299
-0.2326
-0.218484
-0.205857
-0.194605
-0.184629
-0.176224
-0.168229
-0.369571
-0.352519
-0.341987
-0.32647
-0.307054
-0.287452
-0.269285
-0.252772
-0.23777
-0.22419
-0.212004
-0.201137
-0.191452
-0.183273
-0.175482
-0.35934
-0.338498
-0.33822
-0.325983
-0.307788
-0.289428
-0.272463
-0.256899
-0.242587
-0.229539
-0.217809
-0.207359
-0.198008
-0.190104
-0.18257
-0.348722
-0.327866
-0.335894
-0.32476
-0.307762
-0.291003
-0.275381
-0.260732
-0.247059
-0.234536
-0.223284
-0.213291
-0.204319
-0.196742
-0.18952
-0.339141
-0.323287
-0.333871
-0.322486
-0.307287
-0.292481
-0.278163
-0.264293
-0.25119
-0.239188
-0.228445
-0.218951
-0.210408
-0.203209
-0.196361
-0.331372
-0.324065
-0.33019
-0.319356
-0.306935
-0.294163
-0.280867
-0.267576
-0.254976
-0.243501
-0.2333
-0.224352
-0.216288
-0.209528
-0.203139
-0.326002
-0.326485
-0.323769
-0.316211
-0.307353
-0.296163
-0.283445
-0.270561
-0.258428
-0.247492
-0.23786
-0.2295
-0.22197
-0.215706
-0.209875
-0.322557
-0.327682
-0.31562
-0.314583
-0.308883
-0.298329
-0.285816
-0.273244
-0.261551
-0.251159
-0.242127
-0.234398
-0.227453
-0.221748
-0.216581
-0.320411
-0.326646
-0.309391
-0.315848
-0.311093
-0.300351
-0.287947
-0.275647
-0.264352
-0.254501
-0.246095
-0.239047
-0.232744
-0.227647
-0.223243
-0.319133
-0.323616
-0.309135
-0.318798
-0.312946
-0.30212
-0.289894
-0.277765
-0.266789
-0.257482
-0.249752
-0.24344
-0.237843
-0.233416
-0.229861
-0.318244
-0.319633
-0.314074
-0.319978
-0.313859
-0.303794
-0.291706
-0.279544
-0.268809
-0.260071
-0.253075
-0.247571
-0.242751
-0.239051
-0.236446
-0.317271
-0.316408
-0.319136
-0.317486
-0.314371
-0.305633
-0.293251
-0.280822
-0.270305
-0.262216
-0.256044
-0.251417
-0.247468
-0.244582
-0.243035
-0.316093
-0.314543
-0.321487
-0.313763
-0.315969
-0.307487
-0.294261
-0.281454
-0.271208
-0.263869
-0.258622
-0.254967
-0.251987
-0.250008
-0.249674
-0.31454
-0.313818
-0.320503
-0.31435
-0.318779
-0.308687
-0.29442
-0.281279
-0.271409
-0.264972
-0.260775
-0.258178
-0.256307
-0.255378
-0.256392
-0.312547
-0.312741
-0.317376
-0.318902
-0.319728
-0.308614
-0.293658
-0.280213
-0.270836
-0.265454
-0.262446
-0.261031
-0.26041
-0.260702
-0.263242
-0.310176
-0.311236
-0.313827
-0.321602
-0.316817
-0.307062
-0.291744
-0.278066
-0.26938
-0.265254
-0.263576
-0.263469
-0.26431
-0.26604
-0.270243
-0.307568
-0.309033
-0.310975
-0.319755
-0.31302
-0.304688
-0.288467
-0.274734
-0.267005
-0.264279
-0.264096
-0.265479
-0.267994
-0.271434
-0.277496
-0.304758
-0.306324
-0.308271
-0.314111
-0.31123
-0.300389
-0.283514
-0.270267
-0.263704
-0.26246
-0.263912
-0.267024
-0.27153
-0.276962
-0.285053
-0.301896
-0.303462
-0.305249
-0.308348
-0.308894
-0.292983
-0.277365
-0.26504
-0.259536
-0.259685
-0.26298
-0.268139
-0.27496
-0.282737
-0.293061
-0.299214
-0.300762
-0.302224
-0.303765
-0.302483
-0.287071
-0.270952
-0.25943
-0.254609
-0.255919
-0.261256
-0.268896
-0.278435
-0.288851
-0.301637
-0.296988
-0.298518
-0.29969
-0.300319
-0.296854
-0.284617
-0.264366
-0.254235
-0.249074
-0.251186
-0.258869
-0.269439
-0.282094
-0.295505
-0.310918
-0.295505
-0.297041
-0.298032
-0.298153
-0.293739
-0.282254
-0.262024
-0.250359
-0.24321
-0.245728
-0.256026
-0.27002
-0.286158
-0.302816
-0.321103
-0.29506
-0.296617
-0.297614
-0.297638
-0.293085
-0.281358
-0.26527
-0.247703
-0.237683
-0.240169
-0.253153
-0.270905
-0.290886
-0.311034
-0.332316
-0.295809
-0.29745
-0.298693
-0.299025
-0.294991
-0.284162
-0.269003
-0.247732
-0.233751
-0.235271
-0.25078
-0.272454
-0.296523
-0.320364
-0.344771
-0.297727
-0.299482
-0.30124
-0.302368
-0.299465
-0.289998
-0.273813
-0.251707
-0.231986
-0.231889
-0.249453
-0.274979
-0.30339
-0.331005
-0.358656
-0.300542
-0.30237
-0.304794
-0.307032
-0.305929
-0.298201
-0.281649
-0.257719
-0.234747
-0.23091