/*--------------------------------*- C++ -*----------------------------------*\
  =========                 |
  \\      /  F ield         | OpenFOAM: The Open Source CFD Toolbox
   \\    /   O peration     | Website:  https://openfoam.org
    \\  /    A nd           | Version:  7
     \\/     M anipulation  |
\*---------------------------------------------------------------------------*/
FoamFile
{
    version     2.0;
    format      ascii;
    class       volScalarField;
    location    "17.0016";
    object      p;
}
// * * * * * * * * * * * * * * * * * * * * * * * * * * * * * * * * * * * * * //

dimensions      [0 2 -2 0 0 0 0];

internalField   nonuniform List<scalar> 
18750
(
-0.0301738
-0.0413334
-0.0610655
-0.0901216
-0.126869
-0.170561
-0.220096
-0.274493
-0.332683
-0.393702
-0.45651
-0.519921
-0.582554
-0.643099
-0.70063
-0.0346665
-0.0455317
-0.0649979
-0.093825
-0.130382
-0.173917
-0.223321
-0.2776
-0.335673
-0.396567
-0.459258
-0.522571
-0.585095
-0.645443
-0.702663
-0.0434555
-0.0537481
-0.072691
-0.101065
-0.137244
-0.180461
-0.229596
-0.283632
-0.341459
-0.402092
-0.464528
-0.527618
-0.58991
-0.649888
-0.706549
-0.0561615
-0.0656345
-0.0838138
-0.111524
-0.14714
-0.189877
-0.238596
-0.292248
-0.349687
-0.409904
-0.471917
-0.534622
-0.596541
-0.656016
-0.71196
-0.0722478
-0.0806942
-0.0978952
-0.124754
-0.159635
-0.201731
-0.249879
-0.302996
-0.359891
-0.419525
-0.48093
-0.543058
-0.604446
-0.663323
-0.71848
-0.0910586
-0.0983012
-0.114351
-0.140207
-0.174203
-0.215506
-0.262929
-0.315355
-0.37155
-0.430434
-0.491042
-0.552393
-0.613088
-0.671299
-0.725678
-0.111872
-0.117721
-0.132522
-0.157275
-0.190267
-0.230643
-0.277196
-0.328782
-0.384128
-0.442107
-0.501749
-0.562134
-0.621978
-0.679477
-0.733144
-0.133883
-0.138187
-0.15172
-0.175325
-0.207229
-0.246571
-0.292129
-0.342741
-0.397104
-0.454051
-0.512587
-0.57185
-0.630702
-0.687451
-0.740507
-0.156238
-0.158941
-0.17127
-0.193732
-0.224502
-0.262734
-0.3072
-0.356727
-0.409998
-0.465812
-0.523146
-0.581174
-0.638915
-0.694874
-0.747431
-0.178095
-0.179253
-0.190541
-0.211903
-0.241532
-0.278614
-0.321923
-0.370283
-0.422377
-0.476987
-0.533062
-0.589791
-0.646331
-0.701447
-0.753607
-0.198668
-0.198471
-0.208962
-0.229299
-0.257815
-0.293746
-0.335864
-0.383003
-0.433861
-0.487222
-0.542016
-0.597428
-0.652712
-0.706913
-0.75874
-0.217255
-0.216075
-0.226031
-0.245443
-0.272913
-0.307727
-0.348652
-0.394542
-0.444129
-0.496214
-0.549725
-0.603839
-0.65786
-0.711054
-0.762544
-0.23328
-0.231725
-0.241309
-0.259934
-0.286458
-0.320222
-0.359974
-0.404612
-0.452912
-0.503708
-0.555942
-0.6088
-0.661598
-0.713707
-0.764726
-0.246409
-0.245131
-0.254414
-0.272463
-0.29816
-0.330972
-0.369582
-0.41298
-0.459992
-0.509496
-0.56046
-0.612097
-0.663758
-0.714778
-0.764966
-0.256633
-0.255994
-0.265081
-0.282812
-0.307809
-0.339785
-0.377285
-0.419468
-0.465201
-0.513418
-0.563116
-0.613546
-0.664148
-0.714226
-0.763085
-0.264015
-0.264106
-0.27339
-0.290832
-0.315302
-0.346526
-0.38295
-0.423952
-0.468415
-0.515347
-0.563788
-0.613008
-0.662556
-0.711883
-0.759258
-0.268748
-0.269585
-0.279258
-0.296617
-0.320723
-0.351047
-0.38651
-0.426354
-0.469553
-0.515197
-0.562387
-0.610399
-0.658861
-0.707435
-0.753801
-0.271229
-0.272761
-0.282797
-0.30017
-0.323924
-0.353464
-0.387968
-0.426653
-0.468581
-0.51292
-0.558858
-0.605664
-0.652987
-0.700854
-0.746309
-0.272042
-0.27406
-0.284229
-0.301553
-0.324956
-0.353796
-0.387338
-0.424853
-0.465494
-0.508502
-0.553182
-0.598796
-0.644865
-0.692177
-0.736538
-0.271851
-0.27391
-0.283797
-0.300918
-0.323948
-0.352099
-0.384661
-0.420987
-0.460316
-0.50195
-0.545339
-0.589829
-0.63447
-0.681346
-0.724479
-0.271241
-0.272636
-0.281736
-0.298472
-0.321065
-0.348481
-0.380023
-0.415118
-0.453099
-0.4933
-0.5353
-0.578811
-0.621833
-0.668325
-0.710199
-0.270498
-0.27036
-0.278274
-0.294458
-0.316491
-0.343085
-0.373541
-0.407331
-0.443907
-0.48263
-0.523037
-0.565772
-0.607033
-0.653159
-0.693792
-0.269471
-0.266983
-0.273691
-0.289149
-0.310424
-0.336073
-0.36536
-0.397739
-0.432796
-0.470066
-0.508552
-0.550708
-0.590149
-0.635946
-0.675445
-0.267693
-0.262468
-0.268393
-0.282842
-0.303071
-0.327628
-0.355648
-0.386488
-0.419801
-0.45572
-0.49191
-0.533589
-0.571242
-0.616707
-0.655483
-0.264819
-0.257353
-0.262875
-0.275829
-0.29468
-0.317979
-0.34459
-0.373773
-0.404957
-0.439646
-0.473256
-0.514371
-0.550395
-0.59529
-0.634015
-0.260849
-0.252831
-0.257538
-0.268422
-0.285581
-0.307421
-0.33238
-0.35982
-0.388355
-0.421793
-0.452771
-0.492995
-0.527902
-0.571673
-0.610787
-0.256403
-0.249736
-0.252519
-0.261022
-0.276221
-0.296345
-0.319233
-0.344825
-0.370214
-0.402045
-0.430634
-0.469182
-0.504116
-0.54618
-0.585763
-0.252201
-0.247791
-0.247909
-0.254193
-0.267142
-0.285229
-0.305458
-0.328916
-0.350882
-0.38026
-0.407187
-0.442586
-0.478805
-0.519016
-0.559061
-0.248834
-0.246185
-0.244173
-0.248608
-0.258916
-0.274618
-0.291505
-0.31219
-0.330804
-0.356334
-0.382731
-0.413361
-0.451586
-0.489762
-0.532501
-0.246379
-0.24454
-0.241956
-0.244642
-0.252072
-0.265047
-0.27805
-0.294798
-0.310429
-0.330464
-0.357416
-0.381778
-0.42336
-0.45639
-0.505797
-0.24472
-0.243109
-0.241089
-0.242229
-0.247058
-0.256983
-0.265873
-0.277237
-0.290093
-0.303136
-0.331116
-0.349482
-0.394179
-0.421618
-0.474559
-0.243595
-0.242131
-0.240807
-0.241149
-0.244121
-0.250799
-0.255646
-0.260299
-0.270031
-0.275832
-0.303049
-0.318916
-0.3636
-0.391169
-0.444486
-0.242773
-0.241555
-0.240798
-0.241139
-0.243107
-0.246655
-0.247713
-0.24524
-0.25016
-0.250809
-0.272428
-0.290942
-0.329997
-0.363959
-0.419864
-0.242061
-0.241192
-0.241039
-0.241792
-0.243362
-0.244351
-0.241758
-0.2334
-0.231018
-0.228912
-0.24202
-0.264974
-0.299035
-0.339066
-0.395039
-0.24129
-0.240856
-0.241366
-0.24264
-0.244002
-0.243263
-0.237244
-0.224805
-0.214725
-0.209923
-0.217614
-0.241303
-0.274958
-0.319925
-0.368717
-0.240322
-0.240377
-0.241503
-0.243217
-0.244354
-0.242525
-0.233715
-0.218543
-0.202123
-0.194235
-0.199617
-0.222912
-0.256666
-0.304042
-0.347928
-0.239078
-0.239612
-0.241197
-0.243219
-0.244158
-0.241437
-0.230631
-0.21352
-0.19288
-0.182216
-0.186724
-0.210509
-0.243832
-0.289503
-0.332114
-0.237562
-0.238513
-0.240337
-0.242458
-0.243052
-0.239565
-0.227597
-0.20892
-0.186192
-0.174187
-0.178687
-0.202386
-0.235576
-0.277262
-0.318356
-0.23589
-0.237135
-0.238967
-0.240988
-0.241199
-0.23697
-0.22454
-0.204583
-0.181967
-0.170144
-0.175514
-0.198297
-0.230324
-0.267524
-0.306025
-0.234305
-0.235707
-0.237382
-0.239159
-0.238928
-0.234411
-0.222555
-0.202532
-0.180071
-0.170423
-0.176749
-0.197688
-0.22699
-0.260036
-0.295032
-0.233132
-0.234596
-0.236083
-0.237608
-0.237341
-0.233186
-0.223141
-0.204358
-0.182303
-0.174368
-0.180897
-0.199351
-0.225165
-0.254121
-0.285265
-0.232656
-0.234144
-0.235554
-0.237158
-0.237208
-0.233881
-0.226119
-0.208002
-0.188174
-0.180633
-0.186508
-0.202265
-0.22431
-0.249256
-0.276614
-0.233002
-0.234512
-0.235996
-0.237883
-0.238638
-0.2364
-0.229194
-0.213219
-0.195558
-0.188188
-0.192718
-0.205594
-0.223995
-0.245137
-0.268824
-0.234118
-0.235638
-0.237284
-0.239558
-0.241207
-0.240319
-0.230622
-0.218372
-0.203043
-0.195932
-0.198783
-0.208827
-0.223846
-0.241416
-0.261759
-0.235797
-0.237302
-0.23911
-0.241762
-0.24448
-0.244037
-0.233759
-0.222391
-0.20952
-0.202892
-0.204205
-0.211645
-0.223593
-0.237964
-0.255231
-0.23779
-0.23924
-0.241112
-0.244054
-0.248387
-0.24511
-0.237664
-0.225959
-0.214679
-0.208577
-0.208644
-0.213854
-0.2231
-0.234586
-0.2491
-0.23986
-0.241217
-0.242976
-0.246294
-0.251844
-0.246741
-0.240072
-0.228822
-0.218588
-0.212827
-0.211935
-0.215339
-0.222234
-0.231212
-0.243278
-0.241826
-0.243073
-0.24441
-0.248819
-0.251712
-0.249274
-0.241538
-0.230792
-0.221336
-0.215751
-0.214089
-0.216043
-0.220957
-0.227766
-0.237637
-0.243584
-0.244667
-0.245273
-0.251434
-0.249312
-0.24997
-0.242185
-0.231936
-0.223063
-0.217512
-0.215194
-0.215983
-0.219221
-0.224193
-0.232134
-0.245124
-0.245795
-0.246279
-0.252095
-0.248704
-0.248859
-0.241801
-0.232293
-0.223899
-0.218294
-0.215398
-0.215205
-0.217033
-0.220468
-0.226677
-0.246501
-0.246503
-0.247754
-0.249446
-0.250015
-0.247687
-0.240765
-0.23196
-0.223973
-0.21826
-0.214828
-0.213785
-0.21441
-0.216553
-0.221226
-0.247768
-0.246857
-0.249835
-0.244567
-0.249752
-0.246457
-0.239379
-0.231062
-0.223385
-0.217533
-0.213612
-0.211803
-0.211386
-0.21244
-0.215729
-0.248921
-0.247224
-0.251338
-0.242489
-0.247621
-0.24475
-0.23782
-0.229782
-0.222262
-0.21623
-0.211842
-0.209331
-0.208002
-0.208117
-0.210151
-0.249978
-0.248613
-0.250558
-0.245438
-0.246197
-0.242816
-0.236046
-0.228174
-0.220688
-0.214429
-0.209597
-0.206434
-0.204296
-0.203585
-0.204473
-0.251018
-0.25148
-0.247484
-0.249318
-0.24624
-0.241112
-0.234128
-0.226297
-0.218744
-0.212214
-0.206939
-0.203161
-0.200301
-0.198846
-0.198683
-0.252183
-0.25543
-0.24361
-0.2504
-0.246402
-0.239806
-0.232226
-0.224209
-0.216477
-0.20963
-0.203913
-0.199553
-0.196037
-0.193906
-0.192787
-0.253735
-0.258991
-0.243385
-0.249185
-0.24584
-0.238627
-0.230394
-0.221986
-0.213945
-0.206725
-0.200557
-0.195637
-0.191522
-0.18877
-0.186796
-0.256075
-0.260932
-0.248509
-0.248693
-0.244775
-0.23731
-0.228549
-0.219644
-0.211178
-0.203526
-0.196893
-0.191434
-0.186767
-0.183447
-0.180724
-0.259577
-0.2609
-0.256378
-0.250526
-0.244033
-0.235839
-0.226571
-0.217149
-0.208188
-0.200056
-0.192941
-0.186957
-0.18178
-0.177943
-0.174581
-0.264635
-0.259636
-0.263035
-0.253872
-0.244136
-0.234432
-0.224433
-0.214447
-0.204956
-0.196312
-0.188705
-0.182213
-0.176564
-0.172261
-0.168363
-0.271673
-0.258956
-0.267315
-0.257328
-0.244906
-0.233248
-0.222172
-0.211505
-0.201452
-0.192287
-0.184187
-0.177205
-0.17112
-0.166403
-0.162057
-0.280341
-0.262481
-0.269876
-0.260064
-0.245809
-0.232219
-0.219822
-0.208319
-0.197651
-0.18796
-0.179375
-0.171926
-0.165444
-0.16036
-0.155634
-0.29007
-0.271237
-0.272312
-0.261805
-0.246322
-0.231102
-0.217334
-0.204879
-0.19354
-0.183312
-0.174256
-0.166369
-0.159525
-0.154116
-0.149058
-0.299669
-0.28349
-0.2758
-0.262755
-0.246129
-0.229616
-0.214598
-0.201161
-0.189105
-0.17833
-0.168815
-0.160519
-0.153349
-0.14765
-0.142303
-0.307638
-0.295519
-0.28024
-0.263276
-0.24516
-0.227562
-0.211479
-0.197111
-0.18433
-0.173001
-0.163038
-0.154359
-0.146893
-0.14094
-0.135355
-0.312835
-0.304552
-0.284288
-0.263472
-0.243516
-0.224866
-0.207873
-0.192668
-0.17919
-0.167314
-0.156913
-0.147872
-0.140134
-0.133964
-0.128202
-0.315006
-0.309864
-0.286912
-0.263141
-0.241301
-0.22155
-0.203727
-0.187778
-0.173654
-0.161253
-0.15043
-0.141043
-0.133049
-0.126694
-0.120822
-0.315167
-0.312013
-0.287842
-0.262056
-0.238539
-0.21766
-0.199029
-0.182403
-0.167692
-0.154801
-0.143577
-0.133861
-0.125625
-0.119105
-0.113155
-0.314547
-0.312025
-0.287212
-0.260089
-0.235189
-0.213217
-0.193783
-0.176523
-0.161278
-0.147939
-0.136343
-0.126321
-0.117861
-0.11118
-0.105102
-0.314015
-0.310833
-0.28532
-0.257222
-0.231197
-0.208211
-0.187991
-0.170125
-0.154391
-0.140646
-0.128712
-0.11842
-0.109773
-0.10294
-0.096538
-0.313971
-0.309016
-0.282439
-0.253487
-0.226513
-0.202612
-0.181639
-0.163196
-0.147011
-0.132903
-0.120672
-0.110154
-0.101378
-0.0944429
-0.0873786
-0.314425
-0.306855
-0.278775
-0.248935
-0.221108
-0.19638
-0.174705
-0.155719
-0.139125
-0.124699
-0.112214
-0.10152
-0.0926858
-0.0857399
-0.07767
-0.315129
-0.304445
-0.274448
-0.243597
-0.214951
-0.189472
-0.167154
-0.147672
-0.130715
-0.116025
-0.103341
-0.0925313
-0.0837037
-0.07678
-0.0676771
-0.315679
-0.301763
-0.269497
-0.23748
-0.208009
-0.181841
-0.158949
-0.139031
-0.121776
-0.106884
-0.094064
-0.0832163
-0.0744603
-0.0673752
-0.0577457
-0.315638
-0.29863
-0.263873
-0.230552
-0.200241
-0.173441
-0.150054
-0.129783
-0.112307
-0.0972852
-0.0844016
-0.0736057
-0.0649726
-0.0574623
-0.0479028
-0.314659
-0.29465
-0.257444
-0.222758
-0.191606
-0.164235
-0.140446
-0.119927
-0.10232
-0.0872368
-0.0743688
-0.0636915
-0.0551407
-0.0471949
-0.0380537
-0.312406
-0.28948
-0.25004
-0.214018
-0.182062
-0.154201
-0.130121
-0.10948
-0.0918224
-0.076733
-0.0639529
-0.0534441
-0.044921
-0.0367063
-0.028119
-0.308607
-0.282881
-0.241497
-0.204254
-0.171573
-0.143343
-0.119105
-0.0984544
-0.0807832
-0.0657628
-0.0531495
-0.0428405
-0.0343293
-0.0260563
-0.0180628
-0.303045
-0.274686
-0.231673
-0.193397
-0.160128
-0.131694
-0.107435
-0.0867773
-0.0691913
-0.0543311
-0.0419565
-0.0318767
-0.0234172
-0.0152457
-0.00788141
-0.29557
-0.264798
-0.220458
-0.181401
-0.147748
-0.119272
-0.0950249
-0.0744572
-0.057053
-0.0424463
-0.0303776
-0.0205634
-0.0122252
-0.00426056
0.00242164
-0.286093
-0.253192
-0.207761
-0.168256
-0.134479
-0.105983
-0.0818653
-0.061504
-0.0443818
-0.03012
-0.0184236
-0.00891721
-0.000768735
0.00690892
0.0128445
-0.274579
-0.239915
-0.193526
-0.153966
-0.12023
-0.0918369
-0.0679665
-0.0479306
-0.0311945
-0.0173684
-0.00611005
0.00304547
0.0109473
0.0182687
0.023374
-0.261029
-0.225049
-0.177768
-0.13846
-0.104969
-0.0768501
-0.0533505
-0.0337554
-0.0175107
-0.00420939
0.00654744
0.0153106
0.0229123
0.0298037
0.0339725
-0.245481
-0.208599
-0.160624
-0.121675
-0.0886945
-0.0610437
-0.0380453
-0.0190036
-0.00335287
0.00933967
0.0195382
0.0278675
0.0350977
0.0414484
0.0445865
-0.228013
-0.190374
-0.142241
-0.103712
-0.0714371
-0.0444434
-0.0220829
-0.00370557
0.0112545
0.0232642
0.0328588
0.0407088
0.0474565
0.053078
0.05512
-0.208756
-0.170072
-0.122824
-0.0847204
-0.0532591
-0.0270841
-0.00549868
0.0121046
0.0262853
0.0375516
0.0465086
0.0538241
0.0599321
0.0645343
0.0652905
-0.187869
-0.147831
-0.102251
-0.0648159
-0.0342444
-0.00901453
0.0116673
0.0283903
0.0417121
0.0521883
0.0604795
0.067185
0.0724565
0.0756486
0.0745856
-0.165482
-0.123969
-0.0804521
-0.0440582
-0.0144783
0.00970434
0.0293685
0.0451128
0.0575064
0.0671539
0.0747417
0.0807288
0.0849324
0.086283
0.0828226
-0.141137
-0.0993283
-0.0575486
-0.0224793
0.00596683
0.0290049
0.047552
0.0622306
0.0736367
0.0824163
0.0892348
0.0943524
0.0972457
0.0965349
0.0910154
-0.115246
-0.073852
-0.0336779
-0.000121891
0.0270273
0.0488183
0.0661603
0.0796992
0.0900657
0.0979285
0.103876
0.107943
0.109347
0.106941
0.10126
-0.0880123
-0.0475799
-0.00899458
0.0229317
0.0486362
0.0690757
0.0851327
0.0974691
0.106747
0.113631
0.118586
0.121442
0.121337
0.117799
0.115403
-0.0596463
-0.0205398
0.0163699
0.0465758
0.0707164
0.0897068
0.104407
0.115486
0.123625
0.129456
0.13331
0.13488
0.133444
0.129379
0.129195
-0.0303447
0.00718792
0.0422981
0.0706987
0.0931811
0.110638
0.123916
0.133688
0.140638
0.145341
0.148016
0.148324
0.145813
0.141634
0.142245
-0.000290093
0.0354874
0.0686757
0.0951896
0.115938
0.131791
0.143592
0.152012
0.15772
0.161233
0.162694
0.161802
0.158384
0.15411
0.154631
0.0303412
0.0642223
0.0953851
0.119939
0.13889
0.153085
0.163363
0.170389
0.17481
0.177089
0.177334
0.175321
0.171118
0.166625
0.166539
0.0613786
0.0932494
0.122305
0.144839
0.161942
0.174436
0.183154
0.188752
0.19185
0.19287
0.191909
0.188821
0.183849
0.178972
0.178133
0.0926541
0.122423
0.14931
0.169779
0.184997
0.195757
0.202889
0.207031
0.208784
0.208535
0.206388
0.202266
0.196528
0.19112
0.189445
0.124003
0.151599
0.176277
0.19465
0.207957
0.216963
0.222489
0.225161
0.225554
0.224036
0.220715
0.215569
0.209039
0.203036
0.200516
0.155264
0.180636
0.203079
0.219343
0.230725
0.237968
0.24188
0.243074
0.242105
0.239326
0.234851
0.228696
0.221356
0.214688
0.211311
0.186278
0.209395
0.229595
0.243749
0.253206
0.258686
0.260986
0.260703
0.258378
0.254346
0.248726
0.241568
0.233419
0.226077
0.221828
0.216892
0.237742
0.255705
0.267762
0.275305
0.279032
0.279731
0.277984
0.274316
0.26905
0.262306
0.254158
0.24519
0.237144
0.232025
0.246956
0.265545
0.28129
0.291277
0.296928
0.298925
0.298043
0.29485
0.289859
0.283376
0.275524
0.266408
0.256642
0.24789
0.241881
0.276325
0.292678
0.306239
0.314192
0.317987
0.318285
0.31585
0.31124
0.304952
0.29728
0.288347
0.278281
0.267722
0.258255
0.251364
0.304859
0.319017
0.330442
0.336412
0.338392
0.337032
0.333082
0.32709
0.319535
0.310703
0.30072
0.289739
0.278413
0.268229
0.260446
0.332426
0.344446
0.353793
0.35784
0.358061
0.355091
0.349673
0.342341
0.33356
0.323603
0.312604
0.300737
0.288663
0.277769
0.269102
0.358897
0.368853
0.376192
0.378386
0.376911
0.372392
0.365558
0.356932
0.346969
0.335931
0.323959
0.311247
0.298452
0.286851
0.277307
0.384152
0.392132
0.397545
0.397967
0.394868
0.388864
0.380675
0.370813
0.359716
0.347644
0.334741
0.321224
0.307739
0.295446
0.28504
0.408076
0.414181
0.41776
0.416499
0.411857
0.404443
0.394965
0.383927
0.371755
0.358701
0.344921
0.330644
0.316496
0.303526
0.29228
0.430562
0.434907
0.436754
0.433908
0.427811
0.419067
0.408376
0.396227
0.383039
0.369061
0.354456
0.339468
0.324696
0.311071
0.299009
0.451511
0.454223
0.454448
0.450122
0.442666
0.43268
0.420853
0.407667
0.393531
0.37869
0.363319
0.347669
0.332309
0.318055
0.305213
0.470829
0.472048
0.47077
0.465077
0.456363
0.445228
0.43235
0.418205
0.40319
0.387553
0.371477
0.35522
0.339311
0.32446
0.310876
0.488432
0.48831
0.485655
0.478713
0.46885
0.456662
0.442825
0.427801
0.411984
0.395619
0.378903
0.362093
0.34568
0.330267
0.315987
0.504241
0.502947
0.499046
0.490976
0.480075
0.46694
0.452236
0.43642
0.419879
0.402861
0.385571
0.368267
0.351395
0.335461
0.320538
0.518193
0.5159
0.510888
0.501817
0.489996
0.47602
0.460549
0.444031
0.426849
0.409253
0.391458
0.373719
0.356436
0.340028
0.32452
0.530246
0.527107
0.521133
0.511191
0.498573
0.483869
0.467732
0.450606
0.432869
0.414774
0.396543
0.378429
0.360787
0.343956
0.327928
0.540366
0.536511
0.529735
0.519061
0.505772
0.490455
0.473759
0.456122
0.437918
0.419403
0.400809
0.382382
0.364435
0.347236
0.330761
0.548516
0.544075
0.536657
0.525394
0.511565
0.495755
0.478608
0.460558
0.441977
0.423126
0.404241
0.385562
0.367365
0.349862
0.33302
0.55466
0.549771
0.541872
0.530165
0.515929
0.499747
0.48226
0.463899
0.445034
0.42593
0.406826
0.387958
0.36957
0.351831
0.334708
0.558771
0.55358
0.54536
0.533357
0.518848
0.502417
0.484702
0.466133
0.447078
0.427804
0.408555
0.38956
0.371044
0.353142
0.33583
0.560831
0.555488
0.547107
0.534955
0.520311
0.503755
0.485926
0.467252
0.448102
0.428743
0.409421
0.390363
0.371781
0.353798
0.33639
0.560831
0.555488
0.547107
0.534955
0.520311
0.503755
0.485926
0.467252
0.448102
0.428743
0.409421
0.390363
0.371781
0.353798
0.33639
0.558771
0.553581
0.545361
0.533357
0.518849
0.502418
0.484703
0.466134
0.447079
0.427805
0.408555
0.389561
0.371044
0.353143
0.335831
0.55466
0.549772
0.541873
0.530166
0.51593
0.499748
0.482261
0.4639
0.445035
0.425931
0.406827
0.387959
0.369571
0.351832
0.334709
0.548517
0.544076
0.536659
0.525395
0.511566
0.495756
0.478609
0.460559
0.441979
0.423128
0.404242
0.385564
0.367367
0.349863
0.333021
0.540368
0.536513
0.529737
0.519063
0.505774
0.490457
0.473761
0.456124
0.437919
0.419405
0.400811
0.382384
0.364436
0.347238
0.330763
0.530248
0.527109
0.521135
0.511193
0.498575
0.483871
0.467734
0.450609
0.432871
0.414776
0.396545
0.378431
0.36079
0.343958
0.32793
0.518196
0.515902
0.510891
0.501819
0.489999
0.476023
0.460551
0.444034
0.426852
0.409256
0.39146
0.373721
0.356439
0.34003
0.324522
0.504244
0.50295
0.499048
0.490979
0.480078
0.466943
0.452239
0.436423
0.419882
0.402864
0.385574
0.36827
0.351398
0.335464
0.320541
0.488435
0.488313
0.485658
0.478717
0.468853
0.456666
0.442828
0.427804
0.411987
0.395623
0.378906
0.362097
0.345684
0.33027
0.315991
0.470833
0.472051
0.470773
0.465081
0.456367
0.445231
0.432354
0.418208
0.403194
0.387557
0.371481
0.355224
0.339315
0.324463
0.310879
0.451515
0.454227
0.454452
0.450126
0.44267
0.432684
0.420857
0.407672
0.393535
0.378694
0.363323
0.347673
0.332313
0.318059
0.305217
0.430567
0.434912
0.436758
0.433912
0.427815
0.419072
0.40838
0.396232
0.383044
0.369065
0.354461
0.339473
0.3247
0.311075
0.299014
0.408081
0.414186
0.417765
0.416504
0.411862
0.404448
0.39497
0.383932
0.37176
0.358706
0.344926
0.330649
0.316501
0.303531
0.292284
0.384157
0.392137
0.39755
0.397972
0.394873
0.388869
0.38068
0.370818
0.359722
0.347649
0.334747
0.32123
0.307744
0.295451
0.285045
0.358903
0.368859
0.376198
0.378392
0.376917
0.372398
0.365564
0.356938
0.346974
0.335937
0.323965
0.311253
0.298458
0.286856
0.277312
0.332432
0.344453
0.353799
0.357846
0.358067
0.355098
0.34968
0.342347
0.333566
0.32361
0.31261
0.300743
0.288669
0.277775
0.269108
0.304866
0.319024
0.330449
0.336418
0.338399
0.337038
0.333089
0.327097
0.319542
0.310709
0.300726
0.289746
0.27842
0.268236
0.260452
0.276332
0.292685
0.306247
0.3142
0.317994
0.318292
0.315857
0.311248
0.304959
0.297287
0.288354
0.278288
0.267729
0.258262
0.251371
0.246964
0.265553
0.281298
0.291284
0.296936
0.298933
0.29805
0.294858
0.289866
0.283384
0.275532
0.266416
0.25665
0.247897
0.241889
0.216901
0.237751
0.255713
0.26777
0.275313
0.279041
0.279739
0.277992
0.274324
0.269058
0.262314
0.254166
0.245198
0.237151
0.232033
0.186288
0.209405
0.229604
0.243758
0.253215
0.258695
0.260994
0.260712
0.258386
0.254355
0.248735
0.241577
0.233427
0.226085
0.221836
0.155274
0.180646
0.203089
0.219353
0.230735
0.237977
0.24189
0.243083
0.242114
0.239335
0.23486
0.228704
0.221365
0.214696
0.21132
0.124014
0.151609
0.176287
0.194661
0.207967
0.216973
0.222499
0.225171
0.225564
0.224045
0.220725
0.215578
0.209048
0.203045
0.200525
0.0926654
0.122434
0.149321
0.16979
0.185008
0.195768
0.202899
0.207042
0.208794
0.208545
0.206398
0.202276
0.196537
0.19113
0.189454
0.0613906
0.0932611
0.122316
0.14485
0.161954
0.174447
0.183165
0.188763
0.191861
0.19288
0.191919
0.188831
0.183859
0.178982
0.178142
0.030354
0.0642348
0.0953974
0.119951
0.138902
0.153097
0.163375
0.170401
0.174822
0.1771
0.177345
0.175332
0.171128
0.166636
0.166549
-0.000276557
0.0355006
0.0686886
0.0952023
0.11595
0.131803
0.143605
0.152024
0.157732
0.161244
0.162705
0.161814
0.158395
0.154121
0.154642
-0.0303304
0.0072019
0.0423118
0.0707122
0.0931944
0.110651
0.123929
0.133701
0.14065
0.145353
0.148028
0.148336
0.145825
0.141646
0.142256
-0.0596311
-0.020525
0.0163844
0.04659
0.0707304
0.0897205
0.10442
0.115499
0.123638
0.129469
0.133322
0.134893
0.133456
0.129391
0.129207
-0.0879962
-0.0475643
-0.00897925
0.0229467
0.0486509
0.0690901
0.0851469
0.097483
0.106761
0.113644
0.118599
0.121455
0.12135
0.117811
0.115415
-0.115229
-0.0738354
-0.0336618
-0.000106111
0.0270427
0.0488334
0.066175
0.0797137
0.0900799
0.0979425
0.103889
0.107956
0.10936
0.106954
0.101273
-0.141119
-0.0993108
-0.0575315
-0.0224628
0.00598299
0.0290207
0.0475674
0.0622457
0.0736515
0.0824308
0.089249
0.0943663
0.0972593
0.0965483
0.0910287
-0.165464
-0.123951
-0.0804341
-0.0440409
-0.0144614
0.00972082
0.0293846
0.0451285
0.0575218
0.067169
0.0747565
0.0807432
0.0849466
0.0862968
0.0828363
-0.187849
-0.147812
-0.102232
-0.0647977
-0.0342267
-0.00899732
0.0116841
0.0284067
0.0417281
0.0522039
0.0604948
0.0672
0.0724711
0.0756629
0.0745997
-0.208735
-0.170051
-0.122804
-0.0847015
-0.0532407
-0.0270662
-0.00548122
0.0121217
0.0263019
0.0375678
0.0465244
0.0538396
0.0599472
0.064549
0.065305
-0.227991
-0.190353
-0.14222
-0.103692
-0.0714179
-0.0444247
-0.0220648
-0.00368789
0.0112718
0.023281
0.0328752
0.0407248
0.0474722
0.0530932
0.0551349
-0.245458
-0.208576
-0.160602
-0.121654
-0.0886745
-0.0610243
-0.0380264
-0.0189853
-0.003335
0.00935709
0.0195552
0.0278841
0.0351138
0.0414641
0.0446019
-0.261005
-0.225026
-0.177746
-0.138439
-0.104948
-0.0768299
-0.0533309
-0.0337364
-0.0174923
-0.00419138
0.00656499
0.0153277
0.022929
0.0298199
0.0339883
-0.274553
-0.239891
-0.193503
-0.153944
-0.120208
-0.091816
-0.0679463
-0.0479109
-0.0311754
-0.0173498
-0.00609192
0.00306314
0.0109645
0.0182854
0.0233903
-0.286067
-0.253166
-0.207737
-0.168233
-0.134457
-0.105962
-0.0818444
-0.0614837
-0.044362
-0.0301008
-0.0184049
-0.008899
-0.000751007
0.00692614
0.0128612
-0.295542
-0.264772
-0.220432
-0.181377
-0.147725
-0.119249
-0.0950032
-0.0744363
-0.0570327
-0.0424265
-0.0303583
-0.0205446
-0.012207
-0.00424285
0.00243887
-0.303016
-0.274658
-0.231647
-0.193372
-0.160104
-0.131671
-0.107412
-0.0867557
-0.0691703
-0.0543108
-0.0419367
-0.0318574
-0.0233984
-0.0152275
-0.0078637
-0.308576
-0.282852
-0.24147
-0.204228
-0.171549
-0.14332
-0.119082
-0.0984322
-0.0807616
-0.0657418
-0.0531291
-0.0428207
-0.0343101
-0.0260376
-0.0180447
-0.312375
-0.28945
-0.250012
-0.213992
-0.182036
-0.154176
-0.130097
-0.109458
-0.0918002
-0.0767114
-0.063932
-0.0534237
-0.0449012
-0.0366871
-0.0281003
-0.314627
-0.29462
-0.257415
-0.22273
-0.19158
-0.16421
-0.140422
-0.119903
-0.102297
-0.0872147
-0.0743474
-0.0636706
-0.0551204
-0.0471753
-0.0380346
-0.315606
-0.298598
-0.263843
-0.230524
-0.200214
-0.173416
-0.150029
-0.129759
-0.112283
-0.0972625
-0.0843796
-0.0735843
-0.0649518
-0.0574422
-0.0478833
-0.315646
-0.301731
-0.269467
-0.237451
-0.207981
-0.181814
-0.158924
-0.139007
-0.121752
-0.106861
-0.0940414
-0.0831944
-0.0744389
-0.0673545
-0.0577257
-0.315095
-0.304412
-0.274417
-0.243568
-0.214922
-0.189445
-0.167128
-0.147646
-0.130691
-0.116001
-0.103318
-0.0925089
-0.0836819
-0.0767588
-0.0676567
-0.314391
-0.306822
-0.278744
-0.248905
-0.221079
-0.196352
-0.174678
-0.155693
-0.139099
-0.124674
-0.11219
-0.101497
-0.0926635
-0.0857182
-0.0776493
-0.313937
-0.308983
-0.282407
-0.253456
-0.226484
-0.202583
-0.181612
-0.163169
-0.146986
-0.132878
-0.120647
-0.11013
-0.101356
-0.0944208
-0.0873573
-0.31398
-0.310799
-0.285287
-0.25719
-0.231166
-0.208182
-0.187963
-0.170098
-0.154364
-0.14062
-0.128687
-0.118396
-0.10975
-0.102917
-0.0965162
-0.314512
-0.31199
-0.287179
-0.260057
-0.235159
-0.213187
-0.193755
-0.176495
-0.161251
-0.147913
-0.136317
-0.126297
-0.117837
-0.111157
-0.105079
-0.315132
-0.311978
-0.287807
-0.262023
-0.238507
-0.21763
-0.199
-0.182375
-0.167665
-0.154775
-0.143551
-0.133836
-0.1256
-0.119081
-0.113132
-0.314971
-0.309827
-0.286877
-0.263108
-0.241269
-0.22152
-0.203697
-0.187749
-0.173626
-0.161226
-0.150404
-0.141017
-0.133024
-0.12667
-0.120799
-0.312798
-0.304514
-0.284252
-0.263438
-0.243483
-0.224835
-0.207843
-0.192639
-0.179162
-0.167286
-0.156886
-0.147846
-0.140109
-0.133939
-0.128179
-0.3076
-0.295479
-0.280203
-0.263241
-0.245127
-0.22753
-0.211448
-0.197081
-0.184302
-0.172973
-0.163011
-0.154333
-0.146867
-0.140915
-0.13533
-0.29963
-0.28345
-0.275763
-0.26272
-0.246095
-0.229583
-0.214567
-0.201131
-0.189076
-0.178302
-0.168787
-0.160492
-0.153323
-0.147624
-0.142278
-0.290031
-0.271197
-0.272276
-0.26177
-0.246288
-0.231069
-0.217302
-0.204849
-0.19351
-0.183283
-0.174228
-0.166342
-0.159499
-0.15409
-0.149033
-0.280301
-0.262442
-0.269839
-0.260028
-0.245774
-0.232186
-0.21979
-0.208288
-0.197621
-0.18793
-0.179346
-0.171899
-0.165417
-0.160334
-0.155608
-0.271634
-0.258919
-0.267278
-0.257292
-0.244871
-0.233214
-0.222139
-0.211474
-0.201421
-0.192258
-0.184158
-0.177176
-0.171093
-0.166377
-0.162031
-0.264596
-0.2596
-0.262997
-0.253835
-0.244101
-0.234398
-0.2244
-0.214415
-0.204925
-0.196282
-0.188676
-0.182185
-0.176536
-0.172234
-0.168337
-0.259539
-0.260864
-0.256339
-0.250489
-0.243999
-0.235805
-0.226538
-0.217117
-0.208157
-0.200025
-0.192911
-0.186928
-0.181752
-0.177915
-0.174554
-0.256038
-0.260896
-0.248469
-0.248657
-0.24474
-0.237276
-0.228516
-0.219612
-0.211146
-0.203495
-0.196863
-0.191404
-0.186738
-0.183419
-0.180697
-0.253698
-0.258954
-0.243348
-0.24915
-0.245805
-0.238593
-0.230361
-0.221953
-0.213913
-0.206694
-0.200526
-0.195607
-0.191493
-0.188742
-0.186768
-0.252146
-0.255392
-0.243574
-0.250364
-0.246367
-0.239771
-0.232193
-0.224176
-0.216445
-0.209598
-0.203882
-0.199522
-0.196007
-0.193877
-0.192759
-0.250981
-0.251442
-0.247449
-0.24928
-0.246205
-0.241078
-0.234094
-0.226264
-0.218711
-0.212182
-0.206907
-0.20313
-0.20027
-0.198816
-0.198654
-0.249941
-0.248575
-0.250522
-0.245399
-0.246162
-0.242781
-0.236012
-0.228141
-0.220655
-0.214397
-0.209565
-0.206402
-0.204265
-0.203555
-0.204444
-0.248884
-0.247187
-0.251302
-0.242452
-0.247587
-0.244715
-0.237786
-0.229749
-0.222228
-0.216197
-0.211809
-0.209299
-0.207971
-0.208086
-0.210122
-0.247731
-0.246821
-0.249798
-0.244532
-0.249717
-0.246422
-0.239345
-0.231028
-0.223351
-0.2175
-0.213579
-0.21177
-0.211354
-0.212409
-0.215698
-0.246464
-0.246466
-0.247717
-0.249411
-0.249979
-0.247652
-0.240731
-0.231926
-0.223939
-0.218226
-0.214795
-0.213752
-0.214377
-0.21652
-0.221195
-0.245088
-0.245759
-0.246243
-0.252059
-0.248668
-0.248825
-0.241767
-0.232259
-0.223865
-0.21826
-0.215363
-0.21517
-0.217
-0.220435
-0.226645
-0.243548
-0.24463
-0.245237
-0.251397
-0.249277
-0.249935
-0.242151
-0.231902
-0.223029
-0.217477
-0.215159
-0.215948
-0.219186
-0.224159
-0.232102
-0.24179
-0.243036
-0.244373
-0.248782
-0.251678
-0.249239
-0.241503
-0.230757
-0.221301
-0.215716
-0.214053
-0.216007
-0.220922
-0.227732
-0.237604
-0.239823
-0.241181
-0.242939
-0.246257
-0.251808
-0.246706
-0.240037
-0.228787
-0.218552
-0.212791
-0.211898
-0.215302
-0.222198
-0.231177
-0.243243
-0.237753
-0.239203
-0.241075
-0.244018
-0.24835
-0.245075
-0.237628
-0.225924
-0.214643
-0.20854
-0.208606
-0.213816
-0.223062
-0.234549
-0.249065
-0.23576
-0.237265
-0.239073
-0.241725
-0.244444
-0.244002
-0.233724
-0.222356
-0.209484
-0.202854
-0.204166
-0.211606
-0.223554
-0.237925
-0.255194
-0.234081
-0.2356
-0.237247
-0.239522
-0.241172
-0.240283
-0.230587
-0.218337
-0.203006
-0.195892
-0.198742
-0.208786
-0.223805
-0.241377
-0.261722
-0.232965
-0.234475
-0.235959
-0.237847
-0.238602
-0.236364
-0.22916
-0.213184
-0.19552
-0.188148
-0.192676
-0.205551
-0.223952
-0.245096
-0.268786
-0.232619
-0.234107
-0.235517
-0.237122
-0.237173
-0.233847
-0.226086
-0.207967
-0.188136
-0.180592
-0.186464
-0.20222
-0.224265
-0.249214
-0.276575
-0.233095
-0.23456
-0.236047
-0.237573
-0.237307
-0.233152
-0.223108
-0.204324
-0.182266
-0.174327
-0.180852
-0.199303
-0.225118
-0.254077
-0.285224
-0.234269
-0.235671
-0.237347
-0.239125
-0.238894
-0.234379
-0.222524
-0.2025
-0.180034
-0.170381
-0.176702
-0.197638
-0.226941
-0.259989
-0.29499
-0.235854
-0.237099
-0.238932
-0.240954
-0.241166
-0.236939
-0.22451
-0.204552