/*--------------------------------*- C++ -*----------------------------------*\
  =========                 |
  \\      /  F ield         | OpenFOAM: The Open Source CFD Toolbox
   \\    /   O peration     | Website:  https://openfoam.org
    \\  /    A nd           | Version:  7
     \\/     M anipulation  |
\*---------------------------------------------------------------------------*/
FoamFile
{
    version     2.0;
    format      ascii;
    class       surfaceScalarField;
    location    "17.0016";
    object      phi;
}
// * * * * * * * * * * * * * * * * * * * * * * * * * * * * * * * * * * * * * //

dimensions      [0 3 -1 0 0 0 0];

internalField   nonuniform List<scalar> 
37105
(
-1.21237e-05
1.21228e-05
8.92213e-10
-2.81017e-05
1.59746e-05
3.39258e-09
-4.46726e-05
1.65642e-05
6.59474e-09
-6.20441e-05
1.73613e-05
1.01861e-08
-8.03062e-05
1.82482e-05
1.39136e-08
-9.95084e-05
1.91846e-05
1.7592e-08
-0.000119663
2.01338e-05
2.10739e-08
-0.000140742
2.10542e-05
2.42355e-08
-0.000162696
2.19273e-05
2.70042e-08
-0.000185465
2.27396e-05
2.93455e-08
-0.000208991
2.34952e-05
3.1277e-08
-0.000233202
2.41772e-05
3.28432e-08
-0.000258003
2.47678e-05
3.41422e-08
-0.000283321
2.52821e-05
3.5324e-08
2.58446e-05
3.65216e-08
-0.000309202
-1.19285e-05
2.40513e-05
-2.77162e-05
3.17623e-05
-4.40951e-05
3.29432e-05
-6.12505e-05
3.45167e-05
-7.92663e-05
3.6264e-05
-9.81821e-05
3.81004e-05
-0.000118001
3.99529e-05
-0.000138685
4.17376e-05
-0.000160174
4.34165e-05
-0.000182395
4.49605e-05
-0.000205278
4.63782e-05
-0.000228744
4.76439e-05
-0.000252709
4.87321e-05
-0.000277096
4.96694e-05
5.06813e-05
-0.000301933
-1.15421e-05
3.55934e-05
-2.69537e-05
4.71739e-05
-4.29548e-05
4.89443e-05
-5.96871e-05
5.1249e-05
-7.72237e-05
5.38006e-05
-9.55867e-05
5.64635e-05
-0.000114763
5.91295e-05
-0.000134698
6.16727e-05
-0.000155316
6.40342e-05
-0.000176522
6.61669e-05
-0.00019823
6.80858e-05
-0.000220355
6.97687e-05
-0.000242823
7.12006e-05
-0.000265566
7.24123e-05
7.36773e-05
-0.000288562
-1.09733e-05
4.65667e-05
-2.58315e-05
6.20321e-05
-4.12791e-05
6.43919e-05
-5.7398e-05
6.73679e-05
-7.42468e-05
7.06494e-05
-9.18252e-05
7.40419e-05
-0.000110101
7.74054e-05
-0.000129002
8.05732e-05
-0.000148434
8.34662e-05
-0.000168284
8.60176e-05
-0.00018845
8.82511e-05
-0.000208844
9.0163e-05
-0.000229412
9.17684e-05
-0.000250096
9.30961e-05
9.44121e-05
-0.00027083
-1.02378e-05
5.68045e-05
-2.43727e-05
7.6167e-05
-3.91049e-05
7.91241e-05
-5.44426e-05
8.27057e-05
-7.04257e-05
8.66325e-05
-8.70294e-05
9.06456e-05
-0.000104202
9.45784e-05
-0.000121856
9.82272e-05
-0.000139885
0.000101495
-0.000158164
0.000104297
-0.000176579
0.000106666
-0.000195047
0.000108631
-0.000213534
0.000110255
-0.000232004
0.000111567
0.000112789
-0.000250382
-9.37155e-06
6.6176e-05
-2.26039e-05
8.93994e-05
-3.64752e-05
9.29954e-05
-5.08896e-05
9.712e-05
-6.58619e-05
0.000101605
-8.13429e-05
0.000106127
-9.72646e-05
0.0001105
-0.000113528
0.00011449
-0.000130021
0.000117988
-0.000146614
0.00012089
-0.000163193
0.000123245
-0.000179678
0.000125116
-0.000196058
0.000126635
-0.000212335
0.000127844
0.000128902
-0.000228448
-8.3427e-06
7.45187e-05
-2.05394e-05
0.000101596
-3.34355e-05
0.000105891
-4.68126e-05
0.000110497
-6.0661e-05
0.000115453
-7.49106e-05
0.000120376
-8.94805e-05
0.00012507
-0.000104265
0.000129275
-0.000119153
0.000132876
-0.000134019
0.000135756
-0.000148753
0.000137978
-0.000163282
0.000139645
-0.000177614
0.000140966
-0.000191792
0.000142023
0.0001429
-0.00020579
-7.15906e-06
8.16778e-05
-1.82007e-05
0.000112638
-3.00324e-05
0.000117723
-4.22855e-05
0.00012275
-5.49266e-05
0.000128094
-6.78701e-05
0.00013332
-8.10259e-05
0.000138226
-9.42857e-05
0.000142535
-0.000107543
0.000146132
-0.000120683
0.000148897
-0.000133606
0.000150901
-0.000146244
0.000152283
-0.00015861
0.000153332
-0.000170783
0.000154196
0.000154891
-0.000182773
-5.84133e-06
8.75191e-05
-1.56158e-05
0.000122412
-2.63142e-05
0.000128422
-3.73803e-05
0.000133816
-4.87563e-05
0.00013947
-6.03472e-05
0.000144911
-7.20567e-05
0.000149935
-8.37764e-05
0.000154255
-9.54056e-05
0.000157762
-0.000106845
0.000160336
-0.000118006
0.000162063
-0.000128822
0.000163099
-0.000139292
0.000163802
-0.00014951
0.000164414
0.000164908
-0.000159527
-4.40336e-06
9.19225e-05
-1.28151e-05
0.000130824
-2.23307e-05
0.000137937
-3.21652e-05
0.000143651
-4.22397e-05
0.000149545
-5.24549e-05
0.000155126
-6.27089e-05
0.000160189
-7.28934e-05
0.000164439
-8.29143e-05
0.000167783
-9.26847e-05
0.000170107
-0.00010213
0.000171508
-0.000111182
0.000172151
-0.000119809
0.000172429
-0.00012808
0.000172685
0.000172925
-0.000136097
-2.85048e-06
9.47729e-05
-9.83364e-06
0.000137807
-1.81286e-05
0.000146232
-2.67025e-05
0.000152225
-3.54587e-05
0.000158301
-4.42933e-05
0.000163961
-5.30991e-05
0.000168995
-6.17675e-05
0.000173107
-7.02087e-05
0.000176224
-7.83446e-05
0.000178242
-8.6111e-05
0.000179274
-9.34421e-05
0.000179482
-0.000100268
0.000179255
-0.000106578
0.000178995
0.000178881
-0.000112533
-1.16582e-06
9.59387e-05
-6.7171e-06
0.000143358
-1.37511e-05
0.000153266
-2.10493e-05
0.000159523
-2.84856e-05
0.000165737
-3.59511e-05
0.000171426
-4.3329e-05
0.000176373
-5.05093e-05
0.000180288
-5.7405e-05
0.000183119
-6.39408e-05
0.000184778
-7.0056e-05
0.000185389
-7.56922e-05
0.000185118
-8.07567e-05
0.00018432
-8.50965e-05
0.000183335
0.000182688
-8.89036e-05
5.56397e-07
9.53824e-05
-3.51918e-06
0.000147434
-9.22814e-06
0.000158975
-1.52578e-05
0.000165553
-2.13875e-05
0.000171867
-2.75071e-05
0.000177546
-3.34858e-05
0.000182352
-3.92136e-05
0.000186016
-4.46016e-05
0.000188507
-4.95737e-05
0.00018975
-5.40625e-05
0.000189878
-5.80105e-05
0.000189066
-6.13496e-05
0.000187659
-6.37843e-05
0.000185769
0.000184047
-6.51438e-05
2.13999e-06
9.32424e-05
-3.09735e-07
0.000149884
-4.59858e-06
0.000163264
-9.38258e-06
0.000170337
-1.42211e-05
0.000176705
-1.90326e-05
0.000182357
-2.36486e-05
0.000186968
-2.79647e-05
0.000190332
-3.18861e-05
0.000192429
-3.53327e-05
0.000193197
-3.82248e-05
0.00019277
-4.04833e-05
0.000191325
-4.20865e-05
0.000189262
-4.29009e-05
0.000186584
0.000182871
-4.17246e-05
3.82905e-06
8.94133e-05
3.14687e-06
0.000150566
6.38618e-09
0.000166404
-3.47151e-06
0.000173815
-7.05013e-06
0.000180284
-1.05932e-05
0.0001859
-1.38866e-05
0.000190261
-1.68392e-05
0.000193284
-1.93391e-05
0.000194929
-2.13003e-05
0.000195158
-2.2634e-05
0.000194104
-2.32311e-05
0.000191922
-2.29925e-05
0.000189023
-2.21257e-05
0.000185717
0.000179829
-1.90837e-05
5.5394e-06
8.38739e-05
6.59782e-06
0.000149507
4.90807e-06
0.000168094
2.49036e-06
0.000176232
-2.40456e-08
0.000182798
-2.26067e-06
0.000188137
-4.28233e-06
0.000192283
-5.91805e-06
0.00019492
-7.04607e-06
0.000196057
-7.56234e-06
0.000195674
-7.37087e-06
0.000193913
-6.35508e-06
0.000190906
-4.41954e-06
0.000187088
-1.19463e-06
0.000182492
0.000176051
2.58327e-06
7.20484e-06
7.66691e-05
1.00335e-05
0.000146679
9.69683e-06
0.000168431
8.48339e-06
0.000177446
7.20676e-06
0.000184075
6.04356e-06
0.0001893
5.19253e-06
0.000193134
4.7895e-06
0.000195323
4.96351e-06
0.000195883
5.83215e-06
0.000194806
7.49348e-06
0.000192251
1.01105e-05
0.000188289
1.38079e-05
0.00018339
1.83855e-05
0.000177914
0.000169816
2.46206e-05
8.75576e-06
6.79133e-05
1.33871e-05
0.000142047
1.44403e-05
0.000167378
1.43816e-05
0.000177504
1.41984e-05
0.000184258
1.41683e-05
0.00018933
1.44654e-05
0.000192837
1.52429e-05
0.000194546
1.6652e-05
0.000194474
1.88268e-05
0.000192631
2.18673e-05
0.000189211
2.59786e-05
0.000184178
3.14389e-05
0.00017793
3.76926e-05
0.000171661
0.000161782
4.57269e-05
1.00985e-05
5.78148e-05
1.65628e-05
0.000135583
1.90811e-05
0.000164859
2.01651e-05
0.00017642
2.10295e-05
0.000183394
2.20548e-05
0.000188305
2.34301e-05
0.000191461
2.53171e-05
0.000192659
2.78854e-05
0.000191905
3.13132e-05
0.000189203
3.56885e-05
0.000184835
4.11618e-05
0.000178705
4.83944e-05
0.000170697
5.64203e-05
0.000163635
0.000152121
6.60814e-05
1.10963e-05
4.67184e-05
1.94371e-05
0.000127242
2.3541e-05
0.000160755
2.57949e-05
0.000174166
2.76674e-05
0.000181521
2.96805e-05
0.000186292
3.20644e-05
0.000189078
3.499e-05
0.000189733
3.86324e-05
0.000188263
4.32353e-05
0.0001846
4.89248e-05
0.000179146
5.55904e-05
0.000172039
6.45025e-05
0.000161785
7.43676e-05
0.00015377
0.000140711
8.57772e-05
1.15538e-05
3.51646e-05
2.18612e-05
0.000116935
2.77214e-05
0.000154895
3.12078e-05
0.00017068
3.40673e-05
0.000178662
3.70137e-05
0.000183345
4.03376e-05
0.000185754
4.42306e-05
0.00018584
4.8857e-05
0.000183636
5.45087e-05
0.000178948
6.15229e-05
0.000172132
6.92355e-05
0.000164326
7.96591e-05
0.000151362
9.13079e-05
0.000142121
0.000127287
0.000104732
1.12476e-05
2.3917e-05
2.36832e-05
0.0001045
3.14906e-05
0.000147088
3.63147e-05
0.000165856
4.01799e-05
0.000174796
4.40211e-05
0.000179504
4.82121e-05
0.000181563
5.30034e-05
0.000181049
5.855e-05
0.00017809
6.50481e-05
0.00017245
7.34228e-05
0.000163757
8.20752e-05
0.000155674
9.37199e-05
0.000139717
0.00010703
0.000128811
0.000111307
0.00012301
1.00792e-05
1.38378e-05
2.47663e-05
8.98125e-05
3.4669e-05
0.000137185
4.09985e-05
0.000159527
4.59422e-05
0.000169853
5.06649e-05
0.000174782
5.56556e-05
0.000176572
6.12552e-05
0.000175449
6.77184e-05
0.000171627
7.48454e-05
0.000165323
8.45497e-05
0.000154053
9.42261e-05
0.000145998
0.000106789
0.000127154
0.000120889
0.00011471
9.22089e-05
0.000139987
8.25192e-06
5.58583e-06
2.4938e-05
7.31264e-05
3.70349e-05
0.000125088
4.51183e-05
0.000151443
5.12778e-05
0.000163693
5.68942e-05
0.000169165
6.26327e-05
0.000170833
6.89081e-05
0.000169174
7.63446e-05
0.00016419
8.392e-05
0.000157748
9.47405e-05
0.000143232
0.000105637
0.000135101
0.00011965
0.000113141
0.000133402
0.000100958
7.06682e-05
0.000154943
6.14968e-06
-5.6385e-07
2.39414e-05
5.53347e-05
3.83489e-05
0.000110681
4.85014e-05
0.000141291
5.60666e-05
0.000156128
6.26319e-05
0.0001626
6.91269e-05
0.000164338
7.58839e-05
0.000162417
8.43453e-05
0.000155729
9.236e-05
0.000149733
0.000103888
0.000131705
0.000115747
0.000123242
0.000132207
9.6681e-05
0.000145922
8.72428e-05
4.78061e-05
0.000168784
4.06365e-06
-4.6275e-06
2.15389e-05
3.78595e-05
3.83861e-05
9.38334e-05
5.09278e-05
0.000128749
6.01427e-05
0.000146913
6.77395e-05
0.000155003
7.50884e-05
0.000156989
8.21892e-05
0.000155316
9.1568e-05
0.00014635
0.000100282
0.000141019
0.000112259
0.000119728
0.000124343
0.000111158
0.000143218
7.78061e-05
0.000158082
7.23787e-05
2.38602e-05
0.000182027
2.14901e-06
-6.7765e-06
1.78044e-05
2.22041e-05
3.69512e-05
7.46866e-05
5.20673e-05
0.000113633
6.32465e-05
0.000135734
7.20318e-05
0.000146218
8.03846e-05
0.000148637
8.77935e-05
0.000147907
9.77446e-05
0.000136399
0.000107521
0.000131242
0.000120242
0.000107007
0.000132218
9.91831e-05
0.000152286
5.77378e-05
0.000169067
5.5598e-05
-1.03624e-06
0.000193963
7.25706e-07
-7.50221e-06
1.32971e-05
9.63274e-06
3.38955e-05
5.40882e-05
5.15127e-05
9.60158e-05
6.50379e-05
0.000122209
7.51997e-05
0.000136056
8.47819e-05
0.000139055
9.27873e-05
0.000139902
0.000102669
0.000126517
0.000113417
0.000120495
0.000127151
9.32729e-05
0.000140242
8.60915e-05
0.000159283
3.86976e-05
0.000178365
3.65159e-05
-2.70309e-05
0.000204359
1.36613e-08
-7.51587e-06
9.04386e-06
6.02542e-07
2.89635e-05
3.41686e-05
4.87983e-05
7.61809e-05
6.5066e-05
0.000105941
7.69535e-05
0.000124169
8.7735e-05
0.000128273
9.69769e-05
0.00013066
0.000106666
0.000116827
0.000117947
0.000109214
0.000130696
8.05239e-05
0.000147851
6.89371e-05
0.000163045
2.35035e-05
0.000186151
1.34097e-05
-5.3175e-05
0.000212295
-2.2425e-07
-7.29162e-06
5.63695e-06
-5.25865e-06
2.25748e-05
1.72307e-05
4.36394e-05
5.51163e-05
6.27068e-05
8.68735e-05
7.68325e-05
0.000110043
8.88311e-05
0.000116274
9.95119e-05
0.000119979
0.000108995
0.000107344
0.000122358
9.58502e-05
0.000131989
7.0893e-05
0.000153043
4.78833e-05
0.000164273
1.22736e-05
0.000191687
-1.40041e-05
-7.9592e-05
0.000218104
-7.29824e-08
-7.21864e-06
3.58054e-06
-8.91217e-06
1.62143e-05
4.59691e-06
3.63127e-05
3.50179e-05
5.73733e-05
6.5813e-05
7.41151e-05
9.33012e-05
8.73539e-05
0.000103035
0.000100235
0.000107098
0.000109029
9.855e-05
0.000124618
8.02616e-05
0.00013236
6.31505e-05
0.000156405
2.38389e-05
0.000163143
5.53492e-06
0.00019751
-4.83707e-05
-8.94351e-05
0.000207353
2.6118e-07
-7.47982e-06
2.91845e-06
-1.15694e-05
1.13898e-05
-3.87441e-06
2.81112e-05
1.82965e-05
4.90063e-05
4.49179e-05
6.81228e-05
7.41847e-05
8.24448e-05
8.87134e-05
9.7437e-05
9.21059e-05
0.000107472
8.8515e-05
0.000122579
6.51543e-05
0.000132705
5.30248e-05
0.000155692
8.52145e-07
0.000162928
-1.70161e-06
0.000199832
-8.52747e-05
-7.90893e-05
0.000189486
6.90413e-07
-8.17023e-06
3.06415e-06
-1.39432e-05
8.64296e-06
-9.45322e-06
2.09199e-05
6.0196e-06
3.88512e-05
2.69865e-05
5.85691e-05
5.44669e-05
7.43901e-05
7.28924e-05
8.94884e-05
7.70075e-05
0.000102295
7.57087e-05
0.000115976
5.1473e-05
0.000128568
4.04328e-05
0.000144863
-1.54423e-05
0.00015735
-1.41889e-05
0.000177691
-0.000105616
-7.71721e-05
0.000175774
1.07159e-06
-9.24182e-06
3.34882e-06
-1.62204e-05
7.30947e-06
-1.34139e-05
1.55952e-05
-2.26611e-06
2.8883e-05
1.36987e-05
4.63704e-05
3.69795e-05
6.27188e-05
5.6544e-05
7.72608e-05
6.24655e-05
9.04598e-05
6.25096e-05
0.00010411
3.78228e-05
0.000117493
2.70497e-05
0.000126308
-2.42575e-05
0.000140361
-2.82414e-05
0.000146023
-0.000111278
-0.000121213
0.000190064
1.24121e-06
-1.0483e-05
3.23306e-06
-1.82123e-05
6.11735e-06
-1.62982e-05
1.14218e-05
-7.57056e-06
2.01125e-05
5.008e-06
3.33148e-05
2.37772e-05
4.79802e-05
4.18785e-05
6.1312e-05
4.91337e-05
7.34014e-05
5.04203e-05
8.59377e-05
2.52864e-05
9.95183e-05
1.34691e-05
0.000104023
-2.87618e-05
0.000126919
-5.11381e-05
0.000158714
-0.000143073
-0.000194134
0.000231635
1.07659e-06
-1.15596e-05
2.37127e-06
-1.95069e-05
4.07756e-06
-1.80045e-05
7.09832e-06
-1.05913e-05
1.20621e-05
4.41964e-08
2.06136e-05
1.52257e-05
3.18126e-05
3.06796e-05
4.28478e-05
3.80984e-05
5.37219e-05
3.95462e-05
6.30757e-05
1.59326e-05
7.54806e-05
1.06418e-06
9.01361e-05
-4.34173e-05
0.000137848
-9.88502e-05
0.000193021
-0.000198246
-0.000259029
0.000257915
5.33567e-07
-1.20932e-05
6.76271e-07
-1.96496e-05
8.50739e-07
-1.81789e-05
1.75751e-06
-1.14981e-05
3.70549e-06
-1.90378e-06
8.23975e-06
1.06915e-05
1.51349e-05
2.37844e-05
2.32766e-05
2.99567e-05
3.17545e-05
3.10683e-05
3.88881e-05
8.79907e-06
6.13861e-05
-2.14339e-05
0.000104294
-8.63255e-05
0.000169913
-0.000164469
0.000221254
-0.000249587
-0.000307401
0.000269626
-3.34855e-07
-1.17583e-05
-1.6511e-06
-1.83334e-05
-3.26257e-06
-1.65674e-05
-4.55254e-06
-1.02081e-05
-5.30657e-06
-1.14976e-06
-4.46504e-06
9.84993e-06
-1.73962e-06
2.1059e-05
3.42353e-06
2.47936e-05
1.14899e-05
2.3002e-05
3.0469e-05
-1.01801e-05
7.71753e-05
-6.81401e-05
0.000137817
-0.000146967
0.000196985
-0.000223637
0.000238297
-0.0002909
-0.000341688
0.000272584
-1.38366e-06
-1.03747e-05
-4.28039e-06
-1.54367e-05
-7.77478e-06
-1.30731e-05
-1.13054e-05
-6.67754e-06
-1.46202e-05
2.16505e-06
-1.71987e-05
1.24285e-05
-1.78211e-05
2.16813e-05
-1.27212e-05
1.96937e-05
6.87199e-06
3.4088e-06
4.94887e-05
-5.27968e-05
0.000110397
-0.000129048
0.000167034
-0.000203605
0.000212661
-0.000269263
0.000244427
-0.000322666
-0.000366191
0.000268931
-2.39612e-06
-7.97856e-06
-6.71437e-06
-1.11184e-05
-1.1834e-05
-7.95339e-06
-1.72255e-05
-1.28603e-06
-2.23506e-05
7.29014e-06
-2.62952e-05
1.63731e-05
-2.62643e-05
2.16504e-05
-1.34627e-05
6.89208e-06
2.49725e-05
-3.50264e-05
8.24309e-05
-0.000110255
0.000138973
-0.00018559
0.000184712
-0.000249344
0.000219031
-0.000303582
0.000243622
-0.000347258
-0.000386166
0.000263597
-3.13891e-06
-4.83965e-06
-8.40321e-06
-5.85412e-06
-1.44622e-05
-1.8944e-06
-2.05685e-05
4.82026e-06
-2.58273e-05
1.25489e-05
-2.79795e-05
1.85253e-05
-2.25003e-05
1.61712e-05
4.79439e-06
-2.04026e-05
5.60944e-05
-8.63265e-05
0.000111058
-0.000165219
0.000157347
-0.00023188
0.000193223
-0.000285219
0.000219769
-0.000330128
0.000239931
-0.00036742
-0.000402047
0.000255812
-3.45861e-06
-1.38104e-06
-9.02268e-06
-2.9005e-07
-1.5094e-05
4.17688e-06
-2.06805e-05
1.04068e-05
-2.43673e-05
1.62357e-05
-2.27465e-05
1.69045e-05
-7.91127e-06
1.33601e-06
3.1821e-05
-6.01349e-05
8.46182e-05
-0.000139124
0.000131023
-0.000211624
0.000167797
-0.000268654
0.000196081
-0.000313503
0.000217367
-0.000351414
0.000233497
-0.00038355
-0.000416114
0.000247564
-3.34539e-06
1.96435e-06
-8.60472e-06
4.96929e-06
-1.3976e-05
9.54817e-06
-1.81931e-05
1.46239e-05
-1.94727e-05
1.75153e-05
-1.38179e-05
1.12497e-05
1.20581e-05
-2.454e-05
5.86845e-05
-0.000106761
0.000105249
-0.000185688
0.000143518
-0.000249893
0.000172868
-0.000298003
0.000195405
-0.00033604
0.000212394
-0.000368403
0.000226537
-0.000397693
-0.000428669
0.000239092
-2.90398e-06
4.86833e-06
-7.44416e-06
9.50946e-06
-1.17281e-05
1.38321e-05
-1.43515e-05
1.72473e-05
-1.32404e-05
1.64042e-05
-1.52438e-06
-4.66333e-07
3.43878e-05
-6.04522e-05
7.99884e-05
-0.000152362
0.000119691
-0.000225391
0.000150853
-0.000281055
0.000174237
-0.000321387
0.000192187
-0.00035399
0.000206602
-0.000382818
0.000218904
-0.000409996
-0.000439829
0.000230065
-2.27953e-06
7.14786e-06
-5.89888e-06
1.31288e-05
-8.98973e-06
1.6923e-05
-1.0111e-05
1.83685e-05
-7.18738e-06
1.34806e-05
1.33063e-05
-2.096e-05
5.62824e-05
-0.000103428
9.62301e-05
-0.00019231
0.00012917
-0.000258331
0.000154169
-0.000306054
0.000172837
-0.000340055
0.000187761
-0.000368913
0.00019991
-0.000394967
0.000210934
-0.00042102
-0.000450398
0.000221503
-1.61206e-06
8.75993e-06
-4.27813e-06
1.57949e-05
-6.24034e-06
1.88852e-05
-6.15663e-06
1.82848e-05
5.38273e-07
6.78573e-06
3.01424e-05
-5.05642e-05
7.32116e-05
-0.000146497
0.000108045
-0.000227143
0.000134768
-0.000285053
0.000154675
-0.000325961
0.000169884
-0.000355264
0.000182254
-0.000381284
0.000192935
-0.000405647
0.000203151
-0.000431236
-0.000459854
0.000212606
-1.00506e-06
9.76499e-06
-2.79175e-06
1.75816e-05
-3.68369e-06
1.97771e-05
-2.93429e-06
1.75354e-05
1.08082e-05
-6.95679e-06
4.81859e-05
-8.79419e-05
8.59804e-05
-0.000184292
0.000115697
-0.00025686
0.000137366
-0.000306723
0.000153248
-0.000341843
0.000165614
-0.00036763
0.000176305
-0.000391975
0.000185867
-0.00041521
0.000195065
-0.000440434
-0.000468718
0.000203929
-5.24265e-07
1.02893e-05
-1.51778e-06
1.85751e-05
-1.43027e-06
1.96896e-05
7.57785e-07
1.53473e-05
2.25391e-05
-2.87381e-05
6.26122e-05
-0.000128015
9.5658e-05
-0.000217338
0.000120179
-0.00028138
0.000137618
-0.000324162
0.000150342
-0.000354567
0.000160756
-0.000378044
0.000170037
-0.000401256
0.00017857
-0.000423743
0.000187212
-0.000449076
-0.000476854
0.000195349
-2.1247e-07
1.05017e-05
-4.30657e-07
1.87933e-05
-1.20659e-07
1.93796e-05
6.56262e-06
8.66406e-06
3.65229e-05
-5.86983e-05
7.32377e-05
-0.00016473
0.000101951
-0.000246051
0.00012205
-0.00030148
0.000136078
-0.00033819
0.000146524
-0.000365013
0.000155344
-0.000386864
0.000163524
-0.000409436
0.000171406
-0.000431625
0.000179284
-0.000456954
-0.000484243
0.000186672
-5.39342e-08
1.05557e-05
2.87775e-07
1.84516e-05
6.43324e-07
1.90241e-05
1.36138e-05
-4.3064e-06
4.9617e-05
-9.47016e-05
8.16769e-05
-0.00019679
0.000105627
-0.000270001
0.000121954
-0.000317806
0.000133311
-0.000349547
0.00014196
-0.000373662
0.000149656
-0.000394559
0.000157007
-0.000416786
0.00016411
-0.000438728
0.000171377
-0.000464221
-0.000491123
0.000178257
4.37476e-08
1.05119e-05
6.79373e-07
1.78159e-05
2.01594e-06
1.76875e-05
2.19222e-05
-2.42127e-05
5.89264e-05
-0.000131706
8.74271e-05
-0.00022529
0.000107139
-0.000289713
0.000120312
-0.000330979
0.000129583
-0.000358818
0.000136968
-0.000381048
0.000143769
-0.00040136
0.00015032
-0.000423338
0.000156888
-0.000445296
0.000163577
-0.00047091
-0.000497286
0.00016974
1.18902e-07
1.0393e-05
6.86509e-07
1.72483e-05
5.03156e-06
1.33425e-05
3.2207e-05
-5.13881e-05
6.58497e-05
-0.000165349
9.07925e-05
-0.000250233
0.000107022
-0.000305942
0.000117617
-0.000341574
0.000125283
-0.000366484
0.000131646
-0.00038741
0.000137712
-0.000407426
0.000143689
-0.000429315
0.000149663
-0.00045127
0.000155688
-0.000476936
-0.000502957
0.00016136
1.06787e-07
1.02862e-05
4.07262e-08
1.73144e-05
9.49549e-06
3.8877e-06
4.2115e-05
-8.40076e-05
7.12441e-05
-0.000194478
9.21008e-05
-0.00027109
0.000105425
-0.000319267
0.00011408
-0.000350229
0.000120515
-0.000372919
0.000126114
-0.00039301
0.000131601
-0.000412913
0.00013697
-0.000434684
0.00014242
-0.00045672
0.000147935
-0.000482451
-0.000508059
0.000153036
1.61947e-08
1.027e-05
-2.17609e-07
1.75482e-05
1.44784e-05
-1.08083e-05
4.92527e-05
-0.000118782
7.48583e-05
-0.000220083
9.20242e-05
-0.000288256
0.000102866
-0.000330108
0.000109991
-0.000357354
0.000115498
-0.000378426
0.000120463
-0.000397975
0.000125389
-0.000417839
0.000130275
-0.00043957
0.000135243
-0.000461688
0.00014014
-0.000487348
-0.000512623
0.000144704
-6.37139e-08
1.03337e-05
6.57646e-07
1.68268e-05
2.12953e-05
-3.1446e-05
5.35534e-05
-0.00015104
7.66563e-05
-0.000243186
9.08651e-05
-0.000302465
9.95799e-05
-0.000338823
0.000105485
-0.000363259
0.000110259
-0.0003832
0.000114699
-0.000402415
0.000119168
-0.000422308
0.000123562
-0.000443963
0.000128024
-0.00046615
0.000132418
-0.000491742
-0.000516733
0.000136528
-1.61613e-07
1.04954e-05
3.03179e-06
1.36334e-05
2.86819e-05
-5.70962e-05
5.69364e-05
-0.000179295
7.68087e-05
-0.000263058
8.86825e-05
-0.000314338
9.58002e-05
-0.000345941
0.000100744
-0.000368203
0.00010492
-0.000387376
0.000108903
-0.000406398
0.000112903
-0.000426308
0.000116846
-0.000447906
0.000120866
-0.00047017
0.000124725
-0.000495601
-0.000520323
0.000128314
-3.03988e-07
1.07993e-05
6.13537e-06
7.19406e-06
3.51104e-05
-8.60712e-05
5.93224e-05
-0.000203507
7.58617e-05
-0.000279598
8.57046e-05
-0.000324181
9.16062e-05
-0.000351842
9.58171e-05
-0.000372414
9.94944e-05
-0.000391053
0.000103052
-0.000409955
0.000106639
-0.000429895
0.000110149
-0.000451417
0.000113686
-0.000473707
0.000117047
-0.000498962
-0.000523515
0.000120239
-4.11144e-07
1.12105e-05
9.43791e-06
-2.655e-06
3.94512e-05
-0.000116085
6.06787e-05
-0.000224734
7.41852e-05
-0.000293104
8.21986e-05
-0.000332195
8.71399e-05
-0.000356784
9.07884e-05
-0.000376062
9.4039e-05
-0.000394304
9.72069e-05
-0.000413123
0.000100371
-0.000433059
0.00010345
-0.000454495
0.000106553
-0.00047681
0.000109445
-0.000501854
-0.000526245
0.000112175
-4.81102e-07
1.16916e-05
1.31693e-05
-1.63054e-05
4.14747e-05
-0.00014439
6.08177e-05
-0.000244077
7.19823e-05
-0.000304269
7.84109e-05
-0.000338623
8.25109e-05
-0.000360884
8.56792e-05
-0.000379231
8.85541e-05
-0.000397179
9.13444e-05
-0.000415913
9.4112e-05
-0.000435827
9.67846e-05
-0.000457168
9.94352e-05
-0.000479461
0.000101857
-0.000504276
-0.00052858
0.000104193
-5.83993e-07
1.22756e-05
1.74932e-05
-3.43826e-05
4.26021e-05
-0.000169499
5.97491e-05
-0.000261224
6.92321e-05
-0.000313752
7.44276e-05
-0.000343819
7.78175e-05
-0.000364274
8.05552e-05
-0.000381968
8.30716e-05
-0.000399695
8.55018e-05
-0.000418344
8.78748e-05
-0.0004382
9.01312e-05
-0.000459424
9.23513e-05
-0.000481681
9.4346e-05
-0.000506271
-0.000530514
9.628e-05
4.18912e-08
1.22337e-05
2.11606e-05
-5.55013e-05
4.33028e-05
-0.000191641
5.79631e-05
-0.000275884
6.59902e-05
-0.000321779
7.02947e-05
-0.000348123
7.31061e-05
-0.000367085
7.54345e-05
-0.000384297
7.75985e-05
-0.000401859
7.96678e-05
-0.000420413
8.16546e-05
-0.000440187
8.35157e-05
-0.000461286
8.53082e-05
-0.000483474
8.6864e-05
-0.000507827
-0.000532045
8.83946e-05
8.64885e-07
1.13688e-05
2.40704e-05
-7.87068e-05
4.34051e-05
-0.000210976
5.57481e-05
-0.000288227
6.24241e-05
-0.000328455
6.60245e-05
-0.000351724
6.83879e-05
-0.000369448
7.03483e-05
-0.000386257
7.21584e-05
-0.000403669
7.38667e-05
-0.000422121
7.54705e-05
-0.00044179
7.69294e-05
-0.000462744
7.82983e-05
-0.000484842
7.94473e-05
-0.000508976
-0.000533193
8.05961e-05
2.17393e-06
9.19488e-06
2.605e-05
-0.000102583
4.30785e-05
-0.000228004
5.32837e-05
-0.000298433
5.87102e-05
-0.000333881
6.1691e-05
-0.000354704
6.36717e-05
-0.000371429
6.52898e-05
-0.000387875
6.67519e-05
-0.000405131
6.80967e-05
-0.000423466
6.93169e-05
-0.000443011
7.0384e-05
-0.000463812
7.13394e-05
-0.000485798
7.20652e-05
-0.000509702
-0.000533897
7.27687e-05
4.01005e-06
5.18482e-06
2.71146e-05
-0.000125687
4.23318e-05
-0.000243221
5.06598e-05
-0.000306761
5.495e-05
-0.000338171
5.73443e-05
-0.000357099
5.89691e-05
-0.000373054
6.02681e-05
-0.000389174
6.13895e-05
-0.000406253
6.2371e-05
-0.000424448
6.32102e-05
-0.00044385
6.38827e-05
-0.000464484
6.44195e-05
-0.000486335
6.47252e-05
-0.000510007
-0.000534158
6.49865e-05
6.18134e-06
-9.96523e-07
2.71968e-05
-0.000146703
4.10567e-05
-0.000257081
4.79154e-05
-0.000313619
5.12027e-05
-0.000341459
5.30381e-05
-0.000358934
5.43038e-05
-0.00037432
5.5282e-05
-0.000390152
5.60675e-05
-0.000407038
5.66895e-05
-0.00042507
5.71473e-05
-0.000444308
5.74274e-05
-0.000464764
5.75535e-05
-0.000486461
5.74347e-05
-0.000509889
-0.000533951
5.72275e-05
8.62199e-06
-9.61851e-06
2.71845e-05
-0.000165265
3.92889e-05
-0.000269186
4.49932e-05
-0.000319324
4.74707e-05
-0.000343936
4.87896e-05
-0.000360253
4.96891e-05
-0.000375219
5.0344e-05
-0.000390807
5.07956e-05
-0.00040749
5.10597e-05
-0.000425334
5.11391e-05
-0.000444387
5.10254e-05
-0.00046465
5.07347e-05
-0.00048617
5.01945e-05
-0.000509348
-0.000533293
4.95366e-05
1.06268e-05
-2.02453e-05
2.70592e-05
-0.000181698
3.72629e-05
-0.000279389
4.18863e-05
-0.000323947
4.37289e-05
-0.000345779
4.46027e-05
-0.000361127
4.51401e-05
-0.000375756
4.54606e-05
-0.000391128
4.5575e-05
-0.000407604
4.54845e-05
-0.000425243
4.51865e-05
-0.000444089
4.46763e-05
-0.00046414
4.39716e-05
-0.000485465
4.30175e-05
-0.000508394
-0.00053217
4.1894e-05
1.19851e-05
-3.22304e-05
2.65553e-05
-0.000196268
3.50335e-05
-0.000287868
3.86532e-05
-0.000327567
3.99662e-05
-0.000347092
4.04635e-05
-0.000361624
4.0657e-05
-0.00037595
4.06419e-05
-0.000391113
4.04167e-05
-0.000407379
3.99711e-05
-0.000424798
3.92987e-05
-0.000443417
3.83926e-05
-0.000463234
3.72661e-05
-0.000484339
3.58925e-05
-0.000507021
-0.000530599
3.43216e-05
1.26874e-05
-4.49178e-05
2.56755e-05
-0.000209256
3.26564e-05
-0.000294848
3.53738e-05
-0.000330284
3.62141e-05
-0.000347932
3.63748e-05
-0.000361785
3.62422e-05
-0.000375817
3.58917e-05
-0.000390762
3.53234e-05
-0.000406811
3.45239e-05
-0.000423998
3.34806e-05
-0.000442373
3.21815e-05
-0.000461935
3.06334e-05
-0.000482791
2.88257e-05
-0.000505213
-0.000528583
2.681e-05
1.28382e-05
-5.7756e-05
2.44507e-05
-0.000220869
3.01539e-05
-0.000300552
3.20914e-05
-0.000332221
3.24988e-05
-0.00034834
3.23404e-05
-0.000361626
3.18936e-05
-0.00037537
3.12137e-05
-0.000390082
3.03033e-05
-0.0004059
2.91493e-05
-0.000422844
2.77381e-05
-0.000440962
2.60576e-05
-0.000460254
2.40979e-05
-0.000480831
2.18148e-05
-0.00050293
-0.000526125
1.93567e-05
1.26006e-05
-7.03566e-05
2.29629e-05
-0.000231231
2.75717e-05
-0.00030516
2.88367e-05
-0.000333486
2.88427e-05
-0.000348346
2.83726e-05
-0.000361156
2.76165e-05
-0.000374614
2.66101e-05
-0.000389076
2.53583e-05
-0.000404649
2.38509e-05
-0.000421337
2.20738e-05
-0.000439185
2.00191e-05
-0.0004582
1.76763e-05
-0.000478488
1.49051e-05
-0.000500159
-0.000523168
1.1948e-05
1.20991e-05
-8.24557e-05
2.12823e-05
-0.000240414
2.49382e-05
-0.000308816
2.56242e-05
-0.000334172
2.52587e-05
-0.00034798
2.44788e-05
-0.000360376
2.34138e-05
-0.000373549
2.20843e-05
-0.000387746
2.04943e-05
-0.000403059
1.86339e-05
-0.000419477
1.64905e-05
-0.000437042
1.40629e-05
-0.000455772
1.13548e-05
-0.00047578
8.17709e-06
-0.000496981
-0.000519523
4.53195e-06
1.1418e-05
-9.38737e-05
1.94773e-05
-0.000248473
2.22937e-05
-0.000311633
2.24724e-05
-0.000334351
2.1758e-05
-0.000347266
2.06685e-05
-0.000359287
1.92923e-05
-0.000372173
1.76398e-05
-0.000386094
1.57126e-05
-0.000401131
1.35011e-05
-0.000417265
1.09947e-05
-0.000434535
8.18899e-06
-0.000452966
5.07228e-06
-0.000472663
1.78528e-06
-0.000493694
-0.000515076
-2.66155e-06
1.06017e-05
-0.000104475
1.7597e-05
-0.000255469
1.96688e-05
-0.000313705
1.93948e-05
-0.000334077
1.83471e-05
-0.000346218
1.6946e-05
-0.000357886
1.52555e-05
-0.000370483
1.328e-05
-0.000384118
1.1016e-05
-0.000398867
8.45357e-06
-0.000414703
5.59059e-06
-0.000431672
2.39362e-06
-0.000449769
-1.16754e-06
-0.000469102
-4.85378e-06
-0.000490008
-0.000510583
-9.34702e-06
9.62854e-06
-0.000114104
1.56888e-05
-0.000261529
1.7097e-05
-0.000315113
1.64069e-05
-0.000333387
1.5031e-05
-0.000344842
1.33161e-05
-0.000356171
1.1308e-05
-0.000368475
9.00596e-06
-0.000381816
6.40113e-06
-0.000396263
3.48885e-06
-0.00041179
2.59231e-07
-0.000428443
-3.2584e-06
-0.000446252
-7.02369e-06
-0.000465337
-1.13939e-05
-0.000485637
-0.000505951
-1.60262e-05
8.70885e-06
-0.000122813
1.38012e-05
-0.000266621
1.45925e-05
-0.000315904
1.35118e-05
-0.000332306
1.18108e-05
-0.000343141
9.77941e-06
-0.00035414
7.45071e-06
-0.000366146
4.81382e-06
-0.000379179
1.85743e-06
-0.000393306
-1.38013e-06
-0.000408553
-4.9157e-06
-0.000424907
-8.75988e-06
-0.000442407
-1.29087e-05
-0.000461188
-1.7716e-05
-0.00048083
-0.000501025
-2.26412e-05
7.82271e-06
-0.000130636
1.19675e-05
-0.000270766
1.21678e-05
-0.000316104
1.07083e-05
-0.000330847
8.6872e-06
-0.00034112
6.33491e-06
-0.000351787
3.679e-06
-0.00036349
6.7894e-07
-0.000376179
-2.55904e-06
-0.000390068
-6.11824e-06
-0.000404994
-9.99851e-06
-0.000421027
-1.4185e-05
-0.000438221
-1.87477e-05
-0.000456626
-2.38793e-05
-0.000475698
-0.000495745
-2.91599e-05
6.95366e-06
-0.000137589
1.02009e-05
-0.000274013
9.83141e-06
-0.000315735
7.99988e-06
-0.000329015
5.66003e-06
-0.00033878
2.97527e-06
-0.000349103
-6.19744e-08
-0.000360453
-3.28553e-06
-0.000372956
-6.8616e-06
-0.000386492
-1.07654e-05
-0.00040109
-1.49831e-05
-0.000416809
-1.95285e-05
-0.000433675
-2.45149e-05
-0.000451639
-2.99202e-05
-0.000470293
-0.00049009
-3.55746e-05
6.10856e-06
-0.000143698
8.50969e-06
-0.000276414
7.58724e-06
-0.000314812
5.38921e-06
-0.000326817
2.72088e-06
-0.000336112
-3.21142e-07
-0.000346061
-3.56331e-06
-0.000357211
-7.16233e-06
-0.000369357
-1.10772e-05
-0.000382577
-1.53143e-05
-0.000396853
-1.98694e-05
-0.000412254
-2.47759e-05
-0.000428769
-3.01294e-05
-0.000446286
-3.58458e-05
-0.000464577
-0.00048408