/*--------------------------------*- C++ -*----------------------------------*\
  =========                 |
  \\      /  F ield         | OpenFOAM: The Open Source CFD Toolbox
   \\    /   O peration     | Website:  https://openfoam.org
    \\  /    A nd           | Version:  7
     \\/     M anipulation  |
\*---------------------------------------------------------------------------*/
FoamFile
{
    version     2.0;
    format      ascii;
    class       volVectorField;
    location    "17.0016";
    object      U;
}
// * * * * * * * * * * * * * * * * * * * * * * * * * * * * * * * * * * * * * //

dimensions      [0 1 -1 0 0 0 0];

internalField   nonuniform List<vector> 
18750
(
(-0.0412875 0.0257607 -1.10173e-20)
(-0.143936 0.0310759 3.64078e-21)
(-0.253597 0.0291922 3.76496e-20)
(-0.350537 0.0278367 8.51741e-21)
(-0.447101 0.0265772 -2.02543e-20)
(-0.537755 0.0254026 -4.91101e-20)
(-0.626039 0.0242019 5.07478e-20)
(-0.709248 0.0229518 3.36547e-20)
(-0.78895 0.0216192 -2.5338e-20)
(-0.863571 0.0202212 -6.82882e-20)
(-0.934024 0.0187648 2.60896e-19)
(-0.998966 0.0172603 -2.1535e-19)
(-1.05867 0.0157087 1.28291e-19)
(-1.11205 0.0141796 -2.50851e-19)
(-1.15982 0.012817 5.84695e-20)
(-0.0429667 0.0768578 6.72459e-21)
(-0.145134 0.0928858 1.03046e-20)
(-0.253521 0.0873211 4.9571e-21)
(-0.349223 0.0832986 5.66114e-20)
(-0.444486 0.0795586 1.16512e-19)
(-0.533765 0.076061 1.55348e-19)
(-0.620539 0.0724775 -1.3265e-19)
(-0.702077 0.0687393 2.17715e-19)
(-0.779909 0.0647486 2.03993e-19)
(-0.852454 0.060557 -6.57595e-20)
(-0.920635 0.0561898 -2.76685e-19)
(-0.983131 0.0516881 1.38356e-20)
(-1.04018 0.0470654 6.25197e-20)
(-1.09062 0.0425199 1.63902e-19)
(-1.13511 0.0384498 -2.49339e-19)
(-0.0462599 0.126669 2.01167e-20)
(-0.147493 0.153594 2.95494e-20)
(-0.253376 0.144536 -9.31195e-20)
(-0.346649 0.137909 6.17487e-21)
(-0.439371 0.131737 -2.1701e-19)
(-0.525986 0.125939 7.13189e-20)
(-0.609856 0.119983 -2.02254e-19)
(-0.688222 0.113761 -2.32691e-20)
(-0.76254 0.107114 -1.56282e-19)
(-0.831232 0.100129 4.71747e-19)
(-0.895251 0.0928583 6.27534e-19)
(-0.953333 0.0853995 5.54156e-19)
(-1.00567 0.0778021 3.25845e-19)
(-1.05099 0.0703639 2.20419e-19)
(-1.08986 0.0636476 -4.06707e-19)
(-0.0510398 0.174374 -1.03732e-19)
(-0.15094 0.21249 1.22107e-19)
(-0.253176 0.200254 -9.08723e-20)
(-0.342906 0.191134 -1.88891e-19)
(-0.43196 0.182621 3.25364e-19)
(-0.51477 0.17457 -3.02071e-19)
(-0.594548 0.166272 4.47333e-19)
(-0.668507 0.157589 -3.80321e-19)
(-0.73803 0.148309 2.69385e-19)
(-0.801553 0.138551 -6.61436e-19)
(-0.860091 0.128409 -9.52013e-19)
(-0.912486 0.118067 5.26669e-20)
(-0.958925 0.107639 -1.81774e-19)
(-0.997973 0.0974898 -3.9511e-19)
(-1.03014 0.0882407 1.49457e-18)
(-0.0571212 0.2192 -7.81719e-20)
(-0.155363 0.268893 1.76219e-19)
(-0.252925 0.253928 4.07661e-20)
(-0.33811 0.242492 1.50071e-19)
(-0.422517 0.231775 -1.98348e-19)
(-0.500566 0.221555 8.57528e-20)
(-0.575297 0.210981 1.06254e-18)
(-0.643922 0.199893 1.65625e-19)
(-0.707749 0.18804 2.96073e-19)
(-0.765261 0.175576 -1.04507e-19)
(-0.817551 0.162639 8.92899e-20)
(-0.863623 0.149527 -3.64349e-20)
(-0.903714 0.136451 -1.03108e-18)
(-0.936263 0.123819 -5.77417e-19)
(-0.961658 0.112223 -1.69558e-18)
(-0.0643033 0.260487 1.77362e-19)
(-0.160636 0.322152 5.6813e-20)
(-0.25261 0.305062 -8.44193e-20)
(-0.332377 0.29156 -6.20013e-20)
(-0.411326 0.27883 6.62799e-20)
(-0.483854 0.266572 -9.07042e-19)
(-0.552818 0.25383 -1.15197e-19)
(-0.615463 0.24044 5.7763e-20)
(-0.673037 0.226127 -4.3581e-19)
(-0.724088 0.211077 -6.01387e-19)
(-0.769799 0.195479 4.40405e-19)
(-0.809374 0.179759 -4.36911e-19)
(-0.843167 0.164249 1.35389e-18)
(-0.869548 0.149403 -1.05626e-18)
(-0.888732 0.135728 2.31371e-18)
(-0.0723504 0.297592 -1.57646e-19)
(-0.16657 0.371651 -2.6949e-19)
(-0.252167 0.353238 1.08135e-19)
(-0.325809 0.337991 8.14276e-19)
(-0.398667 0.323488 8.24708e-19)
(-0.465102 0.30937 -2.87751e-19)
(-0.527795 0.294618 1.47541e-19)
(-0.584055 0.27908 9.58789e-20)
(-0.635087 0.262475 9.41655e-19)
(-0.679515 0.245022 1.30646e-18)
(-0.718604 0.226959 -6.35986e-19)
(-0.751779 0.208838 -1.22568e-18)
(-0.779572 0.191136 -2.27928e-18)
(-0.800353 0.174378 3.91797e-19)
(-0.814099 0.158956 -2.82783e-18)
(-0.0809761 0.329861 -1.3807e-19)
(-0.172946 0.416889 -1.63359e-19)
(-0.251501 0.398131 -1.18446e-18)
(-0.318493 0.38151 4.21167e-19)
(-0.384798 0.365517 -4.9508e-19)
(-0.444741 0.349766 3.37896e-19)
(-0.50084 0.333212 3.62181e-19)
(-0.550495 0.31573 -1.58282e-18)
(-0.594882 0.297051 -1.05857e-18)
(-0.63271 0.277432 -1.79504e-18)
(-0.665303 0.257153 -2.99442e-19)
(-0.692298 0.236883 1.30286e-18)
(-0.714438 0.217252 5.10405e-18)
(-0.730163 0.198891 -7.80296e-19)
(-0.739152 0.182079 1.39128e-18)
(-0.0898188 0.356676 7.4385e-19)
(-0.179488 0.457437 3.00267e-19)
(-0.250504 0.439505 1.29992e-18)
(-0.310496 0.421912 -9.52959e-19)
(-0.369943 0.404748 4.51509e-19)
(-0.423146 0.387636 -7.5513e-19)
(-0.472476 0.36953 -1.74179e-18)
(-0.515448 0.35035 1.55445e-18)
(-0.553213 0.329856 1.86797e-19)
(-0.584573 0.308353 2.68152e-18)
(-0.610876 0.286156 -8.76002e-19)
(-0.631928 0.264024 -3.96811e-18)
(-0.648679 0.242729 -2.42434e-18)
(-0.659714 0.223051 2.53163e-19)
(-0.664389 0.205186 -1.17314e-18)
(-0.0984576 0.377527 -6.16418e-19)
(-0.185875 0.492976 -3.51541e-19)
(-0.249056 0.477194 4.49535e-19)
(-0.301873 0.459061 6.96284e-20)
(-0.354284 0.441068 -1.77196e-19)
(-0.40063 0.422901 -2.04631e-19)
(-0.443139 0.403532 7.95071e-19)
(-0.47945 0.38293 -9.48635e-19)
(-0.510693 0.36091 9.3687e-19)
(-0.535762 0.33783 1.17622e-18)
(-0.555993 0.314037 -2.09138e-18)
(-0.571304 0.290346 3.96943e-18)
(-0.582807 0.267642 4.65216e-19)
(-0.589302 0.246881 6.30313e-19)
(-0.589884 0.228235 1.44707e-18)
(-0.106401 0.391953 1.15376e-18)
(-0.191724 0.523212 -3.78623e-19)
(-0.24702 0.511094 -1.68653e-18)
(-0.292647 0.492863 6.68132e-19)
(-0.337973 0.474411 -3.86624e-19)
(-0.377451 0.455531 4.53955e-19)
(-0.413179 0.435205 3.38549e-18)
(-0.442926 0.413477 1.63875e-18)
(-0.467789 0.390233 1.09099e-18)
(-0.486755 0.365893 -3.66346e-18)
(-0.501123 0.340835 4.0128e-18)
(-0.51086 0.315903 1.46885e-18)
(-0.51716 0.29204 -2.36846e-18)
(-0.51907 0.270362 2.87027e-18)
(-0.515625 0.251127 -9.59594e-20)
(-0.113098 0.399613 2.32278e-19)
(-0.196661 0.548076 5.98287e-20)
(-0.244262 0.54111 -1.12838e-19)
(-0.282846 0.523282 -1.1934e-18)
(-0.321111 0.504762 2.38265e-18)
(-0.353809 0.485518 -1.21847e-18)
(-0.382885 0.464557 -3.58784e-18)
(-0.406213 0.442007 1.10481e-18)
(-0.424865 0.417842 -1.76891e-18)
(-0.43791 0.392552 2.75045e-18)
(-0.446593 0.366552 -4.9656e-18)
(-0.450893 0.34069 3.87975e-19)
(-0.451991 0.315904 2.1139e-18)
(-0.449121 0.293413 -4.42606e-18)
(-0.441565 0.273656 -1.03856e-18)
(-0.117844 0.400144 -7.60555e-19)
(-0.200251 0.567396 2.19429e-19)
(-0.240664 0.567166 6.7556e-19)
(-0.27243 0.550312 -3.1738e-20)
(-0.303784 0.532133 -3.24336e-18)
(-0.329874 0.512902 3.12368e-19)
(-0.352475 0.491614 1.16896e-18)
(-0.369578 0.468538 -3.17987e-18)
(-0.382202 0.443745 2.3946e-18)
(-0.3895 0.417796 -2.20817e-18)
(-0.392647 0.391149 6.05783e-18)
(-0.391626 0.364661 -2.52539e-18)
(-0.387545 0.339222 3.06512e-18)
(-0.379625 0.316003 6.21276e-18)
(-0.367801 0.295565 2.6739e-18)
(-0.120121 0.39395 -3.00277e-19)
(-0.202163 0.581286 -5.56667e-21)
(-0.236127 0.589089 -2.6795e-20)
(-0.261408 0.574037 -7.65449e-20)
(-0.286026 0.556595 -1.57583e-18)
(-0.305756 0.537717 -7.02519e-19)
(-0.322139 0.516402 1.14346e-18)
(-0.333236 0.493091 6.97611e-19)
(-0.340031 0.467944 -4.04988e-18)
(-0.341751 0.441601 -2.25884e-19)
(-0.339483 0.414569 -1.18912e-18)
(-0.333221 0.387718 2.42206e-18)
(-0.32404 0.361891 -3.38927e-18)
(-0.310984 0.338076 -4.76134e-19)
(-0.294091 0.316703 -3.02241e-18)
(-0.119504 0.381226 1.33786e-18)
(-0.202007 0.589312 -1.18866e-18)
(-0.23053 0.606923 -1.62473e-18)
(-0.249625 0.594506 2.90135e-18)
(-0.267898 0.578201 2.56558e-18)
(-0.281583 0.560063 3.29894e-18)
(-0.29201 0.538976 1.43201e-19)
(-0.297356 0.515692 2.26885e-18)
(-0.298539 0.490434 3.05595e-18)
(-0.294857 0.463928 4.58196e-18)
(-0.287292 0.436732 -2.12699e-18)
(-0.275829 0.409739 4.47562e-18)
(-0.261661 0.383798 -2.88132e-20)
(-0.24367 0.359701 -2.27525e-18)
(-0.220258 0.336995 -5.62495e-18)
(-0.115743 0.361958 -8.4356e-19)
(-0.199359 0.59117 1.31993e-18)
(-0.223792 0.620807 8.79325e-19)
(-0.23715 0.61184 -2.73111e-18)
(-0.249409 0.597176 -1.27882e-18)
(-0.257377 0.579943 -2.36075e-19)
(-0.26223 0.559364 -1.73904e-18)
(-0.262086 0.536365 -2.99502e-18)
(-0.25789 0.511209 -5.13314e-18)
(-0.248989 0.484731 -2.23895e-18)
(-0.236264 0.457557 3.14784e-18)
(-0.219617 0.430593 -6.59586e-18)
(-0.200354 0.404702 2.26774e-19)
(-0.178282 0.380612 4.19305e-18)
(-0.146984 0.357304 6.02787e-18)
(-0.108657 0.336159 -2.02593e-18)
(-0.194009 0.586742 1.57613e-18)
(-0.215661 0.630586 -2.72555e-18)
(-0.223977 0.626316 -1.31318e-18)
(-0.230714 0.613679 -7.53266e-20)
(-0.233282 0.597452 1.82317e-18)
(-0.232855 0.577682 2.96804e-18)
(-0.227541 0.555153 9.87915e-19)
(-0.218218 0.530266 1.44257e-18)
(-0.204292 0.503961 -4.07219e-18)
(-0.186569 0.476951 1.06879e-19)
(-0.164825 0.450149 -3.15368e-18)
(-0.140341 0.424469 -2.341e-18)
(-0.114334 0.400418 -6.70736e-18)
(-0.0755998 0.378088 -8.77867e-20)
(-0.0982037 0.304065 1.78273e-18)
(-0.185882 0.575943 2.82447e-19)
(-0.206045 0.636155 4.2543e-19)
(-0.210085 0.637918 3.25789e-18)
(-0.211794 0.627668 1.37779e-18)
(-0.209418 0.612807 -1.69803e-18)
(-0.20402 0.594022 1.34026e-18)
(-0.193855 0.572116 -7.82605e-19)
(-0.179669 0.547631 -1.57154e-18)
(-0.160917 0.521599 1.79695e-18)
(-0.138379 0.49485 -6.07282e-18)
(-0.111662 0.468304 -2.423e-19)
(-0.0817736 0.442837 -3.45025e-18)
(-0.0524155 0.418926 5.34526e-18)
(-0.00490811 0.399006 4.92039e-19)
(-0.0846285 0.266172 -6.79943e-19)
(-0.175029 0.558573 -1.90683e-18)
(-0.194977 0.637267 5.05017e-19)
(-0.195511 0.646576 -3.74766e-18)
(-0.19269 0.639255 -2.56438e-18)
(-0.185813 0.626066 -1.4482e-18)
(-0.175816 0.60844 -2.54675e-18)
(-0.161129 0.587294 2.46945e-18)
(-0.14236 0.563315 3.49677e-18)
(-0.118989 0.537622 6.84699e-18)
(-0.0918383 0.511191 -3.03794e-19)
(-0.0604212 0.484941 7.7635e-18)
(-0.0245982 0.459701 3.06433e-18)
(0.00684826 0.436053 2.39103e-18)
(0.0653788 0.419697 -5.30344e-18)
(-0.0686723 0.223228 1.16805e-18)
(-0.161648 0.534232 2.90015e-18)
(-0.182541 0.633431 1.98905e-18)
(-0.180333 0.652144 2.60989e-18)
(-0.173477 0.648529 1.01183e-20)
(-0.162514 0.637308 1.03281e-18)
(-0.14831 0.620985 2.73233e-20)
(-0.129447 0.60073 -1.90495e-18)
(-0.106398 0.577347 2.98476e-18)
(-0.07861 0.552025 -1.04456e-17)
(-0.0470094 0.525912 3.07199e-18)
(-0.0114779 0.500052 -2.03734e-18)
(0.031364 0.474802 4.00591e-19)
(0.0627353 0.450619 -3.03854e-18)
(0.135128 0.440662 -3.41446e-18)
(-0.0518856 0.176245 -1.90593e-18)
(-0.146125 0.50226 2.53659e-18)
(-0.168835 0.623874 -6.402e-19)
(-0.164646 0.654319 -1.10127e-18)
(-0.154255 0.655494 2.31089e-18)
(-0.139607 0.646576 2.45094e-19)
(-0.121574 0.631738 -6.92376e-19)
(-0.0988716 0.612474 -8.17261e-20)
(-0.0718854 0.589759 -1.92585e-18)
(-0.0399063 0.564803 5.00779e-18)
(-0.0037789 0.538906 3.07062e-18)
(0.0346707 0.513594 1.62677e-18)
(0.0863818 0.488617 -1.49256e-19)
(0.114848 0.461755 3.89019e-18)
(0.204079 0.460678 -3.45427e-19)
(-0.0368233 0.126956 5.57246e-19)
(-0.129007 0.461729 -6.08525e-19)
(-0.153905 0.607558 4.72533e-19)
(-0.148518 0.65256 2.0389e-18)
(-0.135125 0.660007 -1.30511e-18)
(-0.117185 0.653923 -8.52078e-19)
(-0.0956979 0.640731 -1.60614e-18)
(-0.0694743 0.622574 1.27071e-18)
(-0.0388821 0.600587 -1.32807e-18)
(-0.00311284 0.576035 -1.53076e-18)
(0.0381664 0.550086 -2.65479e-18)
(0.0775618 0.525385 -1.54581e-18)
(0.140756 0.501486 5.62284e-18)
(0.16234 0.468592 -7.73461e-18)
(0.271978 0.479757 -2.02426e-19)
(-0.02568 0.0787181 2.37939e-18)
(-0.110924 0.411559 -9.26289e-19)
(-0.137746 0.583284 -2.40677e-18)
(-0.131997 0.646041 -6.45823e-19)
(-0.116196 0.661703 3.41388e-18)
(-0.095355 0.659234 -6.94302e-20)
(-0.0707818 0.648046 1.66649e-18)
(-0.0413247 0.631055 -9.16687e-19)
(-0.00737527 0.609809 -3.58387e-18)
(0.0313427 0.585801 8.33279e-18)
(0.0793011 0.559407 -6.13945e-18)
(0.116713 0.534999 1.82067e-18)
(0.195412 0.515217 -8.00186e-18)
(0.205145 0.470313 2.83124e-18)
(0.336537 0.492882 2.3179e-18)
(-0.0177766 0.0361953 -8.4866e-19)
(-0.0921558 0.350842 -2.7274e-18)
(-0.120272 0.549849 1.23288e-18)
(-0.115091 0.633559 2.18197e-19)
(-0.0975559 0.659929 -3.0682e-18)
(-0.074212 0.662352 1.90406e-18)
(-0.0469579 0.653572 9.85895e-20)
(-0.0146115 0.637982 -4.69238e-19)
(0.022886 0.617356 -3.6669e-18)
(0.0628388 0.594222 -4.27907e-19)
(0.120112 0.567187 4.88806e-18)
(0.15142 0.540799 4.11346e-19)
(0.250702 0.531044 1.15785e-18)
(0.246299 0.473641 3.31928e-18)
(0.396945 0.497151 -8.42875e-18)
(-0.0100543 0.00339588 -1.287e-18)
(-0.0729237 0.279704 4.19789e-20)
(-0.101444 0.506112 -1.56484e-18)
(-0.0978251 0.613509 1.26994e-18)
(-0.0793068 0.653619 1.73377e-18)
(-0.0538871 0.662778 -1.30352e-18)
(-0.024301 0.657308 -2.26971e-19)
(0.0102904 0.643281 -1.09547e-18)
(0.0522501 0.62306 2.74532e-18)
(0.0908384 0.600964 5.30278e-19)
(0.161172 0.574654 -7.07745e-18)
(0.181184 0.541055 1.93076e-18)
(0.305091 0.544338 1.19306e-18)
(0.287581 0.482966 -5.36938e-18)
(0.455764 0.500169 1.21567e-18)
(-0.00105545 -0.0174914 2.90617e-19)
(-0.0544531 0.201503 7.82536e-19)
(-0.0815051 0.450804 1.45997e-18)
(-0.0802073 0.583863 -1.2394e-18)
(-0.0615421 0.641356 -5.17318e-20)
(-0.0345722 0.659834 3.1483e-18)
(-0.00287976 0.658672 -1.46483e-19)
(0.0327522 0.6471 -4.59375e-21)
(0.0811537 0.626865 4.4482e-18)
(0.114698 0.605185 -2.55408e-18)
(0.202941 0.583839 1.81768e-18)
(0.20713 0.537497 -5.13453e-18)
(0.357128 0.549371 4.39872e-19)
(0.327697 0.492036 -1.35097e-18)
(0.512962 0.504312 2.33071e-18)
(0.0075459 -0.0274964 -2.16987e-19)
(-0.0382885 0.124885 9.75829e-19)
(-0.0614541 0.382907 -1.29906e-18)
(-0.0623798 0.542303 2.73204e-18)
(-0.0444034 0.621061 -2.30628e-18)
(-0.0166576 0.652253 -2.07158e-18)
(0.0174646 0.657246 -1.2903e-18)
(0.051942 0.648636 -2.79606e-18)
(0.1096 0.629201 -5.42317e-18)
(0.134132 0.604255 8.25822e-19)
(0.244316 0.595022 4.26095e-18)
(0.231832 0.536421 3.40677e-18)
(0.405568 0.546906 5.68413e-19)
(0.368053 0.497238 -2.82368e-18)
(0.565566 0.503547 -1.40432e-18)
(0.0138068 -0.0301844 5.21479e-19)
(-0.0227949 0.0616838 9.14901e-19)
(-0.0419775 0.302578 -3.90033e-18)
(-0.0447483 0.48682 -2.69995e-18)
(-0.0280452 0.590345 -7.98819e-20)
(-0.000824923 0.63811 2.17152e-18)
(0.0365695 0.651462 -8.00853e-19)
(0.0674831 0.647617 6.21577e-18)
(0.137161 0.631297 5.07812e-19)
(0.14917 0.596733 -3.48927e-18)
(0.282065 0.60053 -3.28266e-18)
(0.258533 0.540237 -5.22336e-18)
(0.445791 0.542271 5.76451e-18)
(0.410153 0.499173 3.79682e-18)
(0.613027 0.498252 -1.27411e-20)
(0.0172745 -0.0291671 -1.45225e-18)
(-0.00598211 0.0182979 -2.69379e-18)
(-0.0239622 0.212571 1.94091e-18)
(-0.0279626 0.415817 2.37901e-18)
(-0.0127358 0.545955 1.483e-18)
(0.0120977 0.6149 -1.51304e-18)
(0.0541323 0.639805 3.87168e-18)
(0.0783846 0.639893 -5.54858e-18)
(0.162544 0.635025 6.17526e-18)
(0.16314 0.586927 3.95905e-18)
(0.30816 0.595604 -1.24083e-18)
(0.290394 0.539165 -1.721e-18)
(0.472818 0.537292 -2.3153e-18)
(0.450778 0.495127 -4.56897e-18)
(0.65852 0.488011 5.45997e-18)
(0.0188776 -0.0268562 4.09524e-18)
(0.0103642 -0.00684074 3.14141e-18)
(-0.00793313 0.126753 7.13283e-19)
(-0.0134166 0.330232 -4.07816e-20)
(0.00119303 0.484763 -5.14222e-19)
(0.0210383 0.57842 -6.08058e-19)
(0.0688893 0.620642 -3.02553e-18)
(0.0857183 0.623714 5.2763e-18)
(0.179401 0.631771 -4.1362e-18)
(0.182715 0.580793 -3.68859e-20)
(0.317324 0.584442 4.00383e-18)
(0.326099 0.530343 2.79143e-18)
(0.486395 0.528538 2.79201e-18)
(0.489895 0.486017 -2.60256e-20)
(0.692342 0.465815 -3.26656e-18)
(0.0200778 -0.0245031 -2.45923e-18)
(0.0241051 -0.0193485 -2.54999e-18)
(0.00857313 0.0629727 7.93319e-19)
(-0.00139498 0.237081 -1.28214e-18)
(0.0129896 0.405115 -6.0453e-19)
(0.0257503 0.524398 2.19381e-18)
(0.0778857 0.589383 -5.80269e-19)
(0.0905955 0.597533 -5.41382e-19)
(0.184134 0.619712 -1.6724e-18)
(0.204108 0.56556 -3.83766e-18)
(0.315414 0.575883 1.79565e-18)
(0.36619 0.509555 -2.11262e-18)
(0.488225 0.528051 -3.25671e-18)
(0.527216 0.447223 -1.45396e-18)
(0.728579 0.481401 5.82925e-18)
(0.0222079 -0.0226532 2.77587e-18)
(0.0358505 -0.024664 -2.18059e-18)
(0.0265431 0.0255803 -3.58248e-18)
(0.0104381 0.151887 3.66167e-19)
(0.022474 0.312151 8.66512e-19)
(0.0262493 0.449256 -6.11235e-19)
(0.0784255 0.542059 1.67136e-18)
(0.093321 0.55622 3.49418e-19)
(0.172293 0.592129 -2.53871e-19)
(0.231911 0.550105 1.13378e-19)
(0.28668 0.54128 -1.86691e-18)
(0.433671 0.510549 2.28257e-19)
(0.442453 0.489163 1.05094e-18)
(0.624525 0.443021 -8.16535e-19)
(0.694632 0.467512 5.62336e-18)
(0.0257977 -0.0216918 5.83309e-19)
(0.0468828 -0.0270005 -1.25314e-18)
(0.0434168 0.00651803 3.48867e-18)
(0.0245156 0.0899174 2.70278e-18)
(0.0294776 0.220684 -2.71485e-18)
(0.0247994 0.357432 -1.8449e-19)
(0.0669038 0.472457 -1.26078e-18)
(0.0949186 0.503155 -4.80493e-19)
(0.142859 0.533096 3.47013e-18)
(0.252569 0.533079 1.7519e-18)
(0.248798 0.481193 2.41479e-18)
(0.472864 0.5021 -1.9414e-18)
(0.373743 0.407871 1.31093e-18)
(0.703535 0.451553 -7.40154e-19)
(0.502498 0.333929 -7.17085e-18)
(0.0307326 -0.0219076 4.65718e-19)
(0.0572837 -0.0291181 7.45603e-19)
(0.0569007 -0.00411759 -1.92233e-18)
(0.0388061 0.0521464 -2.1948e-18)
(0.0338976 0.146009 -2.0215e-18)
(0.0221601 0.262896 1.74372e-19)
(0.0473901 0.382222 1.47258e-18)
(0.0841953 0.43409 -2.66248e-18)
(0.114104 0.456521 -1.39582e-18)
(0.231037 0.472296 7.8119e-19)
(0.238236 0.430704 -2.21158e-18)
(0.425948 0.432021 2.24886e-19)
(0.354881 0.346755 1.5317e-18)
(0.635081 0.382601 -2.11301e-18)
(0.423258 0.235889 1.7052e-18)
(0.0363201 -0.0232526 -1.04861e-18)
(0.0658223 -0.0324859 2.37906e-18)
(0.065478 -0.0134309 1.5747e-18)
(0.0482093 0.0273307 1.05631e-18)
(0.0346207 0.0912023 1.72828e-18)
(0.0158418 0.178531 -1.74031e-19)
(0.0258591 0.284989 -1.36175e-18)
(0.0565183 0.344339 2.99782e-19)
(0.0876599 0.376454 1.84748e-18)
(0.180658 0.371528 -2.95681e-18)
(0.22466 0.36833 -1.38189e-18)
(0.348431 0.336897 1.21615e-19)
(0.336615 0.28782 -4.40969e-19)
(0.598013 0.321069 2.53926e-18)
(0.684269 0.317153 -2.373e-18)
(0.0413584 -0.0253018 1.14459e-18)
(0.0706255 -0.0374468 7.65018e-19)
(0.0674908 -0.0248499 -9.1005e-20)
(0.0487714 0.00488092 -6.84951e-19)
(0.0284558 0.0483901 1.54009e-19)
(0.00329275 0.10801 -2.01539e-18)
(0.00224142 0.192413 4.47278e-19)
(0.0183537 0.243332 -8.78991e-19)
(0.0513092 0.286086 -8.90352e-19)
(0.129702 0.265646 2.01987e-18)
(0.177637 0.269152 2.92356e-18)
(0.280278 0.244996 1.40401e-18)
(0.389062 0.251278 1.46733e-18)
(0.733294 0.339852 -1.91681e-18)
(0.930797 0.391064 -2.00861e-18)
(0.0444011 -0.0273652 9.47291e-19)
(0.0699897 -0.0434297 -1.80081e-18)
(0.0616932 -0.0387436 -8.70609e-19)
(0.0391352 -0.0195885 -1.94599e-18)
(0.0129008 0.00879875 8.74848e-19)
(-0.0169278 0.0466992 2.12949e-18)
(-0.0274777 0.107024 -2.42586e-18)
(-0.0246786 0.141418 8.50375e-19)
(0.0092435 0.186161 1.60298e-18)
(0.068721 0.158778 4.27526e-19)
(0.130543 0.163965 -1.88185e-18)
(0.319373 0.200966 -8.108e-19)
(0.594529 0.289945 -2.05537e-21)
(0.905233 0.38297 1.1138e-18)
(1.06942 0.428303 4.37663e-18)
(0.0441553 -0.0286432 -1.53372e-18)
(0.063054 -0.0492965 -1.53831e-18)
(0.0479769 -0.0538239 8.60392e-19)
(0.0200305 -0.0461133 3.45704e-18)
(-0.0120933 -0.0314641 -2.24255e-18)
(-0.046013 -0.0107669 6.33624e-19)
(-0.0660371 0.0264491 9.38819e-19)
(-0.0705513 0.0438045 -7.70928e-20)
(-0.0427426 0.0831406 2.0071e-19)
(0.0304295 0.070478 8.63731e-19)
(0.209119 0.128429 -7.95255e-19)
(0.51197 0.238978 -1.71782e-18)
(0.804901 0.344895 -1.61876e-18)
(1.02481 0.413299 1.3505e-18)
(1.15844 0.449962 4.20957e-19)
(0.0398496 -0.0284061 -3.78606e-19)
(0.0500152 -0.0535765 3.04927e-18)
(0.0275607 -0.0676392 6.39492e-19)
(-0.00638659 -0.0716474 9.09103e-19)
(-0.044622 -0.070229 8.26558e-19)
(-0.083759 -0.0638066 7.91681e-19)
(-0.111785 -0.0465265 -2.81994e-19)
(-0.112577 -0.0393727 5.03764e-19)
(-0.0619624 0.00147961 2.3633e-19)
(0.117941 0.0546145 1.06622e-18)
(0.421587 0.175727 6.92997e-20)
(0.723335 0.299851 1.19593e-18)
(0.948147 0.380819 -1.01934e-18)
(1.10777 0.431309 -1.02104e-18)
(1.19668 0.44796 6.97708e-19)
(0.031524 -0.0261388 1.36818e-18)
(0.0321539 -0.0546677 -1.25091e-18)
(0.00298507 -0.0769995 1.31195e-19)
(-0.036108 -0.0910262 -1.85576e-18)
(-0.078977 -0.099828 -1.53308e-18)
(-0.119874 -0.102749 2.62842e-18)
(-0.143309 -0.0961307 7.36032e-19)
(-0.108671 -0.0846666 -1.04564e-18)
(0.0264118 -0.0179433 2.70746e-19)
(0.330334 0.110504 -2.88661e-18)
(0.640964 0.242241 1.04007e-18)
(0.876468 0.341249 -1.27182e-18)
(1.04581 0.401358 1.60719e-18)
(1.14991 0.431436 -1.70817e-19)
(1.21804 0.444946 -1.00975e-18)
(0.0200992 -0.0217265 -2.13812e-18)
(0.0117183 -0.0513726 -2.17922e-18)
(-0.0220226 -0.0789414 -2.23239e-18)
(-0.0631592 -0.0985335 -1.68044e-18)
(-0.104705 -0.111559 1.11817e-18)
(-0.136322 -0.115766 -4.4994e-18)
(-0.135599 -0.107458 4.08282e-19)
(-0.030219 -0.076297 3.77861e-19)
(0.224263 0.0410898 2.01431e-19)
(0.550542 0.181941 1.34783e-18)
(0.804577 0.289975 -1.12719e-18)
(0.985578 0.367142 2.80969e-18)
(1.10231 0.406472 -6.1022e-19)
(1.17856 0.430546 -1.22466e-18)
(1.22859 0.436733 6.95301e-19)
(0.00709844 -0.0155853 3.78223e-19)
(-0.00872732 -0.0435627 1.76999e-18)
(-0.043699 -0.0724431 2.53261e-18)
(-0.0821538 -0.0927994 4.05332e-19)
(-0.114805 -0.104361 2.01441e-18)
(-0.125807 -0.103359 1.10461e-18)
(-0.0857377 -0.0891522 3.41959e-19)
(0.121957 -0.0171498 -1.65177e-18)
(0.444428 0.122735 -9.43801e-20)
(0.724645 0.236892 7.07218e-19)
(0.926163 0.323333 2.78868e-18)
(1.05627 0.379042 -3.75353e-19)
(1.14206 0.408887 1.04481e-18)
(1.19336 0.42408 1.00536e-18)
(1.2284 0.425859 1.6388e-18)
(-0.00588048 -0.00856095 6.99921e-19)
(-0.0272129 -0.03241 -2.34486e-18)
(-0.0601056 -0.0594062 -4.99274e-19)
(-0.0913996 -0.0772157 1.54828e-20)
(-0.110221 -0.0844483 -3.7846e-18)
(-0.0945346 -0.0780151 9.85644e-19)
(0.0028545 -0.0573396 -4.74333e-19)
(0.318978 0.0633658 5.52057e-19)
(0.627568 0.184803 1.79365e-18)
(0.859879 0.276886 -6.16035e-19)
(1.0108 0.343928 -2.17795e-18)
(1.10696 0.386657 -3.17275e-19)
(1.16426 0.405719 -3.54002e-19)
(1.1995 0.416546 -7.72811e-19)
(1.23029 0.417899 -1.76958e-18)
(-0.0175315 -0.00165778 1.45408e-19)
(-0.0426768 -0.0197712 6.34027e-19)
(-0.0711324 -0.0428714 -1.65009e-18)
(-0.0927125 -0.0566885 6.83274e-19)
(-0.0958498 -0.0599378 1.57895e-18)
(-0.050433 -0.0537956 -6.64428e-19)
(0.139574 0.00041919 -1.48633e-19)
(0.502485 0.130755 -1.4855e-18)
(0.776192 0.23398 3.10539e-19)
(0.959864 0.306294 -1.04776e-18)
(1.07279 0.359593 1.05118e-18)
(1.13817 0.388277 -8.92646e-19)
(1.17784 0.401755 1.59896e-18)
(1.20494 0.410241 -6.11601e-19)
(1.22651 0.407454 -1.2887e-18)
(-0.0270447 0.00431019 7.53592e-19)
(-0.0547918 -0.00743204 4.7211e-19)
(-0.0775836 -0.0257425 4.2515e-19)
(-0.0885067 -0.0354031 9.58741e-20)
(-0.0754907 -0.0372088 7.44407e-19)
(0.0151808 -0.0351206 -1.75486e-18)
(0.321078 0.0747961 9.33375e-19)
(0.659999 0.187018 2.14801e-18)
(0.891071 0.27245 -2.06664e-19)
(1.03455 0.328989 1.6086e-18)
(1.11361 0.36845 9.94856e-19)
(1.15934 0.38826 1.66766e-19)
(1.18682 0.397926 3.33985e-19)
(1.20437 0.402325 6.51525e-19)
(1.22394 0.399758 1.50622e-18)
(-0.0341503 0.00885697 1.15674e-18)
(-0.063741 0.00325221 1.65072e-18)
(-0.0804896 -0.0100895 -1.49413e-18)
(-0.081058 -0.0155893 1.35588e-18)
(-0.0508517 -0.021628 -3.18668e-18)
(0.120688 0.00503493 7.47482e-19)
(0.495891 0.137634 -2.71506e-19)
(0.791802 0.233163 -1.34967e-18)
(0.979881 0.302838 -2.38294e-18)
(1.08661 0.344925 -9.13038e-19)
(1.14229 0.375071 -2.30368e-18)
(1.17283 0.387107 1.45657e-18)
(1.19004 0.393217 -1.99135e-18)
(1.20529 0.396633 1.36757e-18)
(1.22107 0.392327 9.3864e-19)
(-0.0389471 0.0118241 -2.74327e-18)
(-0.0699257 0.0114836 9.96729e-20)
(-0.0805112 0.0030786 1.94206e-19)
(-0.0719946 0.00118901 3.83277e-19)
(-0.0115614 -0.0151044 2.09925e-19)
(0.274161 0.0722447 1.48929e-18)
(0.641992 0.190299 8.13592e-19)
(0.896507 0.271349 -2.21612e-19)
(1.04479 0.326134 1.08113e-18)
(1.12361 0.357345 7.0629e-19)
(1.16045 0.378832 3.3101e-19)
(1.18027 0.384852 -8.25591e-19)
(1.19318 0.390263 2.74588e-18)
(1.20387 0.390602 4.78055e-19)
(1.21642 0.38546 -1.01065e-18)
(-0.0418093 0.0133104 2.52996e-18)
(-0.0737274 0.016879 -1.81481e-18)
(-0.0779981 0.0138052 5.78534e-19)
(-0.0624028 0.011546 -6.26832e-20)
(0.0570224 0.000279386 3.06231e-18)
(0.438479 0.133408 -2.54887e-19)
(0.769322 0.235122 -9.73576e-19)
(0.97931 0.301924 2.35712e-18)
(1.0931 0.344311 2.15987e-19)
(1.14806 0.36592 9.42709e-19)
(1.17188 0.38112 -1.88069e-18)
(1.18566 0.383502 4.19664e-20)
(1.19307 0.386946 -8.63793e-19)
(1.20213 0.385413 -1.79051e-19)
(1.21365 0.380443 -5.91375e-19)
(-0.0433203 0.0135036 -6.77056e-19)
(-0.0752937 0.0193803 1.89948e-18)
(-0.0743458 0.0224304 1.15101e-18)
(-0.0470436 0.0122034 9.3559e-19)
(0.166913 0.0479678 -5.01486e-19)
(0.578257 0.184093 -2.02885e-19)
(0.871052 0.272522 1.29988e-18)
(1.04137 0.326682 -9.97758e-19)
(1.12601 0.357909 3.06079e-19)
(1.164 0.372473 -1.57958e-18)
(1.17901 0.382775 1.08391e-19)
(1.18728 0.381501 2.44947e-19)
(1.19291 0.384721 -3.58482e-19)
(1.20064 0.381163 -2.14179e-18)
(1.20885 0.375413 8.99534e-19)
(-0.0441307 0.012516 -1.19483e-18)
(-0.0747523 0.0199154 -1.50024e-18)
(-0.071504 0.0268325 7.93974e-19)
(-0.013485 0.00322773 -1.07249e-19)
(0.315264 0.107912 -1.25428e-18)
(0.703475 0.228307 -4.69637e-20)
(0.954032 0.303582 -9.1346e-19)
(1.08804 0.346033 -1.77452e-18)
(1.14942 0.368357 -7.07911e-19)
(1.17411 0.377264 6.54931e-19)
(1.18237 0.38341 6.03632e-19)
(1.18848 0.380565 -6.04241e-20)
(1.19171 0.382875 -9.66585e-19)
(1.19765 0.376864 1.7642e-18)
(1.20509 0.37186 5.4849e-19)
(-0.0445901 0.010546 1.17644e-18)
(-0.072577 0.0201465 4.70124e-22)
(-0.0689275 0.0251439 -1.94947e-18)
(0.047957 0.00707808 -4.66178e-20)
(0.463058 0.158498 3.02975e-19)
(0.809931 0.264998 5.48776e-19)
(1.01748 0.328336 -9.72075e-19)
(1.12092 0.36117 4.92086e-19)
(1.16398 0.376186 -2.26746e-20)
(1.17943 0.380857 5.37775e-19)
(1.18422 0.384288 -4.82917e-19)
(1.1877 0.379569 -1.35933e-18)
(1.18962 0.381206 -6.68165e-20)
(1.19547 0.373741 -8.54197e-19)
(1.20072 0.368887 -7.38499e-19)
(-0.0447283 0.00794097 4.78505e-19)
(-0.0699434 0.0207262 -9.77473e-19)
(-0.061461 0.0161604 9.91801e-19)
(0.143292 0.0444547 -3.11616e-19)
(0.58892 0.20293 -1.74182e-19)
(0.896714 0.296961 -4.89531e-19)
(1.06642 0.348783 7.71049e-19)
(1.14427 0.372928 4.89851e-19)
(1.17354 0.382231 -2.89133e-19)
(1.18255 0.383881 -8.1481e-19)
(1.18408 0.384648 -2.94288e-19)
(1.18651 0.379151 1.39439e-18)
(1.18765 0.380235 8.53049e-19)
(1.19206 0.37066 8.41156e-19)
(1.19595 0.366477 -2.59168e-19)
(-0.0446349 0.00553905 -3.01503e-19)
(-0.0692331 0.0198666 1.08325e-19)
(-0.0392354 0.000668184 -4.07785e-19)
(0.275494 0.0994677 -6.93887e-21)
(0.701989 0.241168 -3.19922e-19)
(0.967824 0.322925 -4.74991e-19)
(1.10276 0.364651 1.65959e-19)
(1.15964 0.381928 -9.7292e-19)
(1.17855 0.386968 8.54873e-19)
(1.18294 0.386226 1.08119e-18)
(1.18325 0.385367 1.38e-19)
(1.18455 0.379078 -1.21339e-18)
(1.18456 0.379098 -1.17993e-18)
(1.18885 0.368352 -8.90435e-19)
(1.19161 0.365037 3.57826e-19)
(-0.0444041 0.00509707 -9.67053e-19)
(-0.0707464 0.0154232 2.65059e-19)
(0.00646721 -0.00921893 -1.90762e-19)
(0.419099 0.149081 -1.3232e-21)
(0.79989 0.27336 -7.99541e-20)
(1.02286 0.344299 -1.77921e-19)
(1.12882 0.377579 3.35822e-19)
(1.16955 0.389168 -1.90366e-19)
(1.18104 0.390841 -2.44615e-19)
(1.18265 0.388524 -4.72902e-19)
(1.1815 0.385993 -4.18377e-19)
(1.18197 0.379187 -1.92424e-19)
(1.18175 0.378556 7.32829e-19)
(1.18518 0.366485 -2.90062e-20)
(1.18635 0.363723 5.73978e-19)
(-0.0441844 0.00766637 4.02357e-19)
(-0.0713052 0.00747352 6.72144e-19)
(0.076164 0.00403694 1.10131e-19)
(0.543404 0.191478 4.18892e-19)
(0.88219 0.302535 9.18498e-19)
(1.06639 0.362152 3.38956e-19)
(1.14744 0.387678 1.23941e-18)
(1.17529 0.394802 6.48063e-19)
(1.18142 0.394157 4.0808e-19)
(1.18081 0.390498 9.29034e-19)
(1.17917 0.386857 2.86105e-19)
(1.17915 0.379744 5.22445e-19)
(1.17811 0.377949 2.588e-19)
(1.18108 0.365002 1.20839e-19)
(1.18158 0.363178 3.96984e-19)
(-0.0443071 0.012209 5.58288e-19)
(-0.0655182 -0.0038392 -9.52937e-19)
(0.172224 0.0453008 -1.79864e-19)
(0.649909 0.229403 4.35496e-19)
(0.949853 0.327796 -9.24136e-19)
(1.0993 0.377021 -3.76873e-19)
(1.15975 0.396 -7.63421e-19)
(1.17806 0.399653 -2.4567e-20)
(1.18048 0.397148 -2.01889e-19)
(1.17874 0.392592 -7.83402e-19)
(1.17648 0.387878 5.93826e-19)
(1.17571 0.380339 4.52194e-20)
(1.17451 0.377704 -2.51666e-20)
(1.17698 0.364146 2.12337e-19)
(1.1762 0.362761 -4.87044e-19)
(-0.0452714 0.0154215 -4.1227e-20)
(-0.0473767 -0.015052 4.15829e-19)
(0.290196 0.0973508 1.12538e-19)
(0.742659 0.261454 -6.0685e-19)
(1.00403 0.349289 4.07654e-19)
(1.12409 0.38955 1.29684e-19)
(1.16799 0.402887 -3.39567e-19)
(1.17888 0.403739 -1.60394e-19)
(1.17864 0.399971 -4.83709e-19)
(1.1758 0.394599 8.4884e-20)
(1.17319 0.389033 -5.75467e-19)
(1.17214 0.381303 -4.06221e-19)
(1.17044 0.37759 1.08289e-19)
(1.17226 0.363508 1.11436e-19)
(1.1709 0.362669 -1.93297e-19)
(-0.0472618 0.013838 -2.0687e-19)
(-0.0142618 -0.0196939 -1.31448e-19)
(0.41407 0.14566 2.8583e-19)
(0.823876 0.289864 5.20466e-19)
(1.04698 0.367252 1.01274e-19)
(1.14181 0.39992 -2.79799e-19)
(1.17259 0.408842 3.51396e-19)
(1.17814 0.407632 3.04846e-19)
(1.17603 0.402782 1.57631e-19)
(1.17267 0.396764 2.96149e-20)
(1.16975 0.390439 1.8528e-19)
(1.16807 0.382321 8.14466e-20)
(1.16613 0.377672 -5.67894e-20)
(1.16761 0.363406 -7.16515e-20)
(1.16549 0.362778 6.29526e-20)
(-0.0499858 0.00536713 -9.62746e-20)
(0.0334265 -0.0139488 -1.1284e-19)
(0.526504 0.187899 9.29146e-20)
(0.894426 0.3162 -1.23148e-19)
(1.0809 0.382839 -2.63775e-19)
(1.15424 0.408788 2.06479e-20)
(1.17492 0.41416 1.61969e-19)
(1.17648 0.41128 -1.45829e-19)
(1.17302 0.405626 9.61108e-20)
(1.16902 0.398987 1.92974e-19)
(1.16575 0.391945 3.07054e-20)
(1.16381 0.383582 7.62808e-20)
(1.1616 0.377986 -9.17294e-20)