/*--------------------------------*- C++ -*----------------------------------*\
  =========                 |
  \\      /  F ield         | OpenFOAM: The Open Source CFD Toolbox
   \\    /   O peration     | Website:  https://openfoam.org
    \\  /    A nd           | Version:  7
     \\/     M anipulation  |
\*---------------------------------------------------------------------------*/
FoamFile
{
    version     2.0;
    format      ascii;
    class       volScalarField;
    location    "0.9999";
    object      p;
}
// * * * * * * * * * * * * * * * * * * * * * * * * * * * * * * * * * * * * * //

dimensions      [0 2 -2 0 0 0 0];

internalField   nonuniform List<scalar> 
18750
(
-0.0404557
-0.0474444
-0.0530854
-0.052153
-0.038966
-0.0128845
0.0231679
0.0627046
0.101989
0.131783
0.154846
0.167251
0.172483
0.170322
0.163853
-0.0454261
-0.0521474
-0.0576178
-0.0565885
-0.0432938
-0.0170304
0.0193135
0.0591117
0.0985625
0.128866
0.15202
0.164722
0.170188
0.168284
0.162012
-0.0553168
-0.0615092
-0.0666396
-0.0654176
-0.0519054
-0.0252736
0.0116438
0.0519933
0.0917838
0.123047
0.14645
0.15972
0.165651
0.164254
0.158381
-0.0700292
-0.0754447
-0.0800704
-0.0785654
-0.0647288
-0.0375397
0.000217296
0.0414583
0.0817754
0.114384
0.138275
0.152352
0.158966
0.158316
0.153042
-0.0894178
-0.0938318
-0.0977997
-0.095938
-0.0816809
-0.0537554
-0.0149111
0.027613
0.0687147
0.10296
0.127661
0.142752
0.150248
0.150578
0.146108
-0.113292
-0.116514
-0.119691
-0.117425
-0.102673
-0.0738524
-0.0336892
0.0105463
0.0528168
0.0888771
0.114762
0.131064
0.139629
0.141166
0.137704
-0.141418
-0.143301
-0.14558
-0.142901
-0.127603
-0.0977499
-0.056037
-0.00968707
0.034279
0.0722594
0.0996991
0.117427
0.127256
0.130227
0.12797
-0.173523
-0.173953
-0.175271
-0.172226
-0.15637
-0.125341
-0.0817976
-0.0328225
0.0130942
0.0532135
0.0825848
0.102006
0.113313
0.117935
0.117055
-0.209308
-0.208158
-0.208527
-0.20524
-0.188901
-0.156517
-0.110834
-0.0589083
-0.0103569
0.0319569
0.0635848
0.0850263
0.0980119
0.104465
0.105096
-0.248443
-0.245512
-0.245057
-0.241728
-0.224941
-0.191152
-0.142996
-0.0876856
-0.0358975
0.00880198
0.0429333
0.0667279
0.0815484
0.0899503
0.0922036
-0.290452
-0.285585
-0.284511
-0.281417
-0.264331
-0.229083
-0.178111
-0.118758
-0.0633336
-0.0159021
0.020896
0.0472932
0.064074
0.0744891
0.0784783
-0.334744
-0.327868
-0.326449
-0.32393
-0.306752
-0.270017
-0.216111
-0.151538
-0.092466
-0.0418673
-0.00226353
0.02686
0.0457413
0.0582239
0.0640589
-0.380632
-0.371755
-0.370328
-0.368772
-0.351742
-0.313366
-0.255496
-0.186704
-0.123119
-0.0688702
-0.0262727
0.00561159
0.0267536
0.0413758
0.0491244
-0.427346
-0.416536
-0.415501
-0.415328
-0.398737
-0.358607
-0.296154
-0.223163
-0.154825
-0.0966385
-0.0508454
-0.0162159
0.00732999
0.0241553
0.0338346
-0.474047
-0.461426
-0.461228
-0.462873
-0.447076
-0.405085
-0.33749
-0.260095
-0.187039
-0.124837
-0.0757091
-0.0383919
-0.0123377
0.00670509
0.0183137
-0.51983
-0.505596
-0.506686
-0.510576
-0.496006
-0.452418
-0.378584
-0.296858
-0.21923
-0.153089
-0.100601
-0.0606829
-0.0320587
-0.0108311
0.00270027
-0.563749
-0.548262
-0.550977
-0.557483
-0.544518
-0.498328
-0.42002
-0.333134
-0.250935
-0.180994
-0.125246
-0.0828268
-0.0516324
-0.0282856
-0.0128651
-0.604825
-0.588755
-0.593167
-0.602566
-0.591851
-0.541973
-0.460305
-0.368326
-0.281706
-0.208162
-0.149378
-0.104575
-0.0708913
-0.0455352
-0.0282913
-0.642099
-0.626609
-0.632314
-0.644725
-0.635613
-0.584309
-0.498451
-0.401747
-0.311084
-0.234239
-0.172755
-0.125719
-0.0897052
-0.0624769
-0.0435006
-0.675004
-0.661185
-0.667619
-0.683087
-0.67617
-0.623351
-0.533577
-0.432741
-0.338609
-0.258912
-0.19515
-0.146069
-0.107939
-0.0789656
-0.0583815
-0.703464
-0.691531
-0.698468
-0.717278
-0.71138
-0.658003
-0.56494
-0.460764
-0.363874
-0.281928
-0.216354
-0.16546
-0.125454
-0.0948789
-0.0728269
-0.727266
-0.716583
-0.724333
-0.74539
-0.740987
-0.687408
-0.591955
-0.485393
-0.386586
-0.303107
-0.236192
-0.183759
-0.14214
-0.110177
-0.0867519
-0.746219
-0.73608
-0.744263
-0.766996
-0.764477
-0.711047
-0.614224
-0.506355
-0.406579
-0.322313
-0.254516
-0.200857
-0.157921
-0.124836
-0.100054
-0.76037
-0.750182
-0.758128
-0.782009
-0.781567
-0.728693
-0.63157
-0.523547
-0.423789
-0.339459
-0.271241
-0.216692
-0.172751
-0.138783
-0.112627
-0.770046
-0.759329
-0.766521
-0.790663
-0.792342
-0.740407
-0.644053
-0.537033
-0.438251
-0.354537
-0.286355
-0.231246
-0.186604
-0.151902
-0.124362
-0.775761
-0.764131
-0.77023
-0.793532
-0.797221
-0.746535
-0.651954
-0.547023
-0.450092
-0.367618
-0.299894
-0.244541
-0.199457
-0.164038
-0.135085
-0.77812
-0.765225
-0.770012
-0.791458
-0.796854
-0.747652
-0.655738
-0.553849
-0.459527
-0.378829
-0.311936
-0.256645
-0.211297
-0.175033
-0.144614
-0.777743
-0.763242
-0.766594
-0.785375
-0.792081
-0.744513
-0.656005
-0.557933
-0.466827
-0.388343
-0.322613
-0.26766
-0.22214
-0.184825
-0.152953
-0.775233
-0.758841
-0.760713
-0.776902
-0.783945
-0.738006
-0.653445
-0.559751
-0.472302
-0.396368
-0.332081
-0.2777
-0.23204
-0.193539
-0.160483
-0.771158
-0.752745
-0.752975
-0.767375
-0.773614
-0.729099
-0.648776
-0.559793
-0.476274
-0.403114
-0.340489
-0.28688
-0.241132
-0.201574
-0.167844
-0.766045
-0.745795
-0.743854
-0.758208
-0.762378
-0.718784
-0.642698
-0.558527
-0.479049
-0.408782
-0.347977
-0.295304
-0.249652
-0.209549
-0.175377
-0.760406
-0.739062
-0.73386
-0.750448
-0.751419
-0.707984
-0.635842
-0.556376
-0.480907
-0.413559
-0.354656
-0.303057
-0.257821
-0.21797
-0.183639
-0.754752
-0.73386
-0.723627
-0.74447
-0.741439
-0.697415
-0.628734
-0.553699
-0.482093
-0.417602
-0.360628
-0.310226
-0.265701
-0.226447
-0.192136
-0.749556
-0.730891
-0.71441
-0.739784
-0.732478
-0.687505
-0.621776
-0.550795
-0.482812
-0.421053
-0.365987
-0.316868
-0.273207
-0.234619
-0.200726
-0.745186
-0.730128
-0.707795
-0.735272
-0.724191
-0.678424
-0.61525
-0.5479
-0.483239
-0.424034
-0.370815
-0.323006
-0.280265
-0.242386
-0.208786
-0.741782
-0.730815
-0.705256
-0.73019
-0.716161
-0.670176
-0.609335
-0.545199
-0.483516
-0.426649
-0.375173
-0.328652
-0.286824
-0.249533
-0.216369
-0.739031
-0.731689
-0.707547
-0.724973
-0.708331
-0.662746
-0.604129
-0.542816
-0.483752
-0.42898
-0.37911
-0.333811
-0.292834
-0.256133
-0.22332
-0.736483
-0.731485
-0.713702
-0.721069
-0.701227
-0.656201
-0.599672
-0.540824
-0.484026
-0.431094
-0.382667
-0.33849
-0.298321
-0.262101
-0.229702
-0.734533
-0.72956
-0.721808
-0.720022
-0.695677
-0.650716
-0.595978
-0.539247
-0.484382
-0.433038
-0.385876
-0.342718
-0.303267
-0.267523
-0.235515
-0.734538
-0.72586
-0.731483
-0.722113
-0.692241
-0.646492
-0.593059
-0.538079
-0.484839
-0.434844
-0.388771
-0.34651
-0.307728
-0.272394
-0.240769
-0.738062
-0.722934
-0.741865
-0.726405
-0.690942
-0.643648
-0.590931
-0.537307
-0.4854
-0.436533
-0.391377
-0.349907
-0.311711
-0.276775
-0.245524
-0.746479
-0.72377
-0.751835
-0.732051
-0.691485
-0.642166
-0.589593
-0.536914
-0.486059
-0.438117
-0.393724
-0.352929
-0.315273
-0.2807
-0.249767
-0.760121
-0.730694
-0.760886
-0.738213
-0.69339
-0.641893
-0.589001
-0.536877
-0.486803
-0.4396
-0.39583
-0.355617
-0.318435
-0.284214
-0.253573
-0.778188
-0.74424
-0.769225
-0.744182
-0.696107
-0.64257
-0.589065
-0.537163
-0.487618
-0.440983
-0.397718
-0.357989
-0.321244
-0.287357
-0.256921
-0.798565
-0.764657
-0.777672
-0.749557
-0.699123
-0.643889
-0.589647
-0.537716
-0.488483
-0.442265
-0.399395
-0.360073
-0.323714
-0.290139
-0.259859
-0.819499
-0.789994
-0.787296
-0.754441
-0.702084
-0.645535
-0.590574
-0.538458
-0.489367
-0.443435
-0.400871
-0.36187
-0.325864
-0.292583
-0.262372
-0.839228
-0.816214
-0.798569
-0.759282
-0.704846
-0.647254
-0.591667
-0.539298
-0.490227
-0.444475
-0.402138
-0.36339
-0.327687
-0.294668
-0.264481
-0.855993
-0.839285
-0.810775
-0.764343
-0.707422
-0.648881
-0.592773
-0.540139
-0.491013
-0.445355
-0.403183
-0.364616
-0.329173
-0.296392
-0.266166
-0.868789
-0.858059
-0.821986
-0.769375
-0.709844
-0.650345
-0.593779
-0.540894
-0.49167
-0.446045
-0.40398
-0.365538
-0.3303
-0.297723
-0.26744
-0.878147
-0.872796
-0.831244
-0.773953
-0.712081
-0.65162
-0.594618
-0.54149
-0.492147
-0.446509
-0.404506
-0.366133
-0.331048
-0.298655
-0.268291
-0.88517
-0.88406
-0.838444
-0.777807
-0.714053
-0.652687
-0.595246
-0.54187
-0.492394
-0.44671
-0.404732
-0.366387
-0.331402
-0.29916
-0.268718
-0.890924
-0.892683
-0.843905
-0.780876
-0.715688
-0.653515
-0.595627
-0.541987
-0.492363
-0.446612
-0.40463
-0.366281
-0.331347
-0.299222
-0.268699
-0.89657
-0.899584
-0.848072
-0.783232
-0.716941
-0.654061
-0.595723
-0.541799
-0.49201
-0.446175
-0.404165
-0.365797
-0.33087
-0.298815
-0.26822
-0.902887
-0.905557
-0.851362
-0.784991
-0.717791
-0.654275
-0.595486
-0.54126
-0.491292
-0.445358
-0.403303
-0.36491
-0.329964
-0.29795
-0.267308
-0.910311
-0.911107
-0.854085
-0.786263
-0.718233
-0.654112
-0.594873
-0.540331
-0.490169
-0.444126
-0.402013
-0.363597
-0.328626
-0.296642
-0.266012
-0.918991
-0.916508
-0.856432
-0.787123
-0.71826
-0.653533
-0.593835
-0.538965
-0.488601
-0.442446
-0.400271
-0.361835
-0.326845
-0.29491
-0.264386
-0.928825
-0.921836
-0.858473
-0.787595
-0.717852
-0.652491
-0.592316
-0.537112
-0.486546
-0.440285
-0.398058
-0.359611
-0.324617
-0.292762
-0.26246
-0.939542
-0.927046
-0.86019
-0.787653
-0.716961
-0.650928
-0.590263
-0.534723
-0.483959
-0.437603
-0.395346
-0.356901
-0.321935
-0.290215
-0.260231
-0.950754
-0.932045
-0.861521
-0.787231
-0.71552
-0.648786
-0.587624
-0.531749
-0.480797
-0.434362
-0.392094
-0.353666
-0.318787
-0.28724
-0.257646
-0.961983
-0.936748
-0.862396
-0.78625
-0.713455
-0.646001
-0.584343
-0.528143
-0.477019
-0.43052
-0.388265
-0.349878
-0.31513
-0.28377
-0.254604
-0.97268
-0.941098
-0.86274
-0.784612
-0.710676
-0.642489
-0.580342
-0.523847
-0.472576
-0.42604
-0.383829
-0.345531
-0.310932
-0.279798
-0.251
-0.982296
-0.944972
-0.862438
-0.782198
-0.707076
-0.638156
-0.575546
-0.518797
-0.467415
-0.420889
-0.378763
-0.340618
-0.306223
-0.275384
-0.246731
-0.990437
-0.947926
-0.861299
-0.778866
-0.702542
-0.63292
-0.569903
-0.512939
-0.461487
-0.415037
-0.373042
-0.335103
-0.30103
-0.270502
-0.241716
-0.996846
-0.949386
-0.859064
-0.774475
-0.696977
-0.626718
-0.563366
-0.506236
-0.454766
-0.408447
-0.366646
-0.328944
-0.295313
-0.265067
-0.235991
-1.00126
-0.948989
-0.855469
-0.768897
-0.690307
-0.619483
-0.555867
-0.498647
-0.447253
-0.401097
-0.359557
-0.322142
-0.289032
-0.259024
-0.229832
-1.00345
-0.946519
-0.850307
-0.762019
-0.682454
-0.611139
-0.54734
-0.490132
-0.438963
-0.393003
-0.351788
-0.314805
-0.282125
-0.252215
-0.223314
-1.00322
-0.941845
-0.843425
-0.753719
-0.673327
-0.601624
-0.53777
-0.48073
-0.429858
-0.384218
-0.343327
-0.306865
-0.274574
-0.244713
-0.21638
-1.00043
-0.934879
-0.834696
-0.743871
-0.662857
-0.590925
-0.527186
-0.470471
-0.419916
-0.374639
-0.334186
-0.298283
-0.266363
-0.236668
-0.208975
-0.994982
-0.925582
-0.824017
-0.732362
-0.651026
-0.579092
-0.515678
-0.459253
-0.409053
-0.364229
-0.324318
-0.289012
-0.2575
-0.228101
-0.201055
-0.986818
-0.91394
-0.811325
-0.719168
-0.637844
-0.566217
-0.503056
-0.447031
-0.397284
-0.35299
-0.31369
-0.279006
-0.247974
-0.218992
-0.192632
-0.975921
-0.899968
-0.796587
-0.704371
-0.623387
-0.552074
-0.489305
-0.433797
-0.384612
-0.34093
-0.302303
-0.268278
-0.237796
-0.209326
-0.18372
-0.96231
-0.883731
-0.779742
-0.688022
-0.607551
-0.536661
-0.474426
-0.419553
-0.371039
-0.328066
-0.290183
-0.256868
-0.226991
-0.199101
-0.174339
-0.946034
-0.865363
-0.760794
-0.670106
-0.590229
-0.519975
-0.458432
-0.404316
-0.356583
-0.314414
-0.277354
-0.244808
-0.215583
-0.188327
-0.164505
-0.927156
-0.845015
-0.740102
-0.650251
-0.571391
-0.502025
-0.441344
-0.388113
-0.341272
-0.299999
-0.263832
-0.232117
-0.203588
-0.177019
-0.154216
-0.905742
-0.822653
-0.71762
-0.628621
-0.551062
-0.482837
-0.423189
-0.370974
-0.325134
-0.284854
-0.24965
-0.218818
-0.191035
-0.165209
-0.143486
-0.881887
-0.79793
-0.693537
-0.605419
-0.529314
-0.462445
-0.404001
-0.352926
-0.308196
-0.269007
-0.234847
-0.204949
-0.177959
-0.152931
-0.132339
-0.855723
-0.770364
-0.668126
-0.580866
-0.506241
-0.440894
-0.383817
-0.334008
-0.290489
-0.252486
-0.219449
-0.190541
-0.164391
-0.140213
-0.12081
-0.827404
-0.740157
-0.641125
-0.555105
-0.481958
-0.418239
-0.362676
-0.314261
-0.27206
-0.235327
-0.203477
-0.175608
-0.15036
-0.127092
-0.10893
-0.797032
-0.707758
-0.612326
-0.528164
-0.456564
-0.394551
-0.340624
-0.293728
-0.25296
-0.217583
-0.186974
-0.160184
-0.135903
-0.113614
-0.0967172
-0.764552
-0.673748
-0.581782
-0.499975
-0.430124
-0.3699
-0.317715
-0.272458
-0.233234
-0.199306
-0.17
-0.144328
-0.121068
-0.0998298
-0.0842041
-0.72995
-0.638542
-0.54969
-0.470505
-0.402671
-0.344355
-0.294011
-0.2505
-0.212923
-0.180534
-0.152606
-0.128101
-0.105901
-0.0857676
-0.0714522
-0.693225
-0.602424
-0.516289
-0.439814
-0.37424
-0.317976
-0.269576
-0.227914
-0.192076
-0.161302
-0.134817
-0.111538
-0.0904464
-0.0714643
-0.058549
-0.654598
-0.565325
-0.481759
-0.408027
-0.344889
-0.290821
-0.244472
-0.204754
-0.170745
-0.141653
-0.116654
-0.0946582
-0.0747549
-0.057007
-0.0455728
-0.614321
-0.527146
-0.446222
-0.375282
-0.314698
-0.262955
-0.21876
-0.181072
-0.14897
-0.12162
-0.098143
-0.0774814
-0.0588815
-0.0425476
-0.0326125
-0.572624
-0.487903
-0.409771
-0.341699
-0.283759
-0.234448
-0.192504
-0.156922
-0.12678
-0.101213
-0.0792951
-0.0600345
-0.0428942
-0.0282743
-0.0198954
-0.529692
-0.447676
-0.372497
-0.307386
-0.25217
-0.20538
-0.16577
-0.13236
-0.104215
-0.0804424
-0.0601092
-0.0423428
-0.0268802
-0.0143905
-0.00796753
-0.485705
-0.406589
-0.334501
-0.272445
-0.220026
-0.17583
-0.138624
-0.107438
-0.0813152
-0.0593366
-0.0405998
-0.0244329
-0.0109222
-0.00109799
0.00244247
-0.440827
-0.364777
-0.295895
-0.236977
-0.187426
-0.145884
-0.111133
-0.0822058
-0.058119
-0.0379382
-0.0208204
-0.00635565
0.00493464
0.0115557
0.0112923
-0.395221
-0.322382
-0.256798
-0.201088
-0.154464
-0.11563
-0.0833732
-0.0567202
-0.0346701
-0.0162988
-0.000860817
0.0117853
0.0206777
0.0240107
0.0203974
-0.349047
-0.279546
-0.217332
-0.164885
-0.121239
-0.0851517
-0.0554176
-0.031051
-0.0110373
0.00550507
0.0191714
0.0298507
0.036319
0.0371624
0.033514
-0.302466
-0.23641
-0.177625
-0.12848
-0.0878477
-0.0545348
-0.0273389
-0.00526762
0.0126954
0.0273682
0.0391683
0.047763
0.0519742
0.0514567
0.0532151
-0.255638
-0.193114
-0.137801
-0.0919848
-0.054391
-0.0238679
0.00078549
0.0205603
0.0364503
0.0491911
0.0590501
0.0655711
0.0678828
0.0670176
0.0724663
-0.208721
-0.149798
-0.0979857
-0.0555108
-0.0209678
0.0067589
0.02887
0.0463501
0.0601501
0.0709045
0.0787831
0.083357
0.0842024
0.0835681
0.0903823
-0.161872
-0.1066
-0.0583047
-0.0191702
0.0123231
0.0372577
0.0568298
0.0720114
0.0837066
0.092453
0.0983653
0.101137
0.100793
0.100317
0.10707
-0.115248
-0.063659
-0.0188814
0.0169253
0.0453812
0.0675393
0.084585
0.0974656
0.10704
0.113782
0.11779
0.118907
0.117538
0.116887
0.122616
-0.0690029
-0.0211091
0.0201623
0.0526655
0.0781058
0.0975099
0.112051
0.122642
0.130095
0.134847
0.137019
0.136581
0.13418
0.132967
0.137377
-0.0232877
0.0209153
0.0587061
0.0879421
0.110399
0.127077
0.139136
0.147462
0.152818
0.155615
0.156016
0.154109
0.15065
0.148558
0.151496
0.0217483
0.0622828
0.0966316
0.122648
0.142165
0.156156
0.165762
0.171845
0.175138
0.176029
0.174705
0.171337
0.166761
0.163683
0.165194
0.0659593
0.102865
0.133823
0.156676
0.173306
0.184658
0.191854
0.195729
0.196995
0.196034
0.193052
0.188257
0.182507
0.17833
0.178441
0.109203
0.142536
0.170166
0.189925
0.203727
0.212496
0.217335
0.219053
0.218334
0.215554
0.210944
0.204744
0.197821
0.192558
0.191292
0.151341
0.181174
0.205552
0.222294
0.233339
0.239586
0.242123
0.241741
0.239101
0.234562
0.228363
0.220777
0.21267
0.206294
0.20369
0.192239
0.218661
0.239873
0.253687
0.262053
0.265852
0.266151
0.263722
0.259213
0.252968
0.245228
0.23629
0.227039
0.219577
0.21564
0.231768
0.254882
0.273026
0.284007
0.289782
0.291215
0.289355
0.28495
0.278629
0.270731
0.261503
0.251253
0.24087
0.232333
0.227101
0.269804
0.289727
0.304912
0.313166
0.316445
0.315596
0.311656
0.305353
0.29729
0.287796
0.27713
0.265627
0.254162
0.244563
0.238051
0.306228
0.323091
0.335435
0.341078
0.341966
0.338931
0.332991
0.324865
0.315137
0.304117
0.292072
0.279359
0.266853
0.256227
0.248464
0.340926
0.354874
0.364504
0.367658
0.366267
0.361152
0.35331
0.34344
0.332115
0.319642
0.306294
0.292439
0.27893
0.267291
0.258312
0.37379
0.384981
0.392035
0.39283
0.389276
0.382187
0.372545
0.361028
0.348188
0.334329
0.31974
0.304808
0.290354
0.277741
0.267576
0.40472
0.413323
0.417947
0.416521
0.41093
0.401978
0.390634
0.377564
0.363302
0.348146
0.332396
0.316449
0.301091
0.287537
0.276234
0.433619
0.439815
0.442162
0.438662
0.431167
0.420477
0.407542
0.393013
0.377413
0.361041
0.34421
0.327324
0.31112
0.296663
0.284268
0.4604
0.464379
0.46461
0.459186
0.449924
0.43762
0.42321
0.40733
0.390491
0.372993
0.355161
0.337403
0.320408
0.305094
0.291664
0.48498
0.486945
0.48523
0.478039
0.467152
0.453363
0.437595
0.42047
0.402491
0.38396
0.365215
0.346661
0.328931
0.312812
0.298406
0.507283
0.507449
0.503961
0.495166
0.482802
0.467663
0.450659
0.432403
0.413387
0.393917
0.374345
0.355071
0.336667
0.319797
0.304485
0.52724
0.525835
0.520754
0.510518
0.496827
0.480476
0.462364
0.443091
0.423145
0.402836
0.382527
0.36261
0.343596
0.326036
0.309891
0.544791
0.542056
0.535562
0.524052
0.50919
0.491769
0.472678
0.452508
0.431741
0.410693
0.389738
0.369257
0.349699
0.331514
0.314619
0.5599
0.556059
0.548343
0.535728
0.519853
0.501508
0.481572
0.460627
0.439151
0.417467
0.395958
0.374992
0.354961
0.336221
0.318663
0.572551
0.567787
0.559052
0.545511
0.528786
0.509666
0.489021
0.467426
0.445356
0.42314
0.401169
0.3798
0.359368
0.340149
0.322023
0.582718
0.577203
0.567657
0.55337
0.535963
0.51622
0.495006
0.472888
0.450339
0.427697
0.405357
0.383666
0.362908
0.343294
0.324701
0.590373
0.584283
0.57413
0.559284
0.541364
0.521151
0.499508
0.476996
0.454088
0.431124
0.408509
0.386577
0.365572
0.345652
0.326701
0.595491
0.589013
0.578455
0.563236
0.544973
0.524447
0.502516
0.479741
0.456593
0.433415
0.410616
0.388523
0.367353
0.347223
0.32803
0.598054
0.59138
0.58062
0.565215
0.54678
0.526097
0.504023
0.481116
0.457847
0.434561
0.411671
0.389498
0.368244
0.348009
0.328692
0.598054
0.59138
0.58062
0.565215
0.54678
0.526097
0.504023
0.481116
0.457847
0.434561
0.411671
0.389498
0.368244
0.348009
0.328692
0.595491
0.589013
0.578455
0.563236
0.544973
0.524447
0.502516
0.479741
0.456593
0.433415
0.410616
0.388523
0.367353
0.347223
0.32803
0.590373
0.584283
0.57413
0.559284
0.541364
0.521151
0.499508
0.476996
0.454088
0.431124
0.408509
0.386577
0.365572
0.345652
0.326701
0.582718
0.577203
0.567657
0.55337
0.535963
0.51622
0.495006
0.472888
0.450339
0.427697
0.405357
0.383666
0.362908
0.343294
0.324701
0.572551
0.567787
0.559052
0.545511
0.528786
0.509666
0.489021
0.467426
0.445356
0.42314
0.401169
0.3798
0.359368
0.340149
0.322023
0.5599
0.556059
0.548343
0.535728
0.519853
0.501508
0.481572
0.460627
0.439151
0.417467
0.395958
0.374992
0.354961
0.336221
0.318663
0.544791
0.542056
0.535562
0.524052
0.50919
0.491769
0.472678
0.452508
0.431741
0.410693
0.389738
0.369257
0.349699
0.331514
0.314619
0.52724
0.525835
0.520754
0.510518
0.496827
0.480476
0.462364
0.443091
0.423145
0.402836
0.382527
0.36261
0.343596
0.326036
0.309891
0.507283
0.507449
0.503961
0.495166
0.482802
0.467663
0.450659
0.432403
0.413387
0.393917
0.374345
0.355071
0.336667
0.319797
0.304485
0.48498
0.486945
0.48523
0.478039
0.467152
0.453363
0.437595
0.42047
0.402491
0.38396
0.365215
0.346661
0.328931
0.312812
0.298406
0.4604
0.464379
0.46461
0.459186
0.449924
0.43762
0.42321
0.40733
0.390491
0.372993
0.355161
0.337403
0.320408
0.305094
0.291664
0.433619
0.439815
0.442162
0.438662
0.431167
0.420477
0.407542
0.393013
0.377413
0.361041
0.34421
0.327324
0.31112
0.296663
0.284268
0.40472
0.413323
0.417947
0.416521
0.41093
0.401978
0.390634
0.377564
0.363302
0.348146
0.332396
0.316449
0.301091
0.287537
0.276234
0.37379
0.384981
0.392035
0.39283
0.389276
0.382187
0.372545
0.361028
0.348188
0.334329
0.31974
0.304808
0.290354
0.277741
0.267576
0.340926
0.354874
0.364504
0.367658
0.366267
0.361152
0.35331
0.34344
0.332115
0.319642
0.306294
0.292439
0.278929
0.267291
0.258312
0.306228
0.323091
0.335435
0.341078
0.341966
0.338931
0.332991
0.324865
0.315137
0.304117
0.292072
0.279359
0.266853
0.256227
0.248464
0.269804
0.289727
0.304912
0.313166
0.316445
0.315596
0.311655
0.305353
0.29729
0.287795
0.27713
0.265627
0.254162
0.244563
0.238051
0.231768
0.254882
0.273026
0.284007
0.289782
0.291215
0.289355
0.28495
0.278629
0.270731
0.261503
0.251253
0.24087
0.232333
0.227101
0.192239
0.218661
0.239873
0.253687
0.262053
0.265852
0.266151
0.263722
0.259213
0.252968
0.245228
0.23629
0.227039
0.219577
0.21564
0.151341
0.181174
0.205552
0.222294
0.233339
0.239586
0.242123
0.241741
0.239101
0.234562
0.228363
0.220777
0.21267
0.206294
0.20369
0.109203
0.142536
0.170166
0.189925
0.203727
0.212496
0.217335
0.219053
0.218334
0.215554
0.210944
0.204744
0.197821
0.192558
0.191292
0.0659592
0.102865
0.133822
0.156676
0.173306
0.184658
0.191854
0.195729
0.196995
0.196034
0.193052
0.188257
0.182507
0.17833
0.178441
0.0217483
0.0622828
0.0966315
0.122648
0.142165
0.156156
0.165762
0.171845
0.175138
0.176029
0.174705
0.171337
0.166761
0.163683
0.165194
-0.0232877
0.0209153
0.0587061
0.0879421
0.110399
0.127077
0.139136
0.147462
0.152818
0.155615
0.156016
0.154109
0.15065
0.148558
0.151496
-0.0690029
-0.0211091
0.0201623
0.0526654
0.0781058
0.0975099
0.112051
0.122642
0.130095
0.134847
0.137019
0.136581
0.13418
0.132967
0.137376
-0.115248
-0.063659
-0.0188814
0.0169253
0.0453812
0.0675393
0.084585
0.0974655
0.10704
0.113782
0.11779
0.118907
0.117538
0.116887
0.122616
-0.161872
-0.1066
-0.0583048
-0.0191702
0.0123231
0.0372577
0.0568298
0.0720114
0.0837065
0.092453
0.0983653
0.101137
0.100793
0.100317
0.10707
-0.208721
-0.149798
-0.0979857
-0.0555108
-0.0209678
0.00675887
0.02887
0.0463501
0.0601501
0.0709045
0.0787831
0.083357
0.0842023
0.0835681
0.0903823
-0.255638
-0.193114
-0.137801
-0.0919849
-0.054391
-0.023868
0.000785463
0.0205602
0.0364503
0.049191
0.05905
0.0655711
0.0678828
0.0670175
0.0724663
-0.302466
-0.23641
-0.177625
-0.12848
-0.0878478
-0.0545349
-0.027339
-0.00526765
0.0126954
0.0273682
0.0391683
0.047763
0.0519742
0.0514567
0.0532151
-0.349047
-0.279546
-0.217332
-0.164885
-0.121239
-0.0851517
-0.0554176
-0.031051
-0.0110373
0.00550504
0.0191714
0.0298506
0.0363189
0.0371624
0.0335139
-0.395221
-0.322382
-0.256798
-0.201088
-0.154464
-0.11563
-0.0833732
-0.0567202
-0.0346701
-0.0162988
-0.00086084
0.0117853
0.0206777
0.0240107
0.0203974
-0.440827
-0.364777
-0.295895
-0.236977
-0.187426
-0.145884
-0.111133
-0.0822058
-0.058119
-0.0379383
-0.0208204
-0.00635567
0.00493461
0.0115557
0.0112923
-0.485705
-0.406589
-0.334501
-0.272445
-0.220026
-0.17583
-0.138624
-0.107438
-0.0813153
-0.0593367
-0.0405998
-0.0244329
-0.0109222
-0.00109801
0.00244245
-0.529692
-0.447676
-0.372497
-0.307386
-0.25217
-0.20538
-0.16577
-0.13236
-0.104215
-0.0804425
-0.0601093
-0.0423429
-0.0268802
-0.0143906
-0.00796755
-0.572624
-0.487903
-0.409771
-0.341699
-0.283759
-0.234449
-0.192504
-0.156922
-0.12678
-0.101213
-0.0792951
-0.0600345
-0.0428942
-0.0282743
-0.0198955
-0.614321
-0.527146
-0.446222
-0.375282
-0.314698
-0.262955
-0.21876
-0.181072
-0.14897
-0.12162
-0.0981431
-0.0774814
-0.0588816
-0.0425476
-0.0326125
-0.654598
-0.565325
-0.481759
-0.408027
-0.344889
-0.290821
-0.244472
-0.204754
-0.170745
-0.141653
-0.116654
-0.0946582
-0.0747549
-0.057007
-0.0455729
-0.693225
-0.602424
-0.516289
-0.439814
-0.37424
-0.317976
-0.269576
-0.227914
-0.192076
-0.161302
-0.134817
-0.111538
-0.0904464
-0.0714643
-0.058549
-0.729951
-0.638542
-0.54969
-0.470505
-0.402671
-0.344355
-0.294011
-0.2505
-0.212923
-0.180534
-0.152606
-0.128101
-0.105901
-0.0857676
-0.0714523
-0.764552
-0.673748
-0.581782
-0.499975
-0.430124
-0.3699
-0.317715
-0.272458
-0.233234
-0.199306
-0.17
-0.144328
-0.121068
-0.0998298
-0.0842041
-0.797032
-0.707758
-0.612327
-0.528164
-0.456564
-0.394551
-0.340624
-0.293728
-0.25296
-0.217583
-0.186974
-0.160185
-0.135903
-0.113614
-0.0967172
-0.827404
-0.740157
-0.641125
-0.555105
-0.481958
-0.418239
-0.362676
-0.314261
-0.27206
-0.235327
-0.203477
-0.175608
-0.15036
-0.127092
-0.10893
-0.855723
-0.770364
-0.668126
-0.580866
-0.506241
-0.440894
-0.383817
-0.334008
-0.290489
-0.252486
-0.219449
-0.190541
-0.164391
-0.140214
-0.12081
-0.881887
-0.79793
-0.693537
-0.605419
-0.529314
-0.462445
-0.404001
-0.352926
-0.308196
-0.269007
-0.234847
-0.204949
-0.177959
-0.152931
-0.132339
-0.905743
-0.822653
-0.71762
-0.628621
-0.551062
-0.482838
-0.423189
-0.370974
-0.325134
-0.284854
-0.24965
-0.218818
-0.191035
-0.165209
-0.143486
-0.927156
-0.845015
-0.740103
-0.650251
-0.571391
-0.502025
-0.441344
-0.388113
-0.341272
-0.299999
-0.263832
-0.232117
-0.203588
-0.177019
-0.154216
-0.946034
-0.865363
-0.760794
-0.670106
-0.590229
-0.519975
-0.458432
-0.404316
-0.356583
-0.314414
-0.277354
-0.244808
-0.215583
-0.188327
-0.164505
-0.96231
-0.883731
-0.779742
-0.688022
-0.607551
-0.536661
-0.474426
-0.419553
-0.371039
-0.328066
-0.290183
-0.256868
-0.226991
-0.199101
-0.174339
-0.975921
-0.899968
-0.796587
-0.704371
-0.623387
-0.552074
-0.489305
-0.433797
-0.384612
-0.34093
-0.302303
-0.268278
-0.237796
-0.209327
-0.18372
-0.986818
-0.91394
-0.811325
-0.719168
-0.637844
-0.566217
-0.503056
-0.447031
-0.397284
-0.35299
-0.31369
-0.279006
-0.247974
-0.218992
-0.192632
-0.994982
-0.925582
-0.824017
-0.732362
-0.651026
-0.579092
-0.515678
-0.459253
-0.409053
-0.364229
-0.324318
-0.289012
-0.2575
-0.228101
-0.201055
-1.00043
-0.934879
-0.834696
-0.743871
-0.662857
-0.590925
-0.527186
-0.470471
-0.419916
-0.374639
-0.334186
-0.298283
-0.266363
-0.236668
-0.208975
-1.00322
-0.941845
-0.843426
-0.753719
-0.673327
-0.601624
-0.53777
-0.48073
-0.429858
-0.384218
-0.343327
-0.306865
-0.274574
-0.244714
-0.21638
-1.00345
-0.946519
-0.850308
-0.762019
-0.682455
-0.611139
-0.54734
-0.490132
-0.438963
-0.393003
-0.351788
-0.314805
-0.282125
-0.252215
-0.223314
-1.00126
-0.948989
-0.855469
-0.768897
-0.690307
-0.619483
-0.555867
-0.498647
-0.447253
-0.401097
-0.359557
-0.322142
-0.289032
-0.259024
-0.229832
-0.996846
-0.949386
-0.859064
-0.774475
-0.696977
-0.626718
-0.563366
-0.506236
-0.454766
-0.408447
-0.366646
-0.328944
-0.295313
-0.265067
-0.235991
-0.990438
-0.947926
-0.861299
-0.778866
-0.702542
-0.63292
-0.569903
-0.512939
-0.461487
-0.415037
-0.373042
-0.335103
-0.30103
-0.270502
-0.241716
-0.982296
-0.944972
-0.862438
-0.782198
-0.707076
-0.638157
-0.575546
-0.518797
-0.467415
-0.420889
-0.378763
-0.340618
-0.306223
-0.275384
-0.246731
-0.97268
-0.941098
-0.86274
-0.784612
-0.710676
-0.642489
-0.580342
-0.523848
-0.472576
-0.42604
-0.383829
-0.345531
-0.310932
-0.279798
-0.251
-0.961983
-0.936748
-0.862396
-0.78625
-0.713455
-0.646001
-0.584343
-0.528143
-0.477019
-0.43052
-0.388265
-0.349878
-0.31513
-0.28377
-0.254604
-0.950755
-0.932045
-0.861521
-0.787231
-0.715521
-0.648786
-0.587624
-0.531749
-0.480797
-0.434362
-0.392094
-0.353666
-0.318787
-0.28724
-0.257646
-0.939542
-0.927046
-0.86019
-0.787653
-0.716961
-0.650928
-0.590263
-0.534723
-0.483959
-0.437603
-0.395346
-0.356901
-0.321935
-0.290215
-0.260231
-0.928825
-0.921836
-0.858473
-0.787595
-0.717852
-0.652491
-0.592316
-0.537112
-0.486546
-0.440285
-0.398058
-0.359611
-0.324617
-0.292762
-0.26246
-0.918991
-0.916508
-0.856432
-0.787123
-0.71826
-0.653533
-0.593835
-0.538965
-0.488601
-0.442446
-0.400271
-0.361835
-0.326845
-0.29491
-0.264386
-0.910311
-0.911107
-0.854085
-0.786263
-0.718233
-0.654112
-0.594873
-0.540331
-0.490169
-0.444126
-0.402013
-0.363597
-0.328626
-0.296642
-0.266012
-0.902887
-0.905557
-0.851362
-0.784991
-0.717791
-0.654275
-0.595486
-0.54126
-0.491292
-0.445358
-0.403303
-0.36491
-0.329964
-0.29795
-0.267308
-0.89657
-0.899584
-0.848073
-0.783232
-0.716941
-0.654061
-0.595723
-0.541799
-0.49201
-0.446175
-0.404165
-0.365797
-0.33087
-0.298815
-0.268221
-0.890924
-0.892683
-0.843905
-0.780876
-0.715688
-0.653515
-0.595627
-0.541987
-0.492363
-0.446612
-0.40463
-0.366281
-0.331347
-0.299222
-0.268699
-0.88517
-0.88406
-0.838444
-0.777807
-0.714053
-0.652687
-0.595246
-0.54187
-0.492394
-0.446711
-0.404732
-0.366387
-0.331402
-0.29916
-0.268718
-0.878147
-0.872796
-0.831244
-0.773953
-0.712081
-0.65162
-0.594618
-0.54149
-0.492148
-0.446509
-0.404506
-0.366133
-0.331048
-0.298655
-0.268291
-0.868789
-0.858059
-0.821986
-0.769375
-0.709844
-0.650345
-0.593779
-0.540894
-0.49167
-0.446045
-0.40398
-0.365538
-0.3303
-0.297723
-0.26744
-0.855993
-0.839285
-0.810775
-0.764343
-0.707422
-0.648881
-0.592773
-0.540139
-0.491013
-0.445355
-0.403183
-0.364616
-0.329173
-0.296392
-0.266166
-0.839228
-0.816214
-0.798569
-0.759282
-0.704847
-0.647254
-0.591667
-0.539298
-0.490227
-0.444475
-0.402138
-0.36339
-0.327687
-0.294668
-0.264481
-0.819499
-0.789994
-0.787297
-0.754441
-0.702084
-0.645535
-0.590574
-0.538458
-0.489367
-0.443435
-0.400871
-0.36187
-0.325864
-0.292583
-0.262372
-0.798565
-0.764657
-0.777672
-0.749557
-0.699123
-0.643889
-0.589647
-0.537716
-0.488483
-0.442265
-0.399395
-0.360073
-0.323714
-0.290139
-0.259859
-0.778188
-0.744241
-0.769226
-0.744182
-0.696107
-0.642571
-0.589066
-0.537163
-0.487618
-0.440983
-0.397718
-0.357989
-0.321244
-0.287357
-0.256921
-0.760121
-0.730695
-0.760886
-0.738213
-0.69339
-0.641893
-0.589001
-0.536877
-0.486803
-0.4396
-0.39583
-0.355617
-0.318435
-0.284214
-0.253573
-0.746479
-0.723771
-0.751835
-0.732051
-0.691485
-0.642166
-0.589593
-0.536914
-0.486059
-0.438117
-0.393724
-0.352929
-0.315273
-0.2807
-0.249767
-0.738062
-0.722934
-0.741865
-0.726405
-0.690942
-0.643648
-0.590932
-0.537307
-0.485401
-0.436533
-0.391377
-0.349907
-0.311711
-0.276775
-0.245524
-0.734538
-0.72586
-0.731483
-0.722113
-0.692241
-0.646492
-0.593059
-0.538079
-0.484839
-0.434844
-0.388771
-0.34651
-0.307728
-0.272394
-0.240769
-0.734533
-0.72956
-0.721809
-0.720022
-0.695678
-0.650716
-0.595978
-0.539247
-0.484382