/*--------------------------------*- C++ -*----------------------------------*\
  =========                 |
  \\      /  F ield         | OpenFOAM: The Open Source CFD Toolbox
   \\    /   O peration     | Website:  https://openfoam.org
    \\  /    A nd           | Version:  7
     \\/     M anipulation  |
\*---------------------------------------------------------------------------*/
FoamFile
{
    version     2.0;
    format      ascii;
    class       volScalarField;
    location    "10";
    object      p;
}
// * * * * * * * * * * * * * * * * * * * * * * * * * * * * * * * * * * * * * //

dimensions      [0 2 -2 0 0 0 0];

internalField   nonuniform List<scalar> 
8500
(
-0.309085
-0.311806
-0.313125
-0.314341
-0.315637
-0.317125
-0.318918
-0.321119
-0.323817
-0.327226
-0.309402
-0.312062
-0.313356
-0.314552
-0.31583
-0.3173
-0.319072
-0.321248
-0.323909
-0.327251
-0.310024
-0.312565
-0.313809
-0.314965
-0.316206
-0.317638
-0.319365
-0.321491
-0.324078
-0.32728
-0.310926
-0.313296
-0.314467
-0.315562
-0.316744
-0.318115
-0.319771
-0.321816
-0.324295
-0.327273
-0.312073
-0.31423
-0.315305
-0.316316
-0.317417
-0.3187
-0.320254
-0.322183
-0.324521
-0.327178
-0.313425
-0.315338
-0.316295
-0.317199
-0.318191
-0.319358
-0.320774
-0.322545
-0.324716
-0.326929
-0.314939
-0.316587
-0.317407
-0.31818
-0.319034
-0.320051
-0.32129
-0.322853
-0.324845
-0.326449
-0.316572
-0.317946
-0.318612
-0.31923
-0.319915
-0.320746
-0.321767
-0.323066
-0.324883
-0.325624
-0.318285
-0.319389
-0.319887
-0.320325
-0.320809
-0.321417
-0.322178
-0.323152
-0.324818
-0.324391
-0.320049
-0.320894
-0.321211
-0.321445
-0.321697
-0.322047
-0.322513
-0.323092
-0.32456
-0.323315
-0.321841
-0.322447
-0.322573
-0.32258
-0.322571
-0.322631
-0.322776
-0.322956
-0.324028
-0.32195
-0.323653
-0.324042
-0.323967
-0.323727
-0.32343
-0.323175
-0.322964
-0.322748
-0.32344
-0.320199
-0.325488
-0.325684
-0.325398
-0.324892
-0.324285
-0.323695
-0.32312
-0.322484
-0.322877
-0.318136
-0.327364
-0.327385
-0.326877
-0.326084
-0.325153
-0.324217
-0.323276
-0.322227
-0.322384
-0.315859
-0.329309
-0.329168
-0.328422
-0.327328
-0.326056
-0.324767
-0.323466
-0.322043
-0.321988
-0.313528
-0.331364
-0.331058
-0.330062
-0.328648
-0.32702
-0.325375
-0.323718
-0.321994
-0.321645
-0.311372
-0.333579
-0.333092
-0.33183
-0.330074
-0.328078
-0.326071
-0.324053
-0.322136
-0.321211
-0.309603
-0.336009
-0.335316
-0.333761
-0.331642
-0.329263
-0.326888
-0.324492
-0.322519
-0.320456
-0.308281
-0.338717
-0.337775
-0.335896
-0.333391
-0.330614
-0.327862
-0.325066
-0.323174
-0.319301
-0.30802
-0.341772
-0.340513
-0.338279
-0.335362
-0.332169
-0.329028
-0.325815
-0.324012
-0.318157
-0.31197
-0.345233
-0.343582
-0.340955
-0.337599
-0.33397
-0.330422
-0.326776
-0.324779
-0.317603
-0.322766
-0.349153
-0.347037
-0.343968
-0.340145
-0.336058
-0.332075
-0.327978
-0.325372
-0.31787
-0.321382
-0.353593
-0.350919
-0.347363
-0.343042
-0.338475
-0.334015
-0.32942
-0.3259
-0.31822
-0.31834
-0.358605
-0.355272
-0.351182
-0.346334
-0.341258
-0.336263
-0.331075
-0.326483
-0.318363
-0.315426
-0.364234
-0.360138
-0.35547
-0.350062
-0.344438
-0.338831
-0.332915
-0.327115
-0.318237
-0.312457
-0.370517
-0.365556
-0.360267
-0.354265
-0.348037
-0.341716
-0.334907
-0.327742
-0.317767
-0.309512
-0.377484
-0.37156
-0.365613
-0.358977
-0.352069
-0.344902
-0.337003
-0.328283
-0.316928
-0.306491
-0.385156
-0.378178
-0.37154
-0.364222
-0.356528
-0.348351
-0.339124
-0.328644
-0.315703
-0.303323
-0.39354
-0.385431
-0.378074
-0.370008
-0.361394
-0.351997
-0.341168
-0.328732
-0.314078
-0.299934
-0.402628
-0.393324
-0.385221
-0.37632
-0.366619
-0.355742
-0.343018
-0.328464
-0.312038
-0.296266
-0.412391
-0.401846
-0.392965
-0.383118
-0.372117
-0.359451
-0.344551
-0.327764
-0.309562
-0.292268
-0.422774
-0.410961
-0.401261
-0.390325
-0.377764
-0.362967
-0.345649
-0.326568
-0.306624
-0.287892
-0.433691
-0.420605
-0.410028
-0.397829
-0.38339
-0.366121
-0.346201
-0.324815
-0.303191
-0.283095
-0.445023
-0.430676
-0.419148
-0.405468
-0.388793
-0.368741
-0.3461
-0.322446
-0.299222
-0.27783
-0.456613
-0.441035
-0.428459
-0.413039
-0.393748
-0.370661
-0.345248
-0.319401
-0.294671
-0.272053
-0.468267
-0.451502
-0.437758
-0.420292
-0.398022
-0.371722
-0.343551
-0.315619
-0.289487
-0.265716
-0.47975
-0.461859
-0.446801
-0.426951
-0.401383
-0.371775
-0.340919
-0.311037
-0.283616
-0.258773
-0.490794
-0.471847
-0.455302
-0.43272
-0.403607
-0.370682
-0.337264
-0.305589
-0.277001
-0.251183
-0.5011
-0.481175
-0.462947
-0.4373
-0.404487
-0.368313
-0.332501
-0.299211
-0.269587
-0.242904
-0.510342
-0.489528
-0.4694
-0.440403
-0.403831
-0.364551
-0.326552
-0.291838
-0.26132
-0.233902
-0.518182
-0.496568
-0.474317
-0.441755
-0.401465
-0.359289
-0.31934
-0.283411
-0.252152
-0.224145
-0.524272
-0.50195
-0.477364
-0.441112
-0.39724
-0.352432
-0.310798
-0.273874
-0.242042
-0.213613
-0.528268
-0.50533
-0.478225
-0.438255
-0.391027
-0.343897
-0.300861
-0.263173
-0.230955
-0.202298
-0.52984
-0.506374
-0.476616
-0.433002
-0.38272
-0.333617
-0.289475
-0.25126
-0.218853
-0.190181
-0.528681
-0.504773
-0.472291
-0.425206
-0.372238
-0.32154
-0.276603
-0.238098
-0.205689
-0.177165
-0.524516
-0.500249
-0.465052
-0.41476
-0.359527
-0.307633
-0.262222
-0.223677
-0.191428
-0.163042
-0.517109
-0.492569
-0.454747
-0.401591
-0.344556
-0.291878
-0.24632
-0.208003
-0.176108
-0.147678
-0.506271
-0.481552
-0.44127
-0.385667
-0.32732
-0.274274
-0.228886
-0.191061
-0.159814
-0.131401
-0.491865
-0.467072
-0.424565
-0.36699
-0.307838
-0.254834
-0.209933
-0.172854
-0.14242
-0.114691
-0.473805
-0.449058
-0.404621
-0.345596
-0.286154
-0.233598
-0.189541
-0.153594
-0.123878
-0.0973757
-0.452065
-0.427497
-0.381479
-0.321562
-0.262332
-0.210642
-0.167824
-0.133142
-0.104409
-0.079362
-0.426671
-0.402433
-0.355237
-0.294998
-0.236455
-0.186081
-0.144767
-0.111579
-0.0840958
-0.0606657
-0.397702
-0.373974
-0.32606
-0.266003
-0.20864
-0.159964
-0.120461
-0.0889961
-0.0630001
-0.0413621
-0.365295
-0.342296
-0.294137
-0.234594
-0.179041
-0.13242
-0.0950089
-0.0654882
-0.041192
-0.0215444
-0.329643
-0.307633
-0.259499
-0.201055
-0.147782
-0.103583
-0.0685319
-0.0411542
-0.0187446
-0.00128874
-0.290966
-0.270219
-0.222001
-0.165864
-0.115087
-0.0736065
-0.041159
-0.0160917
0.00427436
0.0193255
-0.249476
-0.230097
-0.182499
-0.12902
-0.0811497
-0.042658
-0.0130219
0.00960927
0.0277617
0.0400446
-0.205455
-0.187498
-0.141489
-0.0907803
-0.0461657
-0.0109104
0.0157555
0.0358602
0.051487
0.0602756
-0.159361
-0.142901
-0.0990558
-0.0514201
-0.0103489
0.0214604
0.045049
0.0625311
0.0751036
0.0795113
-0.111533
-0.0966917
-0.0554262
-0.011213
0.0260711
0.0542702
0.0746948
0.0893623
0.098344
0.0986795
-0.0623128
-0.0492902
-0.0109119
0.0295644
0.0628591
0.0873219
0.104465
0.115972
0.120972
0.121682
-0.0121103
-0.00109035
0.0341445
0.0706278
0.0997763
0.120404
0.134121
0.142268
0.144109
0.144836
0.0386507
0.0475168
0.079391
0.111687
0.136578
0.153301
0.163496
0.168305
0.167436
0.166968
0.089543
0.0961363
0.124475
0.152448
0.173017
0.185797
0.192432
0.193984
0.19059
0.188324
0.140138
0.144372
0.169046
0.192617
0.208845
0.21768
0.220766
0.219144
0.213255
0.208857
0.190011
0.191829
0.21276
0.231906
0.243816
0.248744
0.24833
0.243617
0.23525
0.228563
0.238741
0.23812
0.255279
0.270029
0.27769
0.278787
0.274953
0.267238
0.256423
0.24738
0.285921
0.282869
0.296278
0.306712
0.310234
0.307612
0.300466
0.289853
0.276648
0.265239
0.331154
0.325712
0.335444
0.34169
0.341223
0.335027
0.324704
0.311319
0.295805
0.282063
0.374064
0.366302
0.372477
0.374711
0.370445
0.36085
0.347513
0.331502
0.313785
0.297776
0.414293
0.404313
0.407096
0.405536
0.397697
0.384911
0.368745
0.350276
0.330483
0.312306
0.451507
0.439439
0.439041
0.433945
0.42279
0.407048
0.388264
0.367524
0.345803
0.325583
0.485399
0.4714
0.468068
0.459734
0.445552
0.427113
0.405946
0.383139
0.359655
0.337545
0.515688
0.499942
0.493961
0.482717
0.465825
0.444974
0.421674
0.397023
0.371957
0.348136
0.542127
0.524838
0.516525
0.50273
0.483468
0.460511
0.43535
0.40909
0.382639
0.357306
0.564497
0.545891
0.535592
0.519631
0.498361
0.47362
0.446883
0.419263
0.391638
0.365012
0.582617
0.562936
0.551018
0.533298
0.510401
0.484213
0.456201
0.427479
0.398901
0.371219
0.596337
0.575838
0.562689
0.543634
0.519504
0.492221
0.463242
0.433687
0.404386
0.375899
0.605547
0.584496
0.570519
0.550566
0.525607
0.497589
0.467961
0.437848
0.40806
0.379031
0.61017
0.588842
0.574448
0.554045
0.52867
0.500282
0.470329
0.439934
0.409902
0.3806
0.61017
0.588842
0.574448
0.554045
0.52867
0.500282
0.470329
0.439934
0.409902
0.3806
0.605547
0.584496
0.570519
0.550566
0.525607
0.497589
0.467961
0.437848
0.40806
0.379031
0.596337
0.575838
0.562689
0.543634
0.519504
0.492221
0.463242
0.433687
0.404386
0.375899
0.582617
0.562936
0.551018
0.533298
0.510401
0.484213
0.456201
0.427479
0.398901
0.371219
0.564497
0.545891
0.535592
0.519631
0.498361
0.47362
0.446883
0.419263
0.391638
0.365012
0.542127
0.524838
0.516525
0.50273
0.483468
0.460511
0.43535
0.40909
0.382639
0.357306
0.515688
0.499942
0.493961
0.482717
0.465825
0.444974
0.421674
0.397023
0.371957
0.348136
0.485399
0.4714
0.468068
0.459734
0.445552
0.427113
0.405946
0.383139
0.359654
0.337545
0.451507
0.439439
0.43904
0.433945
0.42279
0.407048
0.388264
0.367524
0.345803
0.325583
0.414293
0.404313
0.407096
0.405536
0.397697
0.384911
0.368745
0.350276
0.330483
0.312306
0.374064
0.366302
0.372477
0.374711
0.370445
0.36085
0.347513
0.331502
0.313785
0.297776
0.331154
0.325711
0.335444
0.34169
0.341223
0.335027
0.324704
0.311319
0.295805
0.282063
0.285921
0.282869
0.296278
0.306712
0.310234
0.307612
0.300466
0.289853
0.276648
0.265239
0.238741
0.23812
0.255279
0.270029
0.277689
0.278787
0.274953
0.267238
0.256423
0.24738
0.190011
0.191829
0.212759
0.231906
0.243816
0.248744
0.24833
0.243617
0.23525
0.228563
0.140138
0.144371
0.169046
0.192617
0.208845
0.21768
0.220766
0.219144
0.213255
0.208857
0.0895429
0.0961362
0.124475
0.152448
0.173017
0.185797
0.192432
0.193984
0.19059
0.188323
0.0386506
0.0475167
0.0793909
0.111687
0.136578
0.153301
0.163496
0.168305
0.167436
0.166968
-0.0121104
-0.00109044
0.0341444
0.0706277
0.0997762
0.120404
0.134121
0.142268
0.144109
0.144836
-0.0623129
-0.0492903
-0.010912
0.0295643
0.062859
0.0873218
0.104465
0.115972
0.120972
0.121682
-0.111534
-0.0966918
-0.0554263
-0.011213
0.0260711
0.0542702
0.0746948
0.0893622
0.098344
0.0986795
-0.159361
-0.142901
-0.0990558
-0.0514201
-0.0103489
0.0214603
0.045049
0.0625311
0.0751035
0.0795113
-0.205455
-0.187498
-0.141489
-0.0907804
-0.0461657
-0.0109105
0.0157554
0.0358602
0.0514869
0.0602756
-0.249476
-0.230097
-0.182499
-0.129021
-0.0811498
-0.042658
-0.0130219
0.00960923
0.0277617
0.0400446
-0.290966
-0.270219
-0.222001
-0.165864
-0.115087
-0.0736066
-0.0411591
-0.0160918
0.00427432
0.0193255
-0.329643
-0.307633
-0.259499
-0.201055
-0.147782
-0.103583
-0.068532
-0.0411543
-0.0187446
-0.00128878
-0.365295
-0.342296
-0.294137
-0.234594
-0.179042
-0.13242
-0.095009
-0.0654883
-0.0411921
-0.0215444
-0.397702
-0.373974
-0.32606
-0.266003
-0.20864
-0.159964
-0.120461
-0.0889961
-0.0630002
-0.0413621
-0.426671
-0.402434
-0.355237
-0.294998
-0.236455
-0.186081
-0.144767
-0.111579
-0.0840959
-0.0606657
-0.452065
-0.427497
-0.381479
-0.321562
-0.262332
-0.210642
-0.167824
-0.133142
-0.104409
-0.079362
-0.473805
-0.449058
-0.404621
-0.345596
-0.286154
-0.233598
-0.189541
-0.153594
-0.123878
-0.0973757
-0.491865
-0.467072
-0.424565
-0.36699
-0.307838
-0.254834
-0.209933
-0.172854
-0.14242
-0.114691
-0.506271
-0.481552
-0.441271
-0.385667
-0.32732
-0.274274
-0.228886
-0.191061
-0.159814
-0.131401
-0.517109
-0.492569
-0.454747
-0.401591
-0.344556
-0.291879
-0.24632
-0.208003
-0.176108
-0.147678
-0.524516
-0.500249
-0.465052
-0.41476
-0.359527
-0.307633
-0.262222
-0.223677
-0.191428
-0.163042
-0.528681
-0.504773
-0.472291
-0.425207
-0.372238
-0.32154
-0.276603
-0.238098
-0.205689
-0.177165
-0.52984
-0.506374
-0.476616
-0.433002
-0.38272
-0.333617
-0.289475
-0.25126
-0.218854
-0.190181
-0.528268
-0.50533
-0.478225
-0.438255
-0.391027
-0.343897
-0.300861
-0.263173
-0.230955
-0.202298
-0.524272
-0.50195
-0.477364
-0.441112
-0.39724
-0.352432
-0.310798
-0.273874
-0.242042
-0.213613
-0.518182
-0.496568
-0.474317
-0.441755
-0.401465
-0.359289
-0.31934
-0.283411
-0.252152
-0.224145
-0.510342
-0.489528
-0.4694
-0.440403
-0.403831
-0.364551
-0.326552
-0.291838
-0.26132
-0.233902
-0.5011
-0.481175
-0.462947
-0.4373
-0.404487
-0.368313
-0.332501
-0.299211
-0.269587
-0.242904
-0.490794
-0.471847
-0.455302
-0.43272
-0.403607
-0.370682
-0.337264
-0.305589
-0.277001
-0.251183
-0.47975
-0.461859
-0.446801
-0.426951
-0.401383
-0.371775
-0.340919
-0.311037
-0.283616
-0.258773
-0.468267
-0.451502
-0.437758
-0.420292
-0.398022
-0.371722
-0.343551
-0.315619
-0.289487
-0.265716
-0.456613
-0.441035
-0.428459
-0.413039
-0.393748
-0.370661
-0.345248
-0.319401
-0.294671
-0.272053
-0.445023
-0.430676
-0.419148
-0.405468
-0.388793
-0.368741
-0.3461
-0.322446
-0.299222
-0.27783
-0.433691
-0.420605
-0.410028
-0.397829
-0.38339
-0.366121
-0.346201
-0.324815
-0.303191
-0.283095
-0.422774
-0.410961
-0.401261
-0.390325
-0.377764
-0.362967
-0.345649
-0.326568
-0.306624
-0.287892
-0.412391
-0.401846
-0.392965
-0.383118
-0.372117
-0.359451
-0.344551
-0.327764
-0.309562
-0.292268
-0.402628
-0.393324
-0.385221
-0.37632
-0.366619
-0.355742
-0.343018
-0.328464
-0.312038
-0.296266
-0.39354
-0.385431
-0.378074
-0.370008
-0.361394
-0.351997
-0.341168
-0.328732
-0.314078
-0.299934
-0.385156
-0.378178
-0.37154
-0.364222
-0.356528
-0.348351
-0.339123
-0.328644
-0.315703
-0.303323
-0.377484
-0.37156
-0.365613
-0.358977
-0.352069
-0.344902
-0.337003
-0.328283
-0.316928
-0.306491
-0.370517
-0.365556
-0.360267
-0.354265
-0.348037
-0.341716
-0.334907
-0.327742
-0.317767
-0.309512
-0.364234
-0.360138
-0.35547
-0.350062
-0.344438
-0.33883
-0.332915
-0.327115
-0.318237
-0.312456
-0.358605
-0.355272
-0.351182
-0.346334
-0.341258
-0.336263
-0.331075
-0.326483
-0.318363
-0.315426
-0.353593
-0.350919
-0.347363
-0.343042
-0.338475
-0.334015
-0.32942
-0.3259
-0.31822
-0.31834
-0.349153
-0.347037
-0.343968
-0.340145
-0.336058
-0.332075
-0.327978
-0.325372
-0.31787
-0.321382
-0.345233
-0.343582
-0.340955
-0.337599
-0.33397
-0.330422
-0.326776
-0.324779
-0.317603
-0.322766
-0.341772
-0.340513
-0.338279
-0.335362
-0.332169
-0.329028
-0.325815
-0.324012
-0.318157
-0.31197
-0.338717
-0.337775
-0.335896
-0.333391
-0.330614
-0.327862
-0.325066
-0.323174
-0.319301
-0.30802
-0.336008
-0.335316
-0.333761
-0.331642
-0.329263
-0.326888
-0.324492
-0.322519
-0.320456
-0.308281
-0.333579
-0.333092
-0.33183
-0.330074
-0.328078
-0.326071
-0.324053
-0.322136
-0.321211
-0.309603
-0.331364
-0.331058
-0.330062
-0.328648
-0.32702
-0.325375
-0.323718
-0.321994
-0.321645
-0.311372
-0.329309
-0.329168
-0.328422
-0.327328
-0.326056
-0.324767
-0.323466
-0.322042
-0.321988
-0.313528
-0.327364
-0.327385
-0.326877
-0.326084
-0.325153
-0.324217
-0.323276
-0.322227
-0.322384
-0.31586
-0.325488
-0.325684
-0.325398
-0.324892
-0.324285
-0.323695
-0.32312
-0.322484
-0.322877
-0.318136
-0.323653
-0.324042
-0.323967
-0.323727
-0.32343
-0.323175
-0.322964
-0.322748
-0.32344
-0.320199
-0.321841
-0.322447
-0.322573
-0.32258
-0.322571
-0.322631
-0.322776
-0.322957
-0.324028
-0.321951
-0.320049
-0.320894
-0.321211
-0.321445
-0.321697
-0.322047
-0.322513
-0.323092
-0.32456
-0.323316
-0.318286
-0.319389
-0.319887
-0.320325
-0.320809
-0.321417
-0.322178
-0.323152
-0.324818
-0.324391
-0.316572
-0.317946
-0.318613
-0.31923
-0.319915
-0.320746
-0.321767
-0.323066
-0.324883
-0.325625
-0.314939
-0.316587
-0.317407
-0.31818
-0.319034
-0.320051
-0.32129
-0.322853
-0.324845
-0.326449
-0.313425
-0.315338
-0.316295
-0.317199
-0.318191
-0.319358
-0.320774
-0.322545
-0.324716
-0.326929
-0.312073
-0.31423
-0.315305
-0.316316
-0.317417
-0.3187
-0.320254
-0.322183
-0.324521
-0.327178
-0.310926
-0.313296
-0.314467
-0.315562
-0.316744
-0.318115
-0.319771
-0.321816
-0.324295
-0.327273
-0.310024
-0.312565
-0.313809
-0.314965
-0.316206
-0.317638
-0.319365
-0.321491
-0.324078
-0.32728
-0.309402
-0.312062
-0.313356
-0.314552
-0.31583
-0.3173
-0.319072
-0.321248
-0.323909
-0.327251
-0.309085
-0.311806
-0.313125
-0.314341
-0.315637
-0.317125
-0.318918
-0.321119
-0.323817
-0.327226
-0.332004
-0.337564
-0.3446
-0.352879
-0.362549
-0.373421
-0.385185
-0.39722
-0.408584
-0.417926
-0.423507
-0.423161
-0.414116
-0.393936
-0.360172
-0.311984
-0.251288
-0.183951
-0.117234
-0.0585469
-0.0121391
0.0206886
0.039965
0.0497165
0.0503588
0.0475653
0.0392549
0.0318906
0.019056
0.0100705
-0.332158
-0.33767
-0.344718
-0.353011
-0.362709
-0.373623
-0.385443
-0.397551
-0.409003
-0.418452
-0.424154
-0.423945
-0.415068
-0.395044
-0.361409
-0.313276
-0.252528
-0.185052
-0.11815
-0.0592885
-0.0127243
0.0202392
0.0396135
0.0494488
0.0501508
0.0474085
0.0391365
0.0318043
0.0190013
0.0100381
-0.332436
-0.337853
-0.344922
-0.353242
-0.362993
-0.373987
-0.385915
-0.398162
-0.409785
-0.419438
-0.425374
-0.425435
-0.416883
-0.397167
-0.36379
-0.315775
-0.254937
-0.187203
-0.11995
-0.0607575
-0.0138868
0.0193413
0.0389095
0.0489115
0.0497335
0.0470938
0.0388997
0.0316314
0.0188923
0.00997356
-0.332786
-0.338061
-0.345156
-0.353511
-0.363333
-0.374437
-0.386515
-0.398956
-0.41082
-0.420764
-0.427037
-0.427485
-0.419397
-0.400135
-0.367145
-0.319326
-0.258389
-0.190313
-0.122586
-0.0629149
-0.0156131
0.0179968
0.037852
0.0481011
0.049105
0.0466193
0.0385441
0.0313717
0.01873
0.00987712
-0.333141
-0.338224
-0.345348
-0.353741
-0.363643
-0.374875
-0.387132
-0.399809
-0.411968
-0.422272
-0.428968
-0.429902
-0.422398
-0.403724
-0.37125
-0.32372
-0.262713
-0.194265
-0.125994
-0.0657048
-0.0178819
0.016211
0.0364408
0.0470146
0.0482634
0.0459831
0.0380697
0.031025
0.0185159
0.00974935
-0.333427
-0.33827
-0.345419
-0.353847
-0.363827
-0.375193
-0.387643
-0.40058
-0.41307
-0.423784
-0.430971
-0.432473
-0.42565
-0.407684
-0.375854
-0.328725
-0.267722
-0.198927
-0.130036
-0.0691016
-0.0206666
0.0139931
0.0346784
0.0456503
0.0472079
0.0451841
0.0374772
0.0305918
0.0182515
0.00959116
-0.333586
-0.33813
-0.345297
-0.353747
-0.363793
-0.375286
-0.387929
-0.401133
-0.413974
-0.425128
-0.432854
-0.434988
-0.428922
-0.411769
-0.380703
-0.334111
-0.27323
-0.204115
-0.13464
-0.0730306
-0.0239357
0.0113575
0.0325713
0.0440099
0.0459398
0.0442226
0.0367679
0.030073
0.0179392
0.0094038
-0.333637
-0.337734
-0.344927
-0.353379
-0.363467
-0.375067
-0.387887
-0.401351
-0.414544
-0.426152
-0.434446
-0.437258
-0.432006
-0.415755
-0.385573
-0.33966
-0.279033
-0.209612
-0.139747
-0.077433
-0.0276522
0.00832489
0.0301313
0.0420991
0.044463
0.0431011
0.0359448
0.0294707
0.0175813
0.00918896
-0.333642
-0.337024
-0.344283
-0.352701
-0.362798
-0.374472
-0.387441
-0.401142
-0.414674
-0.426734
-0.43561
-0.439131
-0.434731
-0.419453
-0.390268
-0.345125
-0.284818
-0.215468
-0.145202
-0.0822423
-0.0317721
0.00492232
0.0273753
0.039928
0.0427847
0.0418245
0.0350118
0.028788
0.0171806
0.00894868
-0.332723
-0.336344
-0.343301
-0.351696
-0.36176
-0.373467
-0.386546
-0.40045
-0.414296
-0.426794
-0.436248
-0.440493
-0.436948
-0.422686
-0.394545
-0.350339
-0.290641
-0.22143
-0.150908
-0.0873867
-0.0362464
0.00118245
0.0243257
0.0375115
0.0409154
0.0404002
0.0339746
0.0280291
0.01674
0.00868534
-0.331818
-0.335386
-0.342042
-0.350382
-0.360361
-0.37205
-0.385189
-0.39925
-0.413369
-0.426272
-0.436277
-0.441238
-0.438586
-0.42537
-0.398361
-0.355201
-0.296267
-0.227384
-0.156775
-0.0927935
-0.0410227
-0.00285735
0.0210091
0.0348684
0.0388683
0.0388376
0.0328399
0.027199
0.0162629
0.00840158
-0.330902
-0.334218
-0.340555
-0.348791
-0.358629
-0.370243
-0.383387
-0.39755
-0.411894
-0.425166
-0.435695
-0.441349
-0.439572
-0.427413
-0.401581
-0.359578
-0.301583
-0.233231
-0.162713
-0.0983918
-0.0460465
-0.00715657
0.0174554
0.0320203
0.0366593
0.0371482
0.0316159
0.0263037
0.0157526
0.00810014
-0.329987
-0.332947
-0.338895
-0.346969
-0.356612
-0.36809
-0.381178
-0.395382
-0.409894
-0.423484
-0.434495
-0.440802
-0.439886
-0.428771
-0.404139
-0.363386
-0.306502
-0.238882
-0.168642
-0.104115
-0.0512648
-0.0116738
0.0136964
0.028991
0.0343054
0.0353445
0.0303113
0.0253495
0.0152128
0.00778383
-0.329146
-0.331652
-0.337124
-0.344977
-0.354365
-0.365646
-0.378615
-0.392797
-0.407412
-0.421257
-0.432695
-0.43962
-0.439522
-0.429423
-0.405995
-0.366567
-0.310952
-0.244264
-0.174494
-0.109902
-0.0566263
-0.0163676
0.00976464
0.0258055
0.0318251
0.0334399
0.0289353
0.0243433
0.0146469
0.0074554
-0.32842
-0.330393
-0.335308
-0.34287
-0.351945
-0.36297
-0.375758
-0.389849
-0.404497
-0.41853
-0.430331
-0.43787
-0.43849
-0.42936
-0.40713
-0.369084
-0.314883
-0.249317
-0.180202
-0.115691
-0.0620748
-0.0211911
0.00569691
0.0224918
0.0292385
0.0314489
0.0274977
0.0232919
0.0140585
0.00711748
-0.327807
-0.32919
-0.3335
-0.340696
-0.349399
-0.360113
-0.37266
-0.386593
-0.401201
-0.415345
-0.427433
-0.435417
-0.436794
-0.428585
-0.407535
-0.370911
-0.318241
-0.25397
-0.185683
-0.121399
-0.0675397
-0.0260886
0.00153493
0.01908
0.0265669
0.0293865
0.0260085
0.0222023
0.0134511
0.00677246
-0.327222
-0.327999
-0.331728
-0.338494
-0.346772
-0.357128
-0.369378
-0.383088
-0.397581
-0.411758
-0.42406
-0.432476
-0.434459
-0.427117
-0.407217
-0.372041
-0.321
-0.258182
-0.190899
-0.126994
-0.072997
-0.0310396
-0.00270355
0.0155873
0.0238244
0.0272649
0.0244765
0.0210815
0.0128283
0.0064227
-0.326519
-0.326755
-0.330012
-0.336286
-0.344086
-0.354041
-0.365944
-0.379367
-0.393673
-0.407805
-0.420247
-0.428949
-0.431472
-0.424977
-0.406237
-0.372587
-0.32333
-0.262168
-0.196077
-0.132679
-0.0786025
-0.036144
-0.00707499
0.0119898
0.021004
0.025087
0.022907
0.0199361
0.0121937
0.00607074
-0.326285
-0.325247
-0.328288
-0.333987
-0.341223
-0.350712
-0.362196
-0.375254
-0.389287
-0.403293
-0.415847
-0.4247
-0.427707
-0.422092
-0.404621
-0.372679
-0.325428
-0.266127
-0.201374
-0.138555
-0.0844036
-0.0414169
-0.0115758
0.00829534
0.018115
0.0228593
0.021305
0.0187694
0.0115504
0.00571819
-0.32499
-0.322497
-0.326364
-0.331591
-0.338304
-0.347333
-0.358384
-0.371027
-0.384694
-0.398423
-0.410839
-0.420136
-0.423465
-0.418435
-0.401942
-0.371387
-0.32585
-0.268247
-0.204871
-0.142901
-0.0890371
-0.0459171
-0.0156037
0.00483904
0.0153366
0.0206546
0.0196991
0.0175796
0.0108949
0.00536163
-0.311423
-0.317048
-0.324417
-0.329832
-0.336368
-0.345202
-0.356031
-0.368407
-0.38177
-0.395189
-0.407364
-0.416116
-0.419193
-0.413965
-0.397443
-0.367225
-0.322602
-0.266438
-0.204781
-0.144471
-0.0918378
-0.049483
-0.0193191
0.0012668
0.0122732
0.0180772
0.0177752
0.016105
0.0100806
0.00492031
-0.309643
-0.314543
-0.322195
-0.327621
-0.333889
-0.342409
-0.352833
-0.364609
-0.37717
-0.389613
-0.400538
-0.408302
-0.410396
-0.404378
-0.387583
-0.357933
-0.314983
-0.261386
-0.202711
-0.145189
-0.0946454
-0.0535942
-0.0238423
-0.00318682
0.00839402
0.0147996
0.0153161
0.0142398
0.00904387
0.00438342
-0.307428
-0.311634
-0.31847
-0.324043
-0.330281
-0.338509
-0.348458
-0.359527
-0.371131
-0.382413
-0.392082
-0.398525
-0.399467
-0.392623
-0.375661
-0.346829
-0.305884
-0.25522
-0.199851
-0.145383
-0.0971312
-0.0575312
-0.0283068
-0.00766111
0.00443889
0.0114237
0.0127575
0.0122966
0.00795383
0.00383958
-0.303322
-0.307339
-0.312948
-0.318524
-0.324867
-0.332832
-0.342245
-0.352545
-0.363146
-0.373244
-0.381627
-0.386765
-0.386633
-0.379123
-0.362215
-0.334453
-0.295757
-0.248259
-0.196397
-0.145162
-0.0993467
-0.0613115
-0.0327047
-0.0121293
0.000447116
0.00799211
0.0101397
0.0103062
0.00683143
0.00329711
-0.296578
-0.301259
-0.305889
-0.311213
-0.317608
-0.325322
-0.334152
-0.343625
-0.353184
-0.362079
-0.369196
-0.373116
-0.372029
-0.364044
-0.347428
-0.32099
-0.284764
-0.240619
-0.19241
-0.144529
-0.10126
-0.0648851
-0.0369862
-0.0165478
-0.0035494
0.00452903
0.00747728
0.00827956
0.00568089
0.00275845
-0.28741
-0.293345
-0.297515
-0.30247
-0.308774
-0.31622
-0.324452
-0.333065
-0.341562
-0.349263
-0.355168
-0.357972
-0.356069
-0.347808
-0.331714
-0.306818
-0.273217
-0.232518
-0.188011
-0.143523
-0.102857
-0.0682084
-0.0411012
-0.0208692
-0.00751337
0.00106322
0.00478787
0.00622979
0.00450714
0.00222677
-0.276715
-0.283857
-0.288029
-0.292667
-0.298749
-0.305882
-0.313529
-0.321294
-0.328754
-0.335311
-0.340084
-0.341893
-0.339331
-0.330979
-0.315591
-0.292376
-0.261452
-0.224178
-0.183321
-0.142188
-0.10413
-0.0712478
-0.0450074
-0.0250512
-0.0114092
-0.00237631
0.00209115
0.00417155
0.00331701
0.00170533
-0.265138
-0.273184
-0.277651
-0.282112
-0.287907
-0.294677
-0.301765
-0.30874
-0.315235
-0.320739
-0.32449
-0.325442
-0.322377
-0.314088
-0.299528
-0.278046
-0.249754
-0.215788
-0.178445
-0.140564
-0.105078
-0.0739792
-0.0486703
-0.0290577
-0.015205
-0.00576263
-0.000593695
0.00211913
0.00211779
0.0011967
-0.253111
-0.261744
-0.266611
-0.271034
-0.276543
-0.282922
-0.289484
-0.295752
-0.301387
-0.305961
-0.308821
-0.309061
-0.30564
-0.297535
-0.283868
-0.2641
-0.238325
-0.207483
-0.173464
-0.138688
-0.105706
-0.076387
-0.0520636
-0.0328589
-0.0188724
-0.0090711
-0.00324818
8.6095e-05
0.000916903
0.000702787
-0.240964
-0.249887
-0.255128
-0.259602
-0.264865
-0.270854
-0.276928
-0.282578
-0.287475
-0.291255
-0.293366
-0.29304
-0.289396
-0.281569
-0.268819
-0.250701
-0.227288
-0.19935
-0.168434
-0.13659
-0.106022
-0.0784633
-0.0551678
-0.0364307
-0.0223864
-0.0122793
-0.00585451
-0.00191458
-0.000277966
0.000225002
-0.228887
-0.237866
-0.243393
-0.247953
-0.253017
-0.258643
-0.264269
-0.269386
-0.273665
-0.276788
-0.278295
-0.277545
-0.273795
-0.266313
-0.254479
-0.237925
-0.2167
-0.191437
-0.163394
-0.134298
-0.106038
-0.0802063
-0.05797
-0.0397541
-0.0257253
-0.0153667
-0.00839548
-0.00387049
-0.00145893
-0.000235571
-0.216991
-0.225861
-0.231569
-0.236207
-0.241113
-0.246412
-0.251634
-0.256294
-0.260064
-0.262663
-0.263704
-0.262656
-0.258896
-0.251811
-0.240876
-0.225789
-0.206581
-0.183768
-0.158369
-0.131833
-0.105769
-0.0816192
-0.060462
-0.0428141
-0.0288701
-0.0183147
-0.0108545
-0.00576974
-0.00261796
-0.000677996
-0.205369
-0.21401
-0.219796
-0.224481
-0.229248
-0.234258
-0.239121
-0.243391
-0.24675
-0.248941
-0.249636
-0.248399
-0.244711
-0.238058
-0.227999
-0.214284
-0.196929
-0.176353
-0.15338
-0.129219
-0.10523
-0.0827096
-0.0626406
-0.0455998
-0.0318047
-0.0211066
-0.0132157
-0.00760097
-0.00374701
-0.00110137
-0.194095
-0.202416
-0.208191
-0.212882
-0.217518
-0.222271
-0.226816
-0.230753
-0.233781
-0.235662
-0.236116
-0.234783
-0.231233
-0.225038
-0.215826
-0.20339
-0.187733
-0.169197
-0.148442
-0.126477
-0.104441
-0.0834886
-0.0645062
-0.048104
-0.0345156
-0.0237273
-0.0154641
-0.00935338
-0.00483818
-0.00150474
-0.183229
-0.191166
-0.196855
-0.201509
-0.206013
-0.210532
-0.214796
-0.21845
-0.221212
-0.222863
-0.223162
-0.22181
-0.218451
-0.212728
-0.204331
-0.193084
-0.178983
-0.162303
-0.143573
-0.123631
-0.103423
-0.0839707
-0.0660636
-0.050323
-0.0369922
-0.026164
-0.017586
-0.0110169
-0.00588387
-0.00188708
-0.172822
-0.18033
-0.185874
-0.190452
-0.194816
-0.199119
-0.203133
-0.206544
-0.209093
-0.21058
-0.210793
-0.209484
-0.206354
-0.201111
-0.19349
-0.183348
-0.170668
-0.155676
-0.138789
-0.120703
-0.1022
-0.0841737
-0.067321
-0.0522567
-0.0392269
-0.0284063
-0.019569
-0.0125824
-0.00687702
-0.00224728
-0.162918
-0.169969
-0.175321
-0.179789
-0.184006
-0.188105
-0.191893
-0.195095
-0.197474
-0.198848
-0.199029
-0.197808
-0.194935
-0.190169
-0.183286
-0.174165
-0.162782
-0.149321
-0.134108
-0.11772
-0.100797
-0.0841183
-0.0682906
-0.053909
-0.0412159
-0.0304462
-0.021403
-0.0140418
-0.00781125
-0.00258423
-0.153549
-0.16013
-0.165258
-0.16959
-0.173651
-0.177555
-0.181137
-0.184157
-0.186401
-0.187699
-0.187888
-0.186789
-0.184191
-0.179893
-0.173704
-0.165523
-0.155321
-0.143244
-0.129548
-0.114707
-0.0992424
-0.0838286
-0.0689885
-0.0552876
-0.0429587
-0.0322789
-0.0230798
-0.0153883
-0.00868112
-0.00289683
-0.144743
-0.150853
-0.155734
-0.159911
-0.16381
-0.167528
-0.170922
-0.173782
-0.175915
-0.177168
-0.177393
-0.176437
-0.17412
-0.170273
-0.164734
-0.157416
-0.148285
-0.137457
-0.125129
-0.111692
-0.0975656
-0.0833312
-0.0694342
-0.0564041
-0.0444588
-0.0339026
-0.0245941
-0.0166169
-0.00948217
-0.00318415
-0.13652
-0.14217
-0.146793
-0.150801
-0.154537
-0.158076
-0.161295
-0.164013
-0.166056
-0.167284
-0.167564
-0.166763
-0.164725
-0.161309
-0.156372
-0.149841
-0.141676
-0.131971
-0.120873
-0.108704
-0.0957981
-0.0826558
-0.0696512
-0.0572739
-0.0457234
-0.0353189
-0.025943
-0.0177241
-0.0102111
-0.00344542
-0.128899
-0.134107
-0.13847
-0.142303
-0.145876
-0.149244
-0.152303
-0.154893
-0.156859
-0.158077
-0.158423
-0.15778
-0.156014
-0.153001
-0.148617
-0.142798
-0.135502
-0.126801
-0.116803
-0.105772
-0.0939738
-0.0818346
-0.0696661
-0.0579163
-0.0467637
-0.0365329
-0.0271267
-0.0187085
-0.010866
-0.00368017
-0.121896
-0.126688
-0.130795
-0.134454
-0.137868
-0.141075
-0.143985
-0.146459
-0.148361
-0.149576
-0.149992
-0.149505
-0.147995
-0.145355
-0.141475
-0.136297
-0.129775
-0.121967
-0.112946
-0.102931
-0.0921284
-0.0809025
-0.0695088
-0.0583542
-0.0475947
-0.0375529
-0.0281484
-0.0195705
-0.0114459
-0.00388824
-0.115527
-0.119935
-0.123798
-0.127286
-0.130548
-0.133605
-0.136378
-0.138748
-0.140593
-0.141811
-0.142297
-0.141958
-0.140684
-0.138384
-0.134956
-0.130348
-0.124511
-0.117489
-0.109331
-0.100215
-0.0902999
-0.0798968
-0.0692123
-0.0586139
-0.0482349
-0.0383906
-0.0290138
-0.0203129
-0.0119512
-0.00406982
-0.10981
-0.113868
-0.117504
-0.120832
-0.123951
-0.126871
-0.129519
-0.131796
-0.133592
-0.134813
-0.135365
-0.135162
-0.134103
-0.132106
-0.129078
-0.12497
-0.119733
-0.113398
-0.105991
-0.0976626
-0.0885287
-0.0788571
-0.0688122
-0.0587246
-0.048706
-0.0390607
-0.0297316
-0.0209399
-0.0123836
-0.00422543
-0.104766
-0.108513
-0.111943
-0.115123
-0.118114
-0.12091
-0.123447
-0.12564
-0.127392
-0.128618
-0.12923
-0.129147
-0.128277
-0.126546
-0.123866
-0.120191
-0.11547
-0.109724
-0.102965
-0.0953139
-0.0868576
-0.0778254
-0.0683465
-0.0587183
-0.0490326
-0.0395804
-0.0303124
-0.0214576
-0.0127457
-0.00435589
-0.100423
-0.103901
-0.107149
-0.110199
-0.113075
-0.115763
-0.118204
-0.120324
-0.122038