/*--------------------------------*- C++ -*----------------------------------*\
  =========                 |
  \\      /  F ield         | OpenFOAM: The Open Source CFD Toolbox
   \\    /   O peration     | Website:  https://openfoam.org
    \\  /    A nd           | Version:  7
     \\/     M anipulation  |
\*---------------------------------------------------------------------------*/
FoamFile
{
    version     2.0;
    format      ascii;
    class       surfaceScalarField;
    location    "10";
    object      phi;
}
// * * * * * * * * * * * * * * * * * * * * * * * * * * * * * * * * * * * * * //

dimensions      [0 3 -1 0 0 0 0];

internalField   nonuniform List<scalar> 
16735
(
-1.06484e-06
1.0648e-06
3.72709e-11
-3.74728e-06
2.68235e-06
9.64143e-11
-7.81899e-06
4.07156e-06
1.45673e-10
-1.31061e-05
5.28689e-06
1.85415e-10
-1.94975e-05
6.39121e-06
2.17795e-10
-2.69601e-05
7.46237e-06
2.45992e-10
-3.55562e-05
8.5958e-06
2.73051e-10
-4.54674e-05
9.91091e-06
3.01106e-10
-5.70092e-05
1.15415e-05
3.30712e-10
1.36823e-05
3.60338e-10
-7.06918e-05
-1.03632e-06
2.10112e-06
-3.6537e-06
5.29973e-06
-7.6289e-06
8.04676e-06
-1.27868e-05
1.04448e-05
-1.90094e-05
1.26137e-05
-2.62497e-05
1.47027e-05
-3.45492e-05
1.68953e-05
-4.40614e-05
1.94232e-05
-5.50674e-05
2.25474e-05
2.66367e-05
-6.80218e-05
-9.81174e-07
3.08229e-06
-3.47223e-06
7.79079e-06
-7.25949e-06
1.1834e-05
-1.21655e-05
1.53509e-05
-1.80584e-05
1.85066e-05
-2.4865e-05
2.15093e-05
-3.25864e-05
2.46167e-05
-4.13215e-05
2.81583e-05
-5.12857e-05
3.25115e-05
3.81768e-05
-6.28257e-05
-9.03071e-07
3.98536e-06
-3.21387e-06
1.01016e-05
-6.73157e-06
1.53517e-05
-1.12752e-05
1.98945e-05
-1.66933e-05
2.39247e-05
-2.28759e-05
2.76919e-05
-2.97667e-05
3.15074e-05
-3.73865e-05
3.57782e-05
-4.58594e-05
4.09844e-05
4.76949e-05
-5.53776e-05
-8.07101e-07
4.79246e-06
-2.89398e-06
1.21885e-05
-6.07439e-06
1.85321e-05
-1.01626e-05
2.39827e-05
-1.49832e-05
2.87454e-05
-2.03811e-05
3.30898e-05
-2.62293e-05
3.73556e-05
-3.24513e-05
4.20002e-05
-3.90616e-05
4.75947e-05
5.46894e-05
-4.60561e-05
-6.99377e-07
5.49184e-06
-2.53114e-06
1.40202e-05
-5.32345e-06
2.13244e-05
-8.88441e-06
2.75437e-05
-1.3012e-05
3.28729e-05
-1.75006e-05
3.75784e-05
-2.21438e-05
4.19988e-05
-2.67524e-05
4.66088e-05
-3.12201e-05
5.20624e-05
5.87804e-05
-3.53111e-05
-5.86524e-07
6.07837e-06
-2.14567e-06
1.55794e-05
-4.51776e-06
2.36965e-05
-7.50322e-06
3.05291e-05
-1.0872e-05
3.62417e-05
-1.43662e-05
4.10726e-05
-1.76959e-05
4.53286e-05
-2.05477e-05
4.94605e-05
-2.26888e-05
5.42036e-05
5.97174e-05
-2.36258e-05
-4.75148e-07
6.55351e-06
-1.75799e-06
1.68622e-05
-3.69673e-06
2.56353e-05
-6.08225e-06
3.29146e-05
-8.65638e-06
3.88158e-05
-1.11102e-05
4.35264e-05
-1.30712e-05
4.72896e-05
-1.40921e-05
5.04813e-05
-1.38074e-05
5.39189e-05
5.74078e-05
-1.14978e-05
-3.71308e-07
6.92482e-06
-1.38698e-06
1.78779e-05
-2.89692e-06
2.71452e-05
-4.67997e-06
3.46977e-05
-6.45062e-06
4.05865e-05
-7.85226e-06
4.49281e-05
-8.43617e-06
4.78735e-05
-7.61326e-06
4.96584e-05
-4.78197e-06
5.10876e-05
5.23866e-05
2.39216e-07
-2.80042e-07
7.20486e-06
-1.04845e-06
1.86463e-05
-2.14888e-06
2.82456e-05
-3.34462e-06
3.58934e-05
-4.32329e-06
4.15651e-05
-4.68443e-06
4.52892e-05
-3.91265e-06
4.71017e-05
-1.33784e-06
4.70836e-05
4.05303e-06
4.56967e-05
4.35732e-05
1.28664e-05
-2.04987e-07
7.40985e-06
-7.53818e-07
1.91951e-05
-1.47429e-06
2.89661e-05
-2.10914e-06
3.65283e-05
-2.31788e-06
4.17739e-05
-1.6585e-06
4.46298e-05
4.60166e-07
4.49831e-05
4.81945e-06
4.27243e-05
1.24982e-05
3.8018e-05
3.11076e-05
2.49638e-05
-1.48093e-07
7.55794e-06
-5.09049e-07
1.95561e-05
-8.83753e-07
2.93408e-05
-9.87224e-07
3.66317e-05
-4.46066e-07
4.12327e-05
1.22392e-06
4.29598e-05
4.67316e-06
4.15338e-05
1.08244e-05
3.65731e-05
2.0961e-05
2.78814e-05
1.49133e-05
3.71553e-05
-1.09469e-07
7.66741e-06
-3.14088e-07
1.97607e-05
-3.75329e-07
2.9402e-05
3.05507e-08
3.62259e-05
1.31679e-06
3.99465e-05
4.02387e-06
4.02528e-05
8.87694e-06
3.66808e-05
1.69137e-05
2.85364e-05
2.9749e-05
1.50461e-05
-5.26218e-06
4.99244e-05
-8.73764e-08
7.75479e-06
-1.62626e-07
1.9836e-05
6.62849e-08
2.91731e-05
9.72176e-07
3.532e-05
3.03217e-06
3.78865e-05
6.85915e-06
3.64258e-05
1.32791e-05
3.02608e-05
2.34568e-05
1.83587e-05
3.94528e-05
-9.49862e-07
-2.97616e-05
6.39522e-05
-7.83817e-08
7.83317e-06
-4.14173e-08
1.9799e-05
4.6599e-07
2.86657e-05
1.89275e-06
3.38932e-05
4.79593e-06
3.49833e-05
9.89869e-06
3.1323e-05
1.81704e-05
2.19891e-05
3.09224e-05
5.60673e-06
5.08069e-05
-2.08344e-05
-5.89139e-05
7.99592e-05
-7.77933e-08
7.91096e-06
6.31001e-08
1.96581e-05
8.63539e-07
2.78653e-05
2.86202e-06
3.18947e-05
6.73071e-06
3.11146e-05
1.33472e-05
2.47066e-05
2.38816e-05
1.14546e-05
3.98175e-05
-1.03291e-05
6.45137e-05
-4.55306e-05
-9.28525e-05
9.84523e-05
-7.95318e-08
7.9905e-06
1.73957e-07
1.94046e-05
1.30436e-06
2.67349e-05
3.96402e-06
2.92351e-05
8.977e-06
2.61016e-05
1.74253e-05
1.62583e-05
3.07403e-05
-1.86035e-06
5.06132e-05
-3.0202e-05
8.10182e-05
-7.59356e-05
-0.000131306
0.000119471
-7.68418e-08
8.06734e-06
3.15835e-07
1.90119e-05
1.8399e-06
2.52108e-05
5.29054e-06
2.57844e-05
1.16823e-05
1.97099e-05
2.23498e-05
5.59076e-06
3.90319e-05
-1.85424e-05
6.36832e-05
-5.48534e-05
0.000100322
-0.000112574
-0.000173458
0.000142473
-6.30774e-08
8.13042e-06
5.12796e-07
1.84361e-05
2.52314e-06
2.32005e-05
6.93443e-06
2.13731e-05
1.49888e-05
1.16556e-05
2.83106e-05
-7.73109e-06
4.89541e-05
-3.9186e-05
7.92306e-05
-8.51298e-05
0.000121948
-0.000155291
-0.000218216
0.000166707
-2.8651e-08
8.15907e-06
7.89009e-07
1.76184e-05
3.40507e-06
2.05844e-05
8.9826e-06
1.57956e-05
1.90208e-05
1.61739e-06
3.54475e-05
-2.41578e-05
6.05701e-05
-6.43086e-05
9.70398e-05
-0.0001216
0.000145248
-0.000203499
-0.000265504
0.000192535
3.19668e-08
8.1271e-06
1.16596e-06
1.64844e-05
4.53121e-06
1.72192e-05
1.15094e-05
8.81744e-06
2.38726e-05
-1.07458e-05
4.38282e-05
-4.41134e-05
7.37803e-05
-9.42606e-05
0.000116215
-0.000164035
0.000168799
-0.000256083
-0.000339841
0.000243136
1.18524e-07
8.00858e-06
1.66111e-06
1.49418e-05
5.9386e-06
1.29417e-05
1.45707e-05
1.85388e-07
2.95984e-05
-2.57736e-05
5.34323e-05
-6.79473e-05
8.83397e-05
-0.000129168
0.00013584
-0.000211535
0.000192432
-0.000312675
-0.000411318
0.000263908
2.39968e-07
7.76861e-06
2.28856e-06
1.28932e-05
7.65349e-06
7.57674e-06
1.81986e-05
-1.03597e-05
3.6201e-05
-4.37761e-05
6.41291e-05
-9.58753e-05
0.000103794
-0.000168833
0.00015511
-0.000262851
0.000213824
-0.000371389
-0.00047792
0.000280426
3.98014e-07
7.37059e-06
3.05724e-06
1.0234e-05
9.69019e-06
9.43786e-07
2.23969e-05
-2.30664e-05
4.36204e-05
-6.49996e-05
7.5662e-05
-0.000127917
0.000119467
-0.000212638
0.00017311
-0.000316493
0.000231333
-0.000429612
-0.000538648
0.000292061
5.94071e-07
6.77652e-06
3.9714e-06
6.85668e-06
1.20499e-05
-7.13475e-06
2.71377e-05
-3.81541e-05
5.17239e-05
-8.95858e-05
8.76422e-05
-0.000163835
0.000134556
-0.000259552
0.000188743
-0.00037068
0.000244315
-0.000485184
-0.000592642
0.000298308
8.28882e-07
5.94764e-06
5.03102e-06
2.65454e-06
1.47207e-05
-1.68244e-05
3.23584e-05
-5.57918e-05
6.03017e-05
-0.000117529
9.95637e-05
-0.000203097
0.000148237
-0.000308225
0.000201171
-0.000423614
0.000252508
-0.000536521
-0.000639645
0.000299511
1.10263e-06
4.84501e-06
6.23212e-06
-2.47494e-06
1.76766e-05
-2.82689e-05
3.79596e-05
-7.60748e-05
6.90691e-05
-0.000148639
0.000110853
-0.000244881
0.000159791
-0.000357163
0.000209929
-0.000473752
0.000256101
-0.000582693
-0.000679957
0.000296414
1.41499e-06
3.43001e-06
7.56647e-06
-8.62642e-06
2.08769e-05
-4.15793e-05
4.38031e-05
-9.9001e-05
7.76818e-05
-0.000182517
0.000120942
-0.000288141
0.000168703
-0.000404925
0.000214924
-0.000519973
0.00025558
-0.000623349
-0.000714181
0.000289804
1.765e-06
1.66502e-06
9.02103e-06
-1.58825e-05
2.4264e-05
-5.68223e-05
4.97135e-05
-0.00012445
8.57642e-05
-0.000218568
0.000129349
-0.000331725
0.000174713
-0.000450289
0.000216353
-0.000561613
0.000251566
-0.000658562
-0.000743071
0.000280457
2.15073e-06
-4.85708e-07
1.0577e-05
-2.43087e-05
2.77631e-05
-7.40084e-05
5.54849e-05
-0.000152172
9.29499e-05
-0.000256033
0.000135734
-0.000374509
0.000177796
-0.000492351
0.000214592
-0.000598409
0.000244715
-0.000688685
-0.000767396
0.000269039
2.56898e-06
-3.05468e-06
1.2209e-05
-3.39488e-05
3.12815e-05
-9.30809e-05
6.08938e-05
-0.000181785
9.89242e-05
-0.000294063
0.000139923
-0.000415508
0.000178111
-0.000530538
0.00021011
-0.000630409
0.000235634
-0.000714209
-0.000787862
0.0002561
3.01501e-06
-6.06969e-06
1.38846e-05
-4.48184e-05
3.47123e-05
-0.000113909
6.57197e-05
-0.000212792
0.000103458
-0.000331801
0.000141898
-0.000453949
0.000175937
-0.000564577
0.000203387
-0.000657858
0.000224854
-0.000735676
-0.000805078
0.00024207
3.48224e-06
-9.55193e-06
1.55649e-05
-5.6901e-05
3.79393e-05
-0.000136283
6.97665e-05
-0.000244619
0.000106421
-0.000368456
0.000141764
-0.000489291
0.000171614
-0.000594428
0.000194879
-0.000681123
0.000212813
-0.00075361
-0.000819539
0.000227274
3.96229e-06
-1.35142e-05
1.72051e-05
-7.01438e-05
4.08456e-05
-0.000159924
7.28814e-05
-0.000276655
0.000107784
-0.000403359
0.000139706
-0.000521214
0.000165495
-0.000620217
0.000184987
-0.000700614
0.000199862
-0.000768485
-0.000831634
0.000211957
4.44515e-06
-1.79594e-05
1.87571e-05
-8.44557e-05
4.33229e-05
-0.000184489
7.49659e-05
-0.000308298
0.000107596
-0.000435989
0.00013596
-0.000549578
0.00015792
-0.000642177
0.000174053
-0.000716746
0.000186273
-0.000780705
-0.000841656
0.000196295
4.91949e-06
-2.28789e-05
2.01718e-05
-9.9708e-05
4.528e-05
-0.000209598
7.59787e-05
-0.000338997
0.000105969
-0.000465979
0.000130777
-0.000574386
0.000149197
-0.000660596
0.000162358
-0.000729907
0.000172254
-0.000790602
-0.000849822
0.00018042
5.37312e-06
-2.8252e-05
2.1402e-05
-0.000115737
4.66501e-05
-0.000234846
7.59299e-05
-0.000368276
0.000103052
-0.000493101
0.000124406
-0.000595741
0.000139593
-0.000675784
0.000150126
-0.00074044
0.000157963
-0.000798439
-0.000856287
0.000164427
5.79356e-06
-3.40455e-05
2.24058e-05
-0.000132349
4.73938e-05
-0.000259834
7.48714e-05
-0.000395754
9.90119e-05
-0.000517241
0.000117078
-0.000613806
0.000129337
-0.000688043
0.000137535
-0.000748637
0.000143515
-0.00080442
-0.000861158
0.000148386
6.16862e-06
-4.02142e-05
2.31489e-05
-0.000149329
4.74991e-05
-0.000284184
7.28848e-05
-0.00042114
9.40223e-05
-0.000538379
0.000109001
-0.000628785
0.000118616
-0.000697658
0.000124722
-0.000754744
0.000129
-0.000808697
-0.000864511
0.000132353
6.48701e-06
-4.67012e-05
2.36064e-05
-0.000166449
4.6979e-05
-0.000307557
7.00703e-05
-0.000444231
8.82505e-05
-0.000556559
0.000100359
-0.000640894
0.000107583
-0.000704882
0.000111795
-0.000758956
0.000114482
-0.000811384
-0.000866401
0.000116372
6.73878e-06
-5.34399e-05
2.37639e-05
-0.000183474
4.58666e-05
-0.000329659
6.6537e-05
-0.000464901
8.18523e-05
-0.000571874
9.13061e-05
-0.000650348
9.63611e-05
-0.000709937
9.88337e-05
-0.000761429
0.000100013
-0.000812563
-0.000866865
0.000100477
6.91583e-06
-6.03558e-05
2.36176e-05
-0.000200176
4.42098e-05
-0.000350251
6.2396e-05
-0.000483088
7.49682e-05
-0.000584447
8.19733e-05
-0.000657353
8.50476e-05
-0.000713011
8.59021e-05
-0.000762283
8.56316e-05
-0.000812293
-0.000865926
8.46919e-05
7.01209e-06
-6.73679e-05
2.3173e-05
-0.000216337
4.2066e-05
-0.000369144
5.77547e-05
-0.000498776
6.77223e-05
-0.000594414
7.24685e-05
-0.000662099
7.37194e-05
-0.000714262
7.30481e-05
-0.000761612
7.13698e-05
-0.000810614
-0.000863594
6.90383e-05
7.02373e-06
-7.43916e-05
2.24441e-05
-0.000231757
3.94977e-05
-0.000386198
5.27139e-05
-0.000511993
6.02221e-05
-0.000601923
6.28806e-05
-0.000664757
6.24367e-05
-0.000713818
6.0308e-05
-0.000759483
5.72509e-05
-0.000807557
-0.000859878
5.35349e-05
6.94913e-06
-8.13407e-05
2.1451e-05
-0.000246259
3.65687e-05
-0.000401316
4.73655e-05
-0.000522789
5.25595e-05
-0.000607117
5.32824e-05
-0.00066548
5.12491e-05
-0.000711785
4.77115e-05
-0.000755946
4.32906e-05
-0.000803137
-0.000854778
3.81907e-05
6.78874e-06
-8.81295e-05
2.02185e-05
-0.000259689
3.33414e-05
-0.000414439
4.17914e-05
-0.000531239
4.48119e-05
-0.000610137
4.37329e-05
-0.000664401
4.01987e-05
-0.00070825
3.5293e-05
-0.00075104
2.95034e-05
-0.000797347
-0.000848259
2.29842e-05
6.54502e-06
-9.46745e-05
1.87738e-05
-0.000271917
2.9875e-05
-0.00042554
3.60639e-05
-0.000537428
3.70437e-05
-0.000611117
3.42788e-05
-0.000661636
2.93189e-05
-0.000703291
2.30957e-05
-0.000744817
1.59283e-05
-0.00079018
-0.000840145
7.81404e-06
6.22239e-06
-0.000100897
1.71479e-05
-0.000282843
2.62245e-05
-0.000434616
3.02456e-05
-0.000541449
2.93086e-05
-0.00061018
2.49572e-05
-0.000657285
1.86283e-05
-0.000696962
1.11355e-05
-0.000737324
2.75001e-06
-0.000781794
-0.000830482
-6.91268e-06
5.82683e-06
-0.000106724
1.53713e-05
-0.000292387
2.24406e-05
-0.000441686
2.43906e-05
-0.000543399
2.1651e-05
-0.00060744
1.58004e-05
-0.000651434
8.14417e-06
-0.000689305
-7.24884e-07
-0.000728455
-1.03984e-05
-0.000772121
-0.000819809
-2.10717e-05
5.36546e-06
-0.000112089
1.34729e-05
-0.000300495
1.85685e-05
-0.000446781
1.85447e-05
-0.000543376
1.41065e-05
-0.000603002
6.83107e-06
-0.000644159
-2.11532e-06
-0.000680359
-1.20874e-05
-0.000718483
-2.31852e-05
-0.000761023
-0.000807906
-3.50885e-05
4.84636e-06
-0.000116936
1.14804e-05
-0.000307129
1.46492e-05
-0.00044995
1.27456e-05
-0.000541472
6.70432e-06
-0.000596961
-1.9373e-06
-0.000635517
-1.20604e-05
-0.000670236
-2.33011e-05
-0.000707242
-3.56476e-05
-0.000748676
-0.0007947
-4.88534e-05
4.27827e-06
-0.000121214
9.42105e-06
-0.000312272
1.07186e-05
-0.000451248
7.02579e-06
-0.000537779
-5.34888e-07
-0.0005894
-1.0444e-05
-0.000625608
-2.17803e-05
-0.0006589
-3.42325e-05
-0.00069479
-4.78112e-05
-0.000735098
-0.000780196
-6.23155e-05
3.67023e-06
-0.000124884
7.32132e-06
-0.000315923
6.8073e-06
-0.000450734
1.44143e-06
-0.000532413
-7.5703e-06
-0.000580389
-1.87325e-05
-0.000614446
-3.12353e-05
-0.000646397
-4.48647e-05
-0.00068116
-5.96682e-05
-0.000720294
-0.00076441
-7.54534e-05
3.03124e-06
-0.000127915
5.20639e-06
-0.000318098
2.96013e-06
-0.000448487
-4.06274e-06
-0.00052539
-1.44225e-05
-0.000570029
-2.67771e-05
-0.000602091
-4.04121e-05
-0.000632762
-5.51894e-05
-0.000666383
-7.12029e-05
-0.000704281
-0.000747372
-8.82413e-05
2.37357e-06
-0.000130289
3.09577e-06
-0.00031882
-7.62622e-07
-0.000444629
-9.39388e-06
-0.000516759
-2.10682e-05
-0.000558354
-3.45688e-05
-0.000588591
-4.9302e-05
-0.000618029
-6.51985e-05
-0.000650486
-8.23988e-05
-0.00068708
-0.00072912
-0.000100651
1.70474e-06
-0.000131994
1.0503e-06
-0.000318166
-4.63287e-06
-0.000438946
-1.45988e-05
-0.000506793
-2.74949e-05
-0.000545458
-4.20987e-05
-0.000573987
-5.78973e-05
-0.00060223
-7.48836e-05
-0.0006335
-9.32421e-05
-0.000668722
-0.000709674
-0.000112687
1.00647e-06
-0.000133
-1.05493e-06
-0.000316104
-8.28783e-06
-0.000431713
-1.9636e-05
-0.000495445
-3.36955e-05
-0.000531399
-4.93596e-05
-0.000558323
-6.61916e-05
-0.000585398
-8.42368e-05
-0.000615455
-0.000103729
-0.00064923
-0.000689014
-0.000124389
2.57817e-07
-0.000133258
-3.24848e-06
-0.000312598
-1.18436e-05
-0.000423118
-2.44889e-05
-0.0004828
-3.96624e-05
-0.000516225
-5.63466e-05
-0.000541639
-7.41834e-05
-0.000567561
-9.32553e-05
-0.000596383
-0.000113821
-0.000628664
-0.000667143
-0.000135692
-4.52599e-07
-0.000132805
-5.31462e-06
-0.000307736
-1.52836e-05
-0.000413149
-2.91517e-05
-0.000468932
-4.53872e-05
-0.00049999
-6.30545e-05
-0.000523971
-8.18739e-05
-0.000548742
-0.000101949
-0.000576308
-0.000123421
-0.000607192
-0.000644038
-0.000146526
-1.14442e-06
-0.000131661
-7.3025e-06
-0.000301578
-1.85947e-05
-0.000401857
-3.362e-05
-0.000453906
-5.08648e-05
-0.000482745
-6.94776e-05
-0.000505359
-8.92515e-05
-0.000528968
-0.000110312
-0.000555248
-0.00013291
-0.000584594
-0.000621241
-0.000155707
-1.83535e-06
-0.000129825
-9.22054e-06
-0.000294193
-2.17694e-05
-0.000389308
-3.78889e-05
-0.000437787
-5.60925e-05
-0.000464541
-7.56124e-05
-0.000485839
-9.62951e-05
-0.000508285
-0.000118131
-0.000533412
-0.000140677
-0.000562048
-0.000594836
-0.000167082
-2.5119e-06
-0.000127314
-1.10671e-05
-0.000285638
-2.48026e-05
-0.000375572
-4.19549e-05
-0.000420634
-6.10692e-05
-0.000445427
-8.14554e-05
-0.000465453
-0.000102979
-0.000486762
-0.000125596
-0.000510795
-0.000149417
-0.000538226
-0.000568373
-0.00017588
-3.16887e-06
-0.000124145
-1.28377e-05
-0.000275969
-2.76903e-05
-0.00036072
-4.58149e-05
-0.00040251
-6.57925e-05
-0.000425449
-8.70037e-05
-0.000444241
-0.000109345
-0.000464421
-0.000132849
-0.00048729
-0.000157805
-0.000513271
-0.000541464
-0.000184714
-3.80281e-06
-0.000120342
-1.45278e-05
-0.000265244
-3.04291e-05
-0.000344818
-4.94666e-05
-0.000383472
-7.02593e-05
-0.000404657
-9.2252e-05
-0.000422249
-0.000115375
-0.000441298
-0.000139718
-0.000462947
-0.000165554
-0.000487435
-0.000513937
-0.000193081
-4.41085e-06
-0.000115931
-1.61329e-05
-0.000253522
-3.30158e-05
-0.000327935
-5.29079e-05
-0.00036358
-7.4468e-05
-0.000383097
-9.7201e-05
-0.000399516
-0.000121073
-0.000417426
-0.000146205
-0.000437815
-0.000172832
-0.000460809
-0.000485723
-0.000201046
-4.99052e-06
-0.000110941
-1.76497e-05
-0.000240863
-3.54481e-05
-0.000310137
-5.61374e-05
-0.000342891
-7.84172e-05
-0.000360817
-0.000101848
-0.000376085
-0.000126428
-0.000392847
-0.000152294
-0.000411949
-0.000179648
-0.000433454
-0.000456811
-0.00020856
-5.53961e-06
-0.000105401
-1.90748e-05
-0.000227327
-3.77236e-05
-0.000291488
-5.91539e-05
-0.000321461
-8.2106e-05
-0.000337865
-0.000106192
-0.000351999
-0.000131436
-0.000367603
-0.000157984
-0.0003854
-0.00018602
-0.000405418
-0.000427218
-0.000215614
-6.05614e-06
-9.93448e-05
-2.04059e-05
-0.000212978
-3.98409e-05
-0.000272053
-6.19565e-05
-0.000299345
-8.55336e-05
-0.000314288
-0.000110231
-0.000327301
-0.000136094
-0.000341739
-0.000163276
-0.000358219
-0.000191951
-0.000376744
-0.000396973
-0.000222195
-6.53842e-06
-9.28064e-05
-2.16406e-05
-0.000197875
-4.17984e-05
-0.000251895
-6.45446e-05
-0.000276599
-8.86991e-05
-0.000290133
-0.000113963
-0.000302038
-0.000140401
-0.000315301
-0.000168169
-0.000330451
-0.000197438
-0.000347475
-0.000366115
-0.000228296
-6.98494e-06
-8.58214e-05
-2.27772e-05
-0.000182083
-4.3595e-05
-0.000231078
-6.69177e-05
-0.000253276
-9.16021e-05
-0.000265449
-0.000117387
-0.000276253
-0.000144354
-0.000288335
-0.000172661
-0.000302143
-0.000202479
-0.000317657
-0.000334686
-0.000233908
-7.39441e-06
-7.8427e-05
-2.38142e-05
-0.000165663
-4.52301e-05
-0.000209662
-6.90754e-05
-0.000229431
-9.42421e-05
-0.000240282
-0.000120503
-0.000249992
-0.000147951
-0.000260886
-0.000176751
-0.000273344
-0.000207071
-0.000287337
-0.000302733
-0.000239024
-7.76572e-06
-7.06613e-05
-2.47504e-05
-0.000148679
-4.67028e-05
-0.000187709
-7.10176e-05
-0.000205116
-9.66188e-05
-0.000214681
-0.000123309
-0.000223302
-0.000151192
-0.000233002
-0.000180437
-0.000244099
-0.000211211
-0.000256563
-0.000270304
-0.00024364
-8.09792e-06
-6.25634e-05
-2.55847e-05
-0.000131192
-4.80128e-05
-0.000165281
-7.27441e-05
-0.000180385
-9.87319e-05
-0.000188693
-0.000125804
-0.00019623
-0.000154076
-0.00020473
-0.000183717
-0.000214458
-0.000214897
-0.000225383
-0.000237451
-0.000247751
-8.39021e-06
-5.41732e-05
-2.63163e-05
-0.000113266
-4.91596e-05
-0.000142438
-7.42548e-05
-0.000155289
-0.000100581
-0.000162367
-0.000127989
-0.000168822
-0.000156601
-0.000176118
-0.00018659
-0.00018447
-0.000218126
-0.000193847
-0.000204224
-0.000251352
-8.64191e-06
-4.55313e-05
-2.69445e-05
-9.49632e-05
-5.0143e-05
-0.000119239
-7.55496e-05
-0.000129883
-0.000102166
-0.00013575
-0.000129862
-0.000141127
-0.000158767
-0.000147213
-0.000189055
-0.000154182
-0.000220895
-0.000162006
-0.000170677
-0.000254443
-8.85246e-06
-3.66788e-05
-2.74687e-05
-7.63469e-05
-5.09628e-05
-9.57454e-05
-7.66286e-05
-0.000104217
-0.000103488
-0.000108891
-0.000131424
-0.00011319
-0.000160573
-0.000118064
-0.00019111
-0.000123645
-0.000223205
-0.000129911
-0.000136862
-0.00025702
-9.02142e-06
-2.76574e-05
-2.78886e-05
-5.74797e-05
-5.16187e-05
-7.20153e-05
-7.74918e-05
-7.83439e-05
-0.000104545
-8.18377e-05
-0.000132674
-8.50616e-05
-0.000162018
-8.87193e-05
-0.000192755
-9.29089e-05
-0.000225054
-9.76117e-05
-0.000102834
-0.000259082
-9.14843e-06
-1.85089e-05
-2.82038e-05
-3.84243e-05
-5.21108e-05
-4.81084e-05
-7.81391e-05
-5.23155e-05
-0.000105338
-5.46393e-05
-0.000133611
-5.67881e-05
-0.000163102
-5.92278e-05
-0.000193989
-6.20226e-05
-0.000226441
-6.51595e-05
-6.86454e-05
-0.000260629
-9.23325e-06
-9.27569e-06
-2.84141e-05
-1.92435e-05
-5.24388e-05
-2.40836e-05
-7.85707e-05
-2.61836e-05
-0.000105866
-2.73439e-05
-0.000134236
-2.84182e-05
-0.000163825
-2.96384e-05
-0.000194812
-3.10363e-05
-0.000227366
-3.26053e-05
-3.43497e-05
-0.000261662
-9.2757e-06
7.47939e-12
-2.85192e-05
1.58488e-11
-5.26029e-05
1.99775e-11
-7.87865e-05
2.16195e-11
-0.00010613
2.21825e-11
-0.000134549
2.24045e-11
-0.000164187
2.25653e-11
-0.000195223
2.27412e-11
-0.000227829
2.29405e-11
2.31437e-11
-0.000262178
-9.2757e-06
9.27571e-06
-2.85192e-05
1.92435e-05
-5.26029e-05
2.40837e-05
-7.87865e-05
2.61836e-05
-0.00010613
2.73439e-05
-0.000134549
2.84182e-05
-0.000164187
2.96384e-05
-0.000195223
3.10363e-05
-0.000227829
3.26053e-05
3.43497e-05
-0.000262178
-9.23325e-06
1.8509e-05
-2.84141e-05
3.84244e-05
-5.24388e-05
4.81084e-05
-7.85707e-05
5.23155e-05
-0.000105866
5.46393e-05
-0.000134236
5.67882e-05
-0.000163825
5.92279e-05
-0.000194812
6.20226e-05
-0.000227366
6.51595e-05
6.86455e-05
-0.000261662
-9.14843e-06
2.76574e-05
-2.82038e-05
5.74797e-05
-5.21108e-05
7.20154e-05
-7.81391e-05
7.83439e-05
-0.000105338
8.18378e-05
-0.000133611
8.50616e-05
-0.000163102
8.87193e-05
-0.000193989
9.29089e-05
-0.000226441
9.76117e-05
0.000102834
-0.000260629
-9.02142e-06
3.66788e-05
-2.78886e-05
7.6347e-05
-5.16187e-05
9.57455e-05
-7.74918e-05
0.000104217
-0.000104545
0.000108891
-0.000132674
0.00011319
-0.000162018
0.000118064
-0.000192755
0.000123645
-0.000225054
0.000129911
0.000136862
-0.000259082
-8.85246e-06
4.55313e-05
-2.74687e-05
9.49632e-05
-5.09628e-05
0.000119239
-7.66286e-05
0.000129883
-0.000103488
0.00013575
-0.000131424
0.000141127
-0.000160573
0.000147213
-0.00019111
0.000154182
-0.000223205
0.000162007
0.000170677
-0.00025702
-8.64191e-06
5.41732e-05
-2.69445e-05
0.000113266
-5.0143e-05
0.000142438
-7.55496e-05
0.000155289
-0.000102166
0.000162367
-0.000129862
0.000168823
-0.000158767
0.000176118
-0.000189055
0.00018447
-0.000220895
0.000193847
0.000204224
-0.000254443
-8.39021e-06
6.25634e-05
-2.63163e-05
0.000131192
-4.91596e-05
0.000165281
-7.42548e-05
0.000180385
-0.000100581
0.000188693
-0.000127989
0.00019623
-0.000156601
0.00020473
-0.00018659
0.000214458
-0.000218126
0.000225383
0.000237451
-0.000251352
-8.09792e-06
7.06613e-05
-2.55847e-05
0.000148679
-4.80128e-05
0.000187709
-7.27441e-05
0.000205116
-9.87319e-05
0.000214681
-0.000125804
0.000223302
-0.000154076
0.000233002
-0.000183717
0.000244099
-0.000214897
0.000256563
0.000270304
-0.000247751
-7.76572e-06
7.8427e-05
-2.47504e-05
0.000165663
-4.67028e-05
0.000209662
-7.10176e-05
0.000229431
-9.66188e-05
0.000240282
-0.000123309
0.000249992
-0.000151192
0.000260886
-0.000180437
0.000273344
-0.000211211
0.000287337
0.000302733
-0.00024364
-7.39441e-06
8.58215e-05
-2.38142e-05
0.000182083
-4.52301e-05
0.000231078
-6.90754e-05
0.000253276
-9.42421e-05
0.000265449
-0.000120503
0.000276253
-0.000147951
0.000288335
-0.000176751
0.000302143
-0.000207071
0.000317657
0.000334686
-0.000239024
-6.98494e-06
9.28064e-05
-2.27772e-05
0.000197875
-4.3595e-05
0.000251896
-6.69177e-05
0.000276599
-9.16021e-05
0.000290133
-0.000117387
0.000302038
-0.000144354
0.000315301
-0.000172661
0.000330451
-0.000202479
0.000347475
0.000366115
-0.000233908
-6.53842e-06
9.93448e-05
-2.16406e-05
0.000212978
-4.17984e-05
0.000272053
-6.45446e-05
0.000299345
-8.86991e-05
0.000314288
-0.000113963
0.000327301
-0.000140401
0.000341739
-0.000168169
0.000358219
-0.000197438
0.000376744
0.000396973
-0.000228296
-6.05614e-06
0.000105401
-2.04059e-05
0.000227327
-3.98409e-05
0.000291488
-6.19565e-05
0.000321461
-8.55336e-05
0.000337865
-0.000110231
0.000351999
-0.000136094
0.000367603
-0.000163276
0.0003854
-0.000191951
0.000405418
0.000427218
-0.000222195
-5.53961e-06
0.000110941
-1.90748e-05
0.000240863
-3.77236e-05
0.000310137
-5.91539e-05
0.000342891
-8.2106e-05
0.000360817
-0.000106192
0.000376085
-0.000131436
0.000392847
-0.000157984
0.000411949
-0.00018602
0.000433454
0.000456811
-0.000215614
-4.99052e-06
0.000115931
-1.76497e-05
0.000253522
-3.54481e-05
0.000327935
-5.61374e-05
0.00036358
-7.84172e-05
0.000383097
-0.000101848
0.000399516
-0.000126428
0.000417426
-0.000152294
0.000437815
-0.000179648
0.000460809
0.000485723
-0.00020856
-4.41085e-06
0.000120342
-1.61329e-05
0.000265244
-3.30158e-05
0.000344818
-5.29079e-05
0.000383472
-7.4468e-05
0.000404657
-9.7201e-05
0.000422249
-0.000121073
0.000441298
-0.000146205
0.000462947
-0.000172832
0.000487435
0.000513937
-0.000201046
-3.80281e-06
0.000124145
-1.45278e-05
0.000275969
-3.04291e-05
0.00036072
-4.94666e-05
0.00040251
-7.02593e-05
0.000425449
-9.2252e-05
0.000444242
-0.000115375
0.000464421
-0.000139718
0.00048729
-0.000165554
0.000513271
0.000541464
-0.000193081
-3.16887e-06
0.000127314
-1.28377e-05
0.000285638
-2.76903e-05
0.000375572
-4.58149e-05
0.000420634
-6.57925e-05
0.000445427
-8.70037e-05
0.000465453
-0.000109345
0.000486762
-0.000132849
0.000510795
-0.000157805
0.000538226
0.000568373
-0.000184714
-2.5119e-06
0.000129826
-1.10671e-05
0.000294193
-2.48026e-05
0.000389308
-4.19549e-05
0.000437787
-6.10692e-05
0.000464541
-8.14554e-05
0.000485839
-0.000102979
0.000508285
-0.000125596
0.000533412
-0.000149417
0.000562048
0.000594836
-0.00017588
-1.83535e-06
0.000131661
-9.22054e-06
0.000301578
-2.17694e-05
0.000401857
-3.78889e-05
0.000453906
-5.60925e-05
0.000482745
-7.56124e-05
0.000505359
-9.62951e-05
0.000528968
-0.000118131
0.000555248
-0.000140677
0.000584594
0.000621241
-0.000167082
-1.14442e-06
0.000132805
-7.3025e-06
0.000307736
-1.85947e-05
0.000413149
-3.362e-05
0.000468932
-5.08648e-05
0.00049999
-6.94776e-05
0.000523972
-8.92515e-05
0.000548742
-0.000110312
0.000576308
-0.00013291
0.000607192
0.000644038
-0.000155707
-4.52599e-07
0.000133258
-5.31462e-06
0.000312598
-1.52836e-05
0.000423118
-2.91517e-05
0.0004828
-4.53872e-05
0.000516225
-6.30545e-05
0.000541639
-8.18739e-05
0.000567561
-0.000101949
0.000596383
-0.000123421
0.000628664
0.000667143
-0.000146526
2.57817e-07
0.000133
-3.24848e-06
0.000316104
-1.18436e-05
0.000431713
-2.44889e-05
0.000495445
-3.96624e-05
0.000531399
-5.63466e-05
0.000558323
-7.41834e-05
0.000585398
-9.32553e-05
0.000615455
-0.000113821
0.00064923
0.000689014
-0.000135692
1.00647e-06
0.000131994
-1.05493e-06
0.000318166
-8.28783e-06
0.000438946
-1.9636e-05
0.000506793
-3.36955e-05
0.000545458
-4.93596e-05
0.000573987
-6.61916e-05
0.00060223
-8.42368e-05
0.0006335
-0.000103729
0.000668722
0.000709674
-0.000124389
1.70474e-06
0.000130289
1.0503e-06
0.00031882
-4.63287e-06
0.000444629
-1.45988e-05
0.000516759
-2.74949e-05
0.000558354
-4.20987e-05
0.000588591
-5.78973e-05
0.000618029
-7.48836e-05
0.000650486
-9.32421e-05
0.00068708
0.00072912
-0.000112687
2.37356e-06
0.000127915
3.09577e-06
0.000318098
-7.62622e-07
0.000448487
-9.39388e-06
0.00052539
-2.10682e-05
0.000570029
-3.45688e-05
0.000602091
-4.9302e-05
0.000632762
-6.51985e-05
0.000666383
-8.23987e-05
0.000704281
0.000747372
-0.000100651
3.03124e-06
0.000124884
5.20639e-06
0.000315923
2.96013e-06
0.000450734
-4.06275e-06
0.000532413
-1.44225e-05
0.000580389
-2.67771e-05
0.000614446
-4.04121e-05
0.000646397
-5.51894e-05
0.00068116
-7.12029e-05
0.000720294
0.00076441
-8.82413e-05
3.67023e-06
0.000121214
7.32132e-06
0.000312272
6.8073e-06
0.000451248
1.44143e-06
0.000537779
-7.5703e-06
0.0005894
-1.87325e-05
0.000625608
-3.12353e-05
0.0006589
-4.48647e-05
0.00069479
-5.96682e-05
0.000735098
0.000780196
-7.54534e-05
4.27827e-06
0.000116936
9.42105e-06
0.000307129
1.07186e-05
0.00044995
7.02579e-06
0.000541472
-5.34888e-07
0.000596961
-1.0444e-05
0.000635517
-2.17803e-05
0.000670236
-3.42325e-05
0.000707242
-4.78112e-05
0.000748676
0.0007947
-6.23155e-05
4.84636e-06
0.000112089
1.14804e-05
0.000300495
1.46492e-05
0.000446781
1.27456e-05
0.000543376
6.70433e-06
0.000603002
-1.9373e-06
0.000644159
-1.20604e-05
0.000680359
-2.33011e-05
0.000718483
-3.56476e-05
0.000761023
0.000807906
-4.88534e-05
5.36546e-06
0.000106724
1.34729e-05
0.000292387
1.85685e-05
0.000441686
1.85447e-05
0.000543399
1.41065e-05
0.00060744
6.83107e-06
0.000651434
-2.11531e-06
0.000689305
-1.20874e-05
0.000728455
-2.31852e-05
0.000772121
0.000819809
-3.50885e-05
5.82683e-06
0.000100897
1.53713e-05
0.000282843
2.24406e-05
0.000434616
2.43906e-05
0.000541449
2.1651e-05
0.00061018
1.58004e-05
0.000657285
8.14418e-06
0.000696962
-7.2488e-07
0.000737324
-1.03984e-05
0.000781794
0.000830482
-2.10717e-05
6.22239e-06
9.46745e-05
1.71479e-05
0.000271917
2.62245e-05
0.00042554
3.02456e-05
0.000537428
2.93086e-05
0.000611117
2.49572e-05
0.000661636
1.86283e-05
0.000703291
1.11355e-05
0.000744817
2.75001e-06
0.00079018
0.000840145
-6.91268e-06
6.54502e-06
8.81295e-05
1.87738e-05
0.000259689
2.9875e-05
0.000414439
3.60639e-05
0.000531239
3.70437e-05
0.000610137
3.42788e-05
0.000664401
2.93189e-05
0.000708251
2.30957e-05
0.00075104
1.59283e-05
0.000797347
0.000848259
7.81405e-06
6.78874e-06
8.13407e-05
2.02185e-05
0.000246259
3.33414e-05
0.000401316
4.17914e-05
0.000522789
4.48119e-05
0.000607117
4.37329e-05
0.00066548
4.01988e-05
0.000711785
3.5293e-05
0.000755946
2.95034e-05
0.000803137
0.000854778
2.29842e-05
6.94913e-06
7.43916e-05
2.1451e-05
0.000231757
3.65687e-05
0.000386198
4.73655e-05
0.000511993
5.25595e-05
0.000601923
5.32824e-05
0.000664757
5.12491e-05
0.000713818
4.77115e-05
0.000759483
4.32906e-05
0.000807557
0.000859878
3.81908e-05
7.02373e-06
6.73679e-05
2.24441e-05
0.000216337
3.94977e-05
0.000369144
5.27139e-05
0.000498776
6.02221e-05
0.000594414
6.28806e-05
0.000662099
6.24367e-05
0.000714262
6.0308e-05
0.000761612
5.72509e-05
0.000810615
0.000863594
5.35349e-05
7.01209e-06
6.03558e-05
2.3173e-05