/*--------------------------------*- C++ -*----------------------------------*\
  =========                 |
  \\      /  F ield         | OpenFOAM: The Open Source CFD Toolbox
   \\    /   O peration     | Website:  https://openfoam.org
    \\  /    A nd           | Version:  7
     \\/     M anipulation  |
\*---------------------------------------------------------------------------*/
FoamFile
{
    version     2.0;
    format      ascii;
    class       volVectorField;
    location    "10";
    object      U;
}
// * * * * * * * * * * * * * * * * * * * * * * * * * * * * * * * * * * * * * //

dimensions      [0 1 -1 0 0 0 0];

internalField   nonuniform List<vector> 
8500
(
(-0.00178544 0.00151741 -6.81309e-20)
(-0.00964029 0.00343042 -1.61149e-19)
(-0.0242649 0.0046092 -2.71625e-19)
(-0.0418362 0.00529239 2.70331e-19)
(-0.0611747 0.00564338 -2.49073e-19)
(-0.0814416 0.00580395 -1.33186e-19)
(-0.102168 0.00589556 2.28469e-19)
(-0.123316 0.00602238 2.84419e-19)
(-0.145102 0.00626519 -4.7148e-20)
(-0.168068 0.00671578 1.39045e-19)
(-0.00197233 0.00450653 3.59286e-20)
(-0.00993994 0.0102017 2.2679e-19)
(-0.0244267 0.0137194 -6.49717e-19)
(-0.0417158 0.0157607 5.89766e-19)
(-0.060651 0.0168081 2.61952e-20)
(-0.0803969 0.0172822 4.34707e-19)
(-0.100472 0.0175443 -7.58117e-19)
(-0.120817 0.017906 -1.11518e-18)
(-0.141605 0.0186118 -2.19755e-19)
(-0.163263 0.0199334 4.99705e-19)
(-0.00233679 0.00736094 8.2307e-20)
(-0.0105287 0.0167078 6.07009e-19)
(-0.0247508 0.0225077 1.43073e-18)
(-0.0414908 0.0258808 -1.29628e-18)
(-0.0596365 0.0276073 -2.93232e-19)
(-0.0783606 0.0283719 -2.67576e-19)
(-0.0971567 0.0287667 1.36892e-18)
(-0.115928 0.0293074 8.55324e-19)
(-0.134765 0.0304088 2.11291e-19)
(-0.153855 0.0325129 -1.54851e-18)
(-0.00286112 0.0100008 2.9182e-19)
(-0.0113863 0.0227877 -3.56275e-19)
(-0.0252383 0.0307747 -2.6657e-18)
(-0.0411906 0.0354339 2.35868e-19)
(-0.0581943 0.0378088 7.33079e-19)
(-0.0754346 0.0388249 -5.71593e-19)
(-0.0923718 0.03929 -3.04105e-20)
(-0.108854 0.0399183 -2.33976e-19)
(-0.124877 0.0413054 5.33781e-19)
(-0.140229 0.0440504 1.5459e-18)
(-0.00352104 0.0123603 2.03124e-19)
(-0.0124847 0.0283034 -1.14515e-18)
(-0.0258901 0.0383432 2.7541e-18)
(-0.0408562 0.0442203 -1.25301e-18)
(-0.0564118 0.0471973 -5.1777e-21)
(-0.0717612 0.0484097 1.73778e-18)
(-0.0863253 0.0488597 -8.00714e-19)
(-0.0998841 0.0494504 9.36939e-20)
(-0.112353 0.0509729 -3.30284e-19)
(-0.122912 0.0541699 1.17906e-19)
(-0.00428816 0.0143914 2.42662e-18)
(-0.01379 0.0331461 2.94418e-18)
(-0.0267061 0.0450656 -7.53355e-19)
(-0.0405347 0.0520666 1.43822e-18)
(-0.0543925 0.0555812 4.52354e-19)
(-0.06751 0.0569179 -6.47034e-19)
(-0.0792672 0.0572461 -2.4924e-19)
(-0.0893634 0.0576438 -1.09446e-18)
(-0.0976912 0.0591115 2.36688e-19)
(-0.102525 0.062527 -1.43463e-18)
(-0.00513274 0.016066 -2.33879e-18)
(-0.0152654 0.0372412 -1.53435e-18)
(-0.0276843 0.0508288 1.25096e-18)
(-0.0402742 0.0588312 -2.16618e-18)
(-0.0522445 0.0627985 2.47508e-19)
(-0.0628607 0.0641711 2.54767e-18)
(-0.0714646 0.0642529 -4.58797e-19)
(-0.0776579 0.0642755 -2.11542e-19)
(-0.0814281 0.0654556 1.38447e-18)
(-0.0797133 0.0688249 -3.25089e-19)
(-0.00602655 0.0173769 1.96117e-18)
(-0.0168736 0.0405498 -3.54263e-18)
(-0.0288193 0.0555581 -1.40891e-18)
(-0.0401163 0.0644092 1.65324e-18)
(-0.0500672 0.0687224 5.51128e-20)
(-0.0579815 0.0700276 -4.7793e-18)
(-0.0631703 0.0697255 1.52325e-18)
(-0.0651099 0.069169 1.01784e-18)
(-0.0640679 0.0697749 -2.74213e-18)
(-0.0551024 0.0729263 1.47738e-18)
(-0.00694538 0.0183358 -1.09619e-18)
(-0.0185791 0.0430685 5.27847e-19)
(-0.0300998 0.0592182 1.30042e-18)
(-0.0400878 0.068735 -1.16248e-18)
(-0.0479348 0.0732656 -4.08763e-18)
(-0.0530026 0.074389 1.4116e-18)
(-0.054586 0.0735613 -7.11912e-19)
(-0.0519898 0.072214 5.9071e-19)
(-0.0459284 0.0718622 4.74142e-18)
(-0.0293187 0.0750157 -2.14628e-18)
(-0.00787094 0.0189712 1.72553e-18)
(-0.0203497 0.0448255 1.56904e-18)
(-0.0315057 0.0618113 -2.25435e-19)
(-0.0401914 0.0717828 5.79144e-18)
(-0.0458786 0.0763832 2.46264e-18)
(-0.0479861 0.0772052 1.85154e-18)
(-0.0458125 0.0757203 1.24189e-18)
(-0.0384654 0.0734075 -3.4111e-18)
(-0.0269558 0.0716272 -1.5836e-18)
(-0.00259108 0.0746873 -2.62432e-18)
(-0.00879193 0.0193242 -1.61245e-19)
(-0.0221566 0.0458752 -2.47538e-18)
(-0.0330049 0.0633736 -1.7824e-18)
(-0.0403959 0.0735653 -2.85902e-18)
(-0.0438678 0.0780727 -2.26685e-18)
(-0.0428935 0.0784763 2.2869e-18)
(-0.0367771 0.0762224 -1.7424e-18)
(-0.0244913 0.0728002 1.53196e-18)
(-0.00714369 0.0692361 2.00047e-19)
(0.0260296 0.0716192 6.88611e-19)
(-0.00970396 0.0194433 -4.74736e-18)
(-0.0239736 0.0462905 2.2656e-18)
(-0.0345484 0.0639684 1.6515e-18)
(-0.0406259 0.074129 2.05837e-18)
(-0.041792 0.0783722 -2.91518e-18)
(-0.0375632 0.0782516 -1.70599e-18)
(-0.0272255 0.0751606 2.47373e-18)
(-0.00961336 0.0705377 6.89444e-19)
(0.0139569 0.0649949 1.57569e-18)
(0.0575494 0.0662449 -2.1425e-18)
(-0.0106085 0.0193797 3.97123e-18)
(-0.0257738 0.0461545 1.61161e-18)
(-0.0360651 0.0636783 9.52787e-20)
(-0.0407523 0.0735486 -9.89272e-19)
(-0.0394437 0.0773578 -6.9756e-19)
(-0.0316722 0.0766299 1.35131e-18)
(-0.0166735 0.0726997 -1.47231e-18)
(0.00693061 0.066907 -2.3163e-18)
(0.0374746 0.0591816 -4.49781e-18)
(0.0936124 0.0593672 3.26569e-18)
(-0.0115106 0.0191816 2.67904e-18)
(-0.027526 0.0455508 -4.34762e-18)
(-0.0374569 0.0625967 -3.34971e-18)
(-0.0405849 0.0719221 1.44854e-18)
(-0.036506 0.0751342 2.95696e-18)
(-0.0247241 0.0737461 3.32337e-18)
(-0.00436171 0.0690486 -1.77908e-18)
(0.0262439 0.0622921 5.21024e-18)
(0.0651101 0.052254 -1.56898e-18)
(0.136492 0.0521495 -3.83953e-18)
(-0.0124161 0.01889 -1.76366e-19)
(-0.0291886 0.0445553 2.4246e-18)
(-0.0385922 0.0608231 -1.15836e-18)
(-0.0398659 0.0693601 1.21388e-19)
(-0.032549 0.0718293 1.2402e-18)
(-0.0160463 0.069767 -3.95866e-18)
(0.0107289 0.0644603 3.52384e-18)
(0.0497509 0.0571164 -3.43581e-18)
(0.0990771 0.0448241 5.55974e-18)
(0.188582 0.0461059 2.03898e-18)
(-0.0133288 0.018535 -1.2232e-18)
(-0.0307048 0.0432335 4.70234e-18)
(-0.0393001 0.0584497 -1.1804e-18)
(-0.0382669 0.065978 1.19664e-18)
(-0.0270289 0.0675918 1.39064e-18)
(-0.00480283 0.0648872 -4.16808e-19)
(0.0298349 0.0592203 3.01373e-18)
(0.0790791 0.0518028 1.47506e-19)
(0.141946 0.0376428 -3.575e-18)
(0.251558 0.0428393 4.85927e-18)
(-0.0142454 0.018135 -2.27786e-18)
(-0.0319988 0.0416334 -4.45215e-18)
(-0.0393664 0.0555557 3.86265e-18)
(-0.0353878 0.0618969 1.93503e-18)
(-0.0192971 0.0625876 -8.98379e-18)
(0.00997748 0.0593291 7.32721e-18)
(0.0543392 0.0536475 -6.63295e-18)
(0.115904 0.0467319 9.84749e-20)
(0.196316 0.0317325 -1.51946e-18)
(0.325277 0.0436924 -4.51248e-18)
(-0.0151525 0.0176943 1.96727e-18)
(-0.0329671 0.0397793 -2.64864e-19)
(-0.0385335 0.0522094 -9.48692e-19)
(-0.0307612 0.0572391 -1.11993e-19)
(-0.00861627 0.0570008 -5.58165e-19)
(0.0293609 0.0533503 -2.33711e-18)
(0.0856764 0.0481032 1.00079e-18)
(0.161828 0.0422119 -1.57609e-18)
(0.264299 0.0286269 4.68325e-19)
(0.406844 0.0495135 1.30298e-19)
(-0.016025 0.0172036 -4.01546e-18)
(-0.0334745 0.0376749 -2.87379e-19)
(-0.0364984 0.0484679 4.37955e-19)
(-0.023861 0.0521287 1.78206e-19)
(0.00581612 0.0510372 2.94125e-18)
(0.0544539 0.0472521 -8.57392e-18)
(0.125205 0.0429972 5.78999e-18)
(0.218346 0.0385148 -4.346e-18)
(0.346857 0.0303324 3.69869e-18)
(0.491288 0.0596134 4.13116e-18)
(-0.0168201 0.0166393 -4.86454e-19)
(-0.0333559 0.0353098 2.23566e-18)
(-0.0329143 0.044378 -2.80387e-18)
(-0.0141137 0.0466934 -8.78235e-19)
(0.0248348 0.0449291 1.69307e-18)
(0.0863301 0.0413877 8.15195e-18)
(0.174022 0.038782 -1.64024e-18)
(0.286642 0.0361057 7.96959e-19)
(0.442745 0.0382206 -4.26984e-18)
(0.575567 0.0681048 1.98572e-18)
(-0.0174752 0.0159711 -1.46438e-18)
(-0.0324125 0.0326662 -1.13879e-18)
(-0.027397 0.039981 2.81095e-19)
(-0.000914688 0.0410704 1.10615e-18)
(0.049267 0.0389407 -3.27528e-18)
(0.125946 0.0361713 -1.32647e-18)
(0.23278 0.035958 -4.17828e-18)
(0.366922 0.0359607 4.32142e-18)
(0.546519 0.0505592 4.59065e-18)
(0.664517 0.0655687 -1.96104e-18)
(-0.0179154 0.015172 -6.97398e-19)
(-0.0304096 0.0297202 2.84779e-18)
(-0.0195312 0.0353203 -3.18474e-18)
(0.0163526 0.0354138 -3.71432e-19)
(0.0798883 0.0333735 -1.50243e-18)
(0.174048 0.0320818 3.27715e-18)
(0.301625 0.0350969 4.23514e-18)
(0.457807 0.0393533 -4.07199e-18)
(0.64931 0.0613928 4.36705e-18)
(0.786961 0.06527 6.21124e-19)
(-0.018056 0.0142125 -2.02335e-18)
(-0.0270877 0.0264504 -5.75838e-18)
(-0.00887843 0.0304548 5.62303e-18)
(0.0382932 0.029905 8.10106e-19)
(0.11737 0.0285692 1.18563e-18)
(0.231061 0.0296425 7.1746e-19)
(0.38007 0.0367959 3.23879e-18)
(0.556146 0.0467862 2.39366e-18)
(0.752655 0.0727246 -8.49366e-18)
(0.9022 0.0791751 -4.22956e-18)
(-0.0177951 0.0130659 2.74336e-18)
(-0.0221678 0.0228546 -6.97887e-19)
(0.00500832 0.0254702 -3.17998e-18)
(0.0654727 0.0247623 6.19096e-19)
(0.162214 0.024911 9.93438e-19)
(0.296948 0.0293876 -7.14627e-18)
(0.466763 0.0415828 3.1619e-18)
(0.65798 0.0579196 -2.15034e-18)
(0.85316 0.0863711 2.25512e-18)
(0.999993 0.0961438 -8.10414e-19)
(-0.01702 0.0117161 2.77587e-18)
(-0.0153546 0.0189566 6.29742e-18)
(0.0225704 0.02049 1.74004e-19)
(0.0983826 0.0202516 -8.70665e-19)
(0.214683 0.0228225 3.30732e-20)
(0.371093 0.031814 6.98047e-20)
(0.559363 0.0497597 -4.81121e-18)
(0.759105 0.0720726 6.13288e-19)
(0.945901 0.101851 6.08357e-18)
(1.0818 0.113387 2.81139e-18)
(-0.0156103 0.0101618 -5.66642e-21)
(-0.00634477 0.014815 -1.25942e-18)
(0.0442253 0.0156878 5.22114e-18)
(0.137397 0.0166949 1.38692e-19)
(0.274707 0.0227557 -2.27388e-18)
(0.452211 0.0373147 6.12206e-18)
(0.654723 0.061289 1.35543e-18)
(0.85542 0.0884384 9.45828e-20)
(1.02774 0.118235 -2.65341e-18)
(1.14664 0.129978 -3.54843e-18)
(-0.0134402 0.00841779 3.56181e-18)
(0.00516275 0.0105294 -9.91161e-19)
(0.0703439 0.0112941 -3.15622e-18)
(0.182725 0.0144704 2.11086e-19)
(0.341803 0.0251618 3.70123e-18)
(0.538341 0.046101 -3.70508e-18)
(0.749324 0.0757837 -2.09786e-18)
(0.943591 0.10618 -4.73693e-19)
(1.09696 0.134714 -1.53828e-18)
(1.19631 0.145291 1.7289e-18)
(-0.010381 0.00651686 -1.31053e-18)
(0.019455 0.00624546 -7.80779e-18)
(0.101222 0.00759849 8.12632e-19)
(0.234352 0.0140007 2.12113e-18)
(0.415008 0.0304383 1.38208e-18)
(0.626981 0.058143 -4.90849e-18)
(0.839822 0.0926183 4.45754e-18)
(1.02142 0.124537 -5.02446e-18)
(1.15339 0.150711 -7.59889e-19)
(1.23292 0.159244 8.71267e-19)
(-0.00630439 0.00451074 -1.44087e-18)
(0.0367904 0.00215501 2.76964e-18)
(0.137047 0.00494512 3.62006e-18)
(0.291983 0.015728 -4.44116e-18)
(0.492877 0.0388621 2.54999e-18)
(0.715373 0.0731662 3.84045e-18)
(0.923498 0.111087 1.16109e-18)
(1.08789 0.142915 3.14007e-18)
(1.19784 0.16591 2.23433e-18)
(1.25887 0.171916 -2.43229e-18)
(-0.00108688 0.00247021 -1.86619e-18)
(0.0573821 -0.00150564 -6.34411e-19)
(0.177863 0.0037204 -6.56845e-18)
(0.355002 0.0200725 -1.03259e-18)
(0.573558 0.0505325 -1.15198e-19)
(0.800856 0.0907141 3.5013e-19)
(0.998509 0.130536 -7.00091e-18)
(1.14299 0.160912 1.28306e-18)
(1.23168 0.180196 5.34993e-20)
(1.2764 0.183515 1.67417e-18)
(0.00538561 0.000484703 -4.89178e-19)
(0.0813792 -0.00446088 2.27968e-18)
(0.223539 0.0043346 3.212e-18)
(0.422459 0.027384 2.01179e-18)
(0.654963 0.0653525 -5.95948e-19)
(0.881176 0.110247 -5.00055e-19)
(1.06389 0.150434 5.35359e-18)
(1.18736 0.178298 5.11531e-19)
(1.25651 0.193597 7.75477e-19)
(1.28741 0.194279 -1.02113e-18)
(0.013211 -0.00133828 4.67677e-18)
(0.108848 -0.00640333 3.02242e-18)
(0.273739 0.00719669 -3.06654e-18)
(0.493098 0.0378942 -6.11722e-19)
(0.73499 0.0830573 3.24358e-19)
(0.954667 0.131234 -1.18386e-18)
(1.11942 0.170395 -9.36729e-19)
(1.22209 0.194977 -2.04924e-18)
(1.27391 0.206219 -3.35886e-18)
(1.2935 0.204444 1.6504e-18)
(0.0224644 -0.00287507 5.83512e-19)
(0.139755 -0.00700471 -1.65142e-18)
(0.327911 0.0126843 3.91299e-18)
(0.565443 0.0516894 2.55332e-18)
(0.811734 0.103275 8.39011e-20)
(1.02029 0.153206 1.83045e-18)
(1.16543 0.190163 -4.47882e-19)
(1.24839 0.21095 -1.66499e-18)
(1.28534 0.218212 4.21922e-18)
(1.29589 0.214217 1.12382e-18)
(0.0331913 -0.00398843 -3.86993e-18)
(0.173952 -0.00592894 -1.13958e-18)
(0.385295 0.0211126 -1.0282e-18)
(0.637915 0.068708 -1.79706e-18)
(0.88363 0.125589 4.28912e-19)
(1.07755 0.175784 1.16405e-20)
(1.20259 0.209587 1.43709e-18)
(1.26753 0.226278 -1.71033e-18)
(1.292 0.22973 -2.52996e-18)
(1.29548 0.223764 -1.70201e-18)
(0.0454012 -0.00453097 3.15563e-19)
(0.211167 -0.00284788 1.85003e-18)
(0.444951 0.0327064 8.98942e-19)
(0.708963 0.0887644 -2.81581e-18)
(0.949523 0.149588 -1.43827e-19)
(1.12643 0.198674 -1.23262e-18)
(1.23173 0.228598 3.22032e-20)
(1.28065 0.241054 5.87848e-19)
(1.29489 0.240921 -6.69439e-19)
(1.29296 0.233208 1.89752e-18)
(0.0590625 -0.00434968 7.44713e-19)
(0.251005 0.00254101 -1.81524e-18)
(0.505809 0.0475829 -4.29013e-18)
(0.777175 0.111584 3.96318e-18)
(1.00866 0.174892 -2.98966e-19)
(1.16717 0.221659 8.85749e-19)
(1.25379 0.247176 -1.28277e-19)
(1.28878 0.255379 8.77194e-19)
(1.29481 0.251906 -6.18373e-20)
(1.28877 0.24263 -1.47321e-18)
(0.0740982 -0.00329147 -1.52058e-18)
(0.292953 0.0104965 2.36864e-18)
(0.566732 0.0657459 1.95385e-18)
(0.841352 0.136838 -2.83544e-18)
(1.06064 0.201164 -4.76121e-19)
(1.20027 0.244582 1.80857e-19)
(1.26965 0.265337 1.85721e-18)
(1.29279 0.269349 9.72326e-20)
(1.29233 0.262779 3.73713e-19)
(1.28323 0.252077 -8.07845e-19)
(0.0903847 -0.0012093 1.15396e-18)
(0.336395 0.0212167 -1.03666e-18)
(0.626583 0.087093 -8.87135e-19)
(0.900547 0.164172 1.52615e-18)
(1.10534 0.22811 5.29496e-19)
(1.22629 0.26733 4.05879e-19)
(1.28014 0.283106 -1.8937e-18)
(1.29338 0.283045 -6.60022e-19)
(1.2879 0.273601 -5.98127e-19)
(1.27656 0.261563 2.65499e-19)
(0.107752 0.00203111 -3.42904e-19)
(0.380635 0.0348257 -3.23464e-19)
(0.684286 0.111429 1.68062e-18)
(0.954066 0.193227 -6.16671e-19)
(1.14286 0.255473 -2.762e-19)
(1.24585 0.289821 -1.82702e-19)
(1.28598 0.300515 4.60311e-19)
(1.29109 0.296525 8.03647e-19)
(1.28182 0.284404 -2.53943e-20)
(1.26887 0.271075 3.01868e-19)
(0.125987 0.00654446 -1.04651e-19)
(0.424928 0.0513649 4.24068e-19)
(0.738872 0.138485 -3.68838e-19)
(1.00144 0.223644 -2.3042e-19)
(1.17342 0.283029 1.82706e-19)
(1.25958 0.311988 1.28716e-19)
(1.28779 0.317584 -7.26943e-20)
(1.28637 0.309825 1.25047e-19)
(1.27431 0.295191 3.20932e-20)
(1.26024 0.280583 -9.70595e-20)
(0.144838 0.0124196 4.51489e-20)
(0.468508 0.0707898 3.48385e-19)
(0.78951 0.167934 -2.75583e-19)
(1.04241 0.255076 -2.70419e-19)
(1.19736 0.310577 1.84203e-19)
(1.26804 0.333772 1.20753e-19)
(1.2861 0.33432 -1.9229e-19)
(1.27953 0.322951 1.95405e-19)
(1.2655 0.30594 1.75459e-20)
(1.25073 0.290037 -9.35179e-20)
(0.164022 0.0197137 1.75637e-19)
(0.510621 0.0929718 -1.59585e-19)
(0.83552 0.19941 1.16616e-18)
(1.07687 0.287184 -5.2406e-19)
(1.21504 0.337932 -2.56897e-19)
(1.27176 0.355115 -2.9223e-19)
(1.28133 0.350714 6.01791e-19)
(1.27082 0.33589 4.07192e-19)
(1.25549 0.316606 3.29032e-19)
(1.24035 0.29938 1.82292e-19)
(0.183233 0.0284485 1.78319e-18)
(0.550551 0.117705 -9.78298e-19)
(0.876373 0.232519 -1.11271e-18)
(1.10483 0.319643 1.52163e-18)
(1.22688 0.364921 8.07009e-19)
(1.27122 0.375953 -5.4544e-20)
(1.27381 0.366735 -1.00815e-18)
(1.26041 0.3486 -7.3124e-19)
(1.24435 0.327125 -7.74334e-19)
(1.22914 0.308543 4.66524e-19)
(0.202155 0.0386075 -2.41513e-18)
(0.587644 0.144713 2.26726e-18)
(0.911688 0.266847 2.61901e-18)
(1.12641 0.352138 -2.59143e-18)
(1.23326 0.391377 -8.99495e-19)
(1.26682 0.396211 5.821e-19)
(1.26384 0.382334 1.06252e-18)
(1.24843 0.361022 1.69052e-19)
(1.2321 0.33741 -3.20602e-20)
(1.21712 0.317448 -6.41649e-19)
(0.220464 0.0501347 -3.49745e-19)
(0.621325 0.173663 -3.19969e-18)
(0.941216 0.301974 -3.43296e-18)
(1.14181 0.384363 3.87086e-18)
(1.23458 0.417134 -4.41134e-19)
(1.25892 0.415806 8.16633e-19)
(1.25162 0.397449 1.62683e-19)
(1.23495 0.373079 -4.58698e-19)
(1.21876 0.347363 2.4613e-19)
(1.20423 0.326 -3.40692e-20)
(0.237845 0.0629361 7.09884e-19)
(0.651108 0.204174 1.98803e-18)
(0.964826 0.337475 1.12685e-18)
(1.15126 0.416024 -8.88875e-19)
(1.23123 0.44203 -1.3927e-18)
(1.24784 0.434645 -1.30222e-18)
(1.23733 0.411999 -2.64995e-19)
(1.22006 0.38469 7.10291e-19)
(1.20432 0.356895 -1.49369e-19)
(1.19036 0.334108 3.53722e-19)
(0.253998 0.0768814 -2.69624e-18)
(0.676604 0.235831 -2.50685e-18)
(0.982488 0.372929 -4.01432e-19)
(1.15504 0.446835 -4.51969e-19)
(1.22354 0.465899 -1.03104e-18)
(1.23384 0.452618 6.32789e-19)
(1.22112 0.425891 -1.14603e-19)
(1.20381 0.395772 -1.1353e-18)
(1.18881 0.365976 -1.98959e-19)
(1.17534 0.341735 -1.56238e-18)
(0.268646 0.0918082 6.35338e-19)
(0.697521 0.268194 2.1305e-18)
(0.994258 0.407921 1.85988e-18)
(1.15345 0.476522 2.02611e-18)
(1.21186 0.488576 3.75495e-20)
(1.21717 0.469611 1.78417e-18)
(1.20312 0.439012 -1.09548e-18)
(1.18627 0.406215 5.99565e-19)
(1.17229 0.37461 1.31876e-18)
(1.15931 0.348901 7.59651e-19)
(0.281541 0.107525 1.75114e-18)
(0.713669 0.30081 3.91039e-18)
(1.00026 0.442046 -5.1708e-19)
(1.14681 0.504821 -2.55518e-18)
(1.19651 0.509895 1.15429e-18)
(1.19804 0.485501 -1.20548e-18)
(1.18342 0.451248 -9.66329e-19)
(1.16745 0.415869 -7.33797e-19)
(1.15475 0.382663 -1.28331e-18)
(1.14268 0.355378 5.06639e-19)
(0.292475 0.123818 8.2686e-19)
(0.724946 0.333229 6.1783e-19)
(1.00069 0.474915 4.90715e-18)
(1.13545 0.531475 9.23701e-19)
(1.17778 0.529694 -8.07024e-19)
(1.17663 0.500162 -4.14665e-19)
(1.16215 0.462493 2.61067e-18)
(1.14752 0.424669 -9.77002e-20)
(1.13613 0.389906 1.03542e-18)
(1.12546 0.361187 -1.42614e-19)
(0.301277 0.140454 1.75007e-19)
(0.731333 0.365005 -4.00964e-18)
(0.995781 0.506159 -5.77614e-18)
(1.11971 0.556243 1.83446e-19)
(1.15595 0.54781 1.14359e-18)
(1.15314 0.513458 -1.58294e-18)
(1.13948 0.472596 -3.87244e-18)
(1.12649 0.432526 1.15312e-18)
(1.11653 0.396266 -6.6513e-20)
(1.10757 0.366133 5.49245e-19)
(0.307819 0.15719 -1.43756e-18)
(0.732887 0.395706 3.62911e-18)
(0.985821 0.535426 3.47752e-18)
(1.09993 0.578897 -1.19257e-18)
(1.13132 0.56408 -1.1962e-18)
(1.12779 0.525245 3.83429e-18)
(1.11547 0.481447 -8.58715e-19)
(1.10436 0.439312 1.4585e-18)
(1.09607 0.401647 6.61305e-19)
(1.08901 0.370154 -4.94316e-19)
(0.312019 0.173775 -3.24319e-18)
(0.729739 0.424921 -5.7147e-18)
(0.971153 0.562399 -1.12353e-18)
(1.07646 0.599222 2.2963e-18)
(1.10412 0.57834 1.32236e-18)
(1.10073 0.535386 -3.41635e-18)
(1.09023 0.488919 2.41273e-18)
(1.08125 0.444922 -1.6392e-18)
(1.0748 0.405948 -2.83469e-19)
(1.06984 0.373164 2.36852e-20)
(0.313837 0.189961 2.47363e-18)
(0.7221 0.452256 1.71664e-19)
(0.952151 0.586798 -5.52813e-19)
(1.04956 0.616989 -2.29726e-18)
(1.07465 0.590445 1.4954e-18)
(1.07215 0.543742 -5.62586e-19)
(1.06388 0.494899 -1.10076e-18)
(1.05725 0.44925 2.05355e-19)
(1.05279 0.409072 -2.55665e-19)
(1.05012 0.375088 1.49112e-19)
(0.313293 0.205501 1.91741e-19)
(0.710255 0.47735 -9.52317e-19)
(0.92911 0.608371 2.43006e-18)
(1.01954 0.632014 1.13033e-18)
(1.04319 0.600214 -1.5457e-18)
(1.04222 0.550197 2.19134e-18)
(1.03655 0.499278 1.59691e-19)
(1.03247 0.452201 1.82811e-19)
(1.03013 0.410921 -2.72124e-20)
(1.02992 0.375836 4.98009e-21)
(0.310452 0.22015 1.94005e-18)
(0.694513 0.499915 3.39872e-18)
(0.902173 0.626761 -2.33797e-19)
(0.986904 0.644206 -5.32781e-19)
(1.01003 0.607511 -6.3085e-19)
(1.01115 0.55463 -3.11701e-19)
(1.00839 0.501956 1.72404e-19)
(1.007 0.453689 1.60374e-19)
(1.00687 0.411401 6.27863e-20)
(1.00929 0.375314 -2.05599e-19)
(0.305394 0.233635 3.67339e-19)
(0.675073 0.519748 5.92829e-19)
(0.87179 0.641765 -3.17509e-18)
(0.952089 0.65331 1.41546e-18)
(0.975412 0.61228 3.94783e-19)
(0.979112 0.556948 -8.84099e-19)
(0.979543 0.502844 3.03116e-19)
(0.980964 0.453642 1.04831e-19)
(0.983115 0.410433 -2.8282e-19)
(0.988373 0.373433 2.82415e-19)
(0.298174 0.24567 -1.67501e-18)
(0.652153 0.536457 -1.22002e-18)
(0.838642 0.653365 1.02845e-18)
(0.915388 0.659186 2.77565e-19)
(0.939606 0.614403 -5.51864e-19)
(0.946311 0.55706 5.11634e-19)
(0.950137 0.501862 1.76653e-19)
(0.954444 0.451987 -5.67416e-19)
(0.959065 0.407954 1.6291e-18)
(0.96762 0.370157 6.89953e-19)
(0.288922 0.25604 -1.29239e-18)
(0.626125 0.549685 3.24558e-18)
(0.803133 0.661352 -2.08066e-18)
(0.877126 0.661789 -2.95388e-19)
(0.902872 0.6138 -3.70063e-19)
(0.912935 0.554892 2.45569e-20)
(0.920301 0.498939 -5.8528e-19)
(0.927576 0.448633 3.15553e-19)
(0.935086 0.403866 7.83206e-22)
(0.947491 0.365635 -2.84675e-19)
(0.277862 0.264641 -9.58638e-20)
(0.597475 0.559293 -9.62931e-19)
(0.765633 0.665544 5.38795e-19)
(0.837646 0.661046 -3.02152e-19)
(0.865473 0.610403 3.34747e-19)
(0.879174 0.550389 3.94545e-19)
(0.890173 0.49403 1.18368e-18)
(0.900576 0.443518 -9.26299e-19)
(0.911618 0.397979 -1.78243e-18)
(0.927582 0.359767 8.02039e-19)
(0.265175 0.27134 6.50222e-21)
(0.566633 0.565156 -1.6981e-19)
(0.72655 0.665823 7.96349e-20)
(0.797294 0.6569 4.09538e-19)
(0.827674 0.604167 -8.88427e-19)
(0.845225 0.543511 -1.59342e-18)
(0.85994 0.487107 -4.66039e-19)
(0.873743 0.436704 -1.59602e-19)
(0.888946 0.390439 2.47694e-18)
(0.905996 0.349185 -5.22183e-19)
(0.251056 0.275993 -1.24854e-19)
(0.534028 0.567167 -4.09587e-19)
(0.686307 0.662126 8.9412e-20)
(0.756418 0.649312 8.91849e-20)
(0.78974 0.595063 -7.26815e-19)
(0.811298 0.534222 3.11002e-18)
(0.829842 0.478115 -2.21887e-18)
(0.847297 0.428154 2.66568e-18)
(0.866171 0.382599 -1.87198e-18)
(0.883672 0.342621 -2.51213e-18)
(0.235734 0.278488 -2.14317e-20)
(0.500087 0.565253 -1.38786e-19)
(0.64532 0.65443 6.45858e-20)
(0.715358 0.638272 1.13213e-18)
(0.751932 0.58308 -4.99956e-19)
(0.777611 0.522501 7.594e-19)
(0.800066 0.467012 1.29459e-18)
(0.821191 0.417664 -6.83542e-19)
(0.843186 0.372645 -1.83613e-18)
(0.861921 0.332962 2.53321e-18)
(0.219451 0.278745 8.98522e-19)
(0.46523 0.559375 1.1733e-18)
(0.604002 0.642743 -1.16086e-18)
(0.674451 0.623795 -1.02244e-18)
(0.714513 0.568227 3.75106e-18)
(0.744379 0.508355 -3.83402e-18)
(0.770769 0.453826 4.63179e-18)
(0.795493 0.40541 -1.15701e-18)
(0.820368 0.361392 1.24384e-18)
(0.840874 0.32276 2.35093e-18)
(0.202457 0.276712 2.09769e-18)
(0.429876 0.549532 -1.1749e-18)
(0.562756 0.627103 -7.5846e-19)
(0.634025 0.605921 -4.0335e-19)
(0.67774 0.550535 4.96235e-19)
(0.711813 0.491801 -1.02495e-18)
(0.74211 0.438565 -1.38274e-18)
(0.770322 0.391348 -3.0462e-18)
(0.797941 0.348555 3.02949e-18)
(0.820514 0.311163 -9.7339e-19)
(0.185004 0.272363 6.93242e-19)
(0.394437 0.535758 -2.93567e-19)
(0.521973 0.60758 -1.06786e-18)
(0.594399 0.584716 1.35474e-18)
(0.641867 0.530054 -2.42524e-18)
(0.680118 0.472883 6.54993e-18)
(0.714253 0.421273 -3.49826e-18)
(0.745841 0.375551 3.17542e-18)
(0.776132 0.334265 -5.8275e-18)
(0.800927 0.298303 -1.55269e-18)
(0.167345 0.265702 -7.02598e-19)
(0.359315 0.518125 2.44992e-18)
(0.482033 0.584272 5.65723e-19)
(0.555881 0.560267 -1.26829e-18)
(0.60714 0.506856 -2.19546e-18)
(0.649495 0.451655 -1.65599e-18)
(0.687363 0.401996 1.10881e-18)
(0.722202 0.358054 -2.86954e-18)
(0.755087 0.318516 1.40551e-18)
(0.782173 0.284137 1.89946e-19)
(0.149729 0.256759 -4.06043e-18)
(0.324901 0.496737 -9.92271e-19)
(0.443299 0.557304 -2.78662e-19)
(0.518768 0.532687 3.48052e-18)
(0.573796 0.481031 -3.29571e-18)
(0.620139 0.428194 7.7278e-19)
(0.661605 0.380803 -4.07597e-19)
(0.69956 0.338915 2.80879e-18)
(0.734946 0.301354 8.59426e-19)
(0.764337 0.268704 -1.77941e-18)
(0.132399 0.245588 3.61885e-18)
(0.291567 0.471733 -2.05983e-18)
(0.406116 0.52683 9.67962e-20)
(0.483342 0.50211 -3.16987e-18)
(0.542062 0.452688 3.87721e-18)
(0.592238 0.402591 -1.72287e-18)
(0.63714 0.35777 1.03217e-18)
(0.678056 0.3182 7.57103e-20)
(0.715834 0.282825 -3.48415e-19)
(0.747501 0.252052 -1.08039e-18)
(0.115592 0.23227 -1.46964e-18)
(0.25967 0.443282 4.28052e-18)
(0.370812 0.493029 2.41573e-18)
(0.449869 0.468692 3.96891e-18)
(0.512155 0.421958 -9.17362e-19)
(0.565972 0.374952 3.70536e-19)
(0.614122 0.33299 2.85182e-18)
(0.657828 0.295986 -2.89185e-18)
(0.697867 0.262991 6.4525e-20)
(0.731748 0.234246 -1.29258e-18)
(0.0995309 0.216908 -3.41329e-18)
(0.229544 0.411582 -2.4807e-19)
(0.337693 0.456104 -1.42342e-18)
(0.418599 0.432607 -6.40281e-18)
(0.484277 0.388983 -6.19656e-18)
(0.541512 0.345401 1.03324e-18)
(0.592698 0.306569 -3.46766e-18)
(0.639001 0.27236 6.11472e-18)
(0.681155 0.241926 8.85686e-19)
(0.717157 0.215359 1.85541e-18)
(0.0844281 0.199627 5.03248e-18)
(0.201499 0.376858 -4.116e-18)
(0.307042 0.416282 -2.09305e-18)
(0.389765 0.39405 3.70361e-18)
(0.458618 0.353927 4.22258e-18)
(0.519017 0.314074 -1.40416e-18)
(0.573002 0.278622 1.69838e-18)
(0.621696 0.247421 -2.226e-18)
(0.6658 0.219715 -2.86842e-18)
(0.7038 0.195473 1.10006e-18)
(0.0704794 0.180572 -2.86614e-18)
(0.175821 0.33936 1.20578e-18)
(0.27912 0.373809 4.44174e-18)
(0.363579 0.353232 -1.9992e-18)
(0.435352 0.316965 1.60232e-19)
(0.498633 0.281121 5.65343e-18)
(0.555162 0.249278 -5.47885e-19)
(0.606021 0.221278 -4.40035e-18)
(0.651898 0.196454 5.0382e-18)
(0.691748 0.174679 -1.85856e-18)
(0.057864 0.159907 3.98349e-18)
(0.15277 0.29936 4.42897e-19)
(0.254161 0.328951 2.90222e-19)
(0.340233 0.310381 4.06461e-18)
(0.414637 0.278288 -5.40519e-19)
(0.480495 0.246703 -3.54952e-18)
(0.539291 0.218675 1.7393e-18)
(0.592076 0.194049 3.19243e-19)
(0.639535 0.172245 -2.09489e-18)
(0.681061 0.153071 3.66266e-19)
(0.0467422 0.137813 -2.48354e-18)
(0.132574 0.25715 -4.77382e-18)
(0.232373 0.281991 1.10499e-18)
(0.319898 0.265739 -2.16396e-18)
(0.396613 0.2381 -1.30614e-18)
(0.46472 0.210993 3.17034e-18)
(0.525492 0.186962 -7.67075e-19)
(0.579951 0.165863 7.07216e-19)
(0.628788 0.1472 -8.61443e-19)
(0.671795 0.130749 1.72362e-18)
(0.0372541 0.114485 9.01949e-19)
(0.115434 0.21304 3.21848e-18)
(0.213937 0.233226 -4.47419e-18)
(0.302722 0.219558 2.11506e-18)
(0.381403 0.196613 -9.64863e-19)
(0.451412 0.174173 -2.71688e-18)
(0.513854 0.154296 2.21964e-18)
(0.569725 0.136852 4.64801e-19)
(0.619726 0.121436 -7.16806e-20)
(0.663999 0.107817 -2.00198e-18)
(0.0295185 0.090129 2.961e-19)
(0.101517 0.167355 1.03952e-18)
(0.199003 0.182968 4.05233e-18)
(0.28883 0.172105 -7.78425e-19)
(0.369109 0.154051 -6.13895e-19)
(0.44066 0.136435 2.26739e-19)
(0.504451 0.120839 1.01526e-19)
(0.561462 0.107159 8.28898e-19)
(0.612405 0.0950761 -1.08956e-18)
(0.657713 0.0843833 -6.98036e-19)
(0.0236315 0.0649633 -7.39143e-19)
(0.0909598 0.120432 -1.26503e-18)
(0.187695 0.131536 -3.15425e-18)
(0.278322 0.123652 1.58805e-18)
(0.359816 0.110645 1.29545e-18)
(0.432533 0.0979736 5.50228e-20)
(0.497345 0.086761 -2.16795e-18)
(0.555217 0.076929 -9.63315e-19)
(0.606873 0.0682488 7.62781e-19)
(0.65297 0.0605565 8.22536e-19)
(0.019666 0.0392133 -1.39358e-19)
(0.0838643 0.0726177 -1.52286e-19)
(0.180105 0.0792608 5.98671e-19)
(0.271274 0.07448 -4.05687e-19)
(0.353585 0.0666312 -3.58321e-19)
(0.427085 0.0589931 -2.43021e-19)
(0.492581 0.0522362 4.46338e-19)
(0.551032 0.0463128 1.7009e-18)
(0.603165 0.0410848 2.46304e-19)
(0.649794 0.0364474 -4.3951e-19)
(0.017671 0.0131104 -1.638e-20)
(0.0802993 0.0242658 4.0894e-19)
(0.176294 0.0264769 3.14017e-19)
(0.267738 0.0248749 -2.45117e-19)
(0.350458 0.0222511 3.18175e-19)
(0.424352 0.0196992 1.23498e-19)
(0.490192 0.0174421 7.17363e-21)
(0.548932 0.0154635 -5.57391e-19)
(0.601305 0.0137176 1.45499e-19)
(0.648201 0.0121681 -3.40067e-19)
(0.017671 -0.0131105 9.17112e-20)
(0.0802993 -0.0242658 3.06989e-19)
(0.176294 -0.026477 3.32898e-19)
(0.267738 -0.024875 -1.9792e-19)
(0.350458 -0.0222512 3.26056e-19)
(0.424352 -0.0196993 -4.88785e-21)
(0.490192 -0.0174421 1.3359e-19)
(0.548932 -0.0154636 -6.20568e-19)
(0.601305 -0.0137176 1.27795e-19)
(0.648201 -0.0121682 -2.94629e-19)
(0.019666 -0.0392133 -7.21824e-20)
(0.0838643 -0.0726178 -4.27851e-19)
(0.180105 -0.0792609 1.16859e-18)
(0.271274 -0.0744801 -1.02623e-18)
(0.353585 -0.0666313 -4.84366e-20)
(0.427085 -0.0589932 -6.82786e-19)
(0.492581 -0.0522363 1.10995e-18)
(0.551032 -0.0463128 1.50949e-18)
(0.603165 -0.0410849 2.69825e-19)
(0.649794 -0.0364475 -5.84885e-19)
(0.0236315 -0.0649633 -1.4992e-19)
(0.0909598 -0.120432 -1.10311e-18)
(0.187695 -0.131536 -2.56474e-18)
(0.278322 -0.123652 2.22017e-18)
(0.359816 -0.110645 4.58157e-19)
(0.432533 -0.0979737 4.05312e-19)
(0.497345 -0.086761 -1.99706e-18)
(0.555217 -0.0769291 -1.17739e-18)
(0.606873 -0.0682489 -2.61673e-19)
(0.65297 -0.0605565 1.80661e-18)
(0.0295185 -0.090129 -5.28701e-19)
(0.101517 -0.167355 6.63744e-19)
(0.199003 -0.182968 4.65047e-18)
(0.28883 -0.172105 -4.17439e-19)
(0.369109 -0.154051 -1.19454e-18)
(0.44066 -0.136435 8.57768e-19)
(0.504451 -0.120839 5.86196e-20)
(0.561462 -0.107159 3.025e-19)
(0.612405 -0.0950762 -6.62003e-19)
(0.657713 -0.0843834 -1.76082e-18)
(0.0372541 -0.114485 -3.57483e-19)
(0.115434 -0.21304 1.94071e-18)
(0.213937 -0.233226 -4.68182e-18)
(0.302722 -0.219558 2.02942e-18)
(0.381403 -0.196613 1.90561e-20)
(0.451412 -0.174173 -2.57439e-18)
(0.513854 -0.154296 1.1373e-18)
(0.569725 -0.136852 -1.05596e-19)
(0.619726 -0.121436 4.31962e-19)
(0.663999 -0.107817 -1.31735e-19)
(0.0467422 -0.137814 -4.09212e-18)
(0.132574 -0.25715 -4.88529e-18)
(0.232373 -0.281991 1.27938e-18)
(0.319898 -0.265739 -2.32439e-18)
(0.396613 -0.2381 -6.58024e-19)
(0.46472 -0.210993 9.80897e-19)
(0.525492 -0.186963 3.64254e-19)
(0.579951 -0.165863 1.35242e-18)
(0.628788 -0.1472 -2.91538e-19)
(0.671795 -0.130749 1.5762e-18)
(0.057864 -0.159907 3.91399e-18)
(0.15277 -0.29936 2.51146e-18)
(0.254161 -0.328951 -1.90233e-18)
(0.340233 -0.310382 3.20122e-18)
(0.414637 -0.278288 -2.74186e-19)
(0.480495 -0.246703 -3.4623e-18)
(0.539291 -0.218675 6.07544e-19)
(0.592076 -0.194049 2.41057e-19)
(0.639535 -0.172245 -1.50568e-18)
(0.681061 -0.153071 3.6767e-19)
(0.0704795 -0.180572 -2.91182e-18)
(0.175821 -0.33936 5.20721e-18)
(0.27912 -0.373809 2.03935e-18)
(0.363579 -0.353232 -2.5231e-18)
(0.435352 -0.316965 2.12267e-20)
(0.498633 -0.281121 6.38162e-18)
(0.555162 -0.249278 -1.9381e-18)
(0.606021 -0.221278 -1.2537e-18)
(0.651898 -0.196454 3.01565e-18)
(0.691748 -0.174679 -1.53826e-18)
(0.0844281 -0.199627 1.63295e-18)
(0.201499 -0.376858 -7.79966e-19)
(0.307042 -0.416282 -1.85006e-18)
(0.389765 -0.39405 1.3933e-18)
(0.458618 -0.353927 5.35094e-18)
(0.519017 -0.314074 -1.88049e-18)
(0.573002 -0.278622 8.4655e-19)