/*--------------------------------*- C++ -*----------------------------------*\
  =========                 |
  \\      /  F ield         | OpenFOAM: The Open Source CFD Toolbox
   \\    /   O peration     | Website:  https://openfoam.org
    \\  /    A nd           | Version:  7
     \\/     M anipulation  |
\*---------------------------------------------------------------------------*/
FoamFile
{
    version     2.0;
    format      ascii;
    class       surfaceScalarField;
    location    "25.0008";
    object      phi;
}
// * * * * * * * * * * * * * * * * * * * * * * * * * * * * * * * * * * * * * //

dimensions      [0 3 -1 0 0 0 0];

internalField   nonuniform List<scalar> 
37105
(
-1.07594e-05
1.01915e-05
5.67898e-07
-2.51961e-05
1.36727e-05
7.63983e-07
-4.01932e-05
1.41831e-05
8.14073e-07
-5.58926e-05
1.48316e-05
8.67812e-07
-7.24136e-05
1.56023e-05
9.18643e-07
-8.98392e-05
1.64623e-05
9.63292e-07
-0.000108237
1.73993e-05
9.98843e-07
-0.000127647
1.83869e-05
1.02247e-06
-0.000148095
1.94161e-05
1.03253e-06
-0.000169597
2.04732e-05
1.02796e-06
-0.000192158
2.15531e-05
1.00844e-06
-0.000215762
2.26308e-05
9.73123e-07
-0.00024036
2.3676e-05
9.21519e-07
-0.000265886
2.46709e-05
8.55218e-07
2.56755e-05
7.79786e-07
-0.000292341
-1.06015e-05
2.0793e-05
-2.48848e-05
2.7956e-05
-3.97306e-05
2.90288e-05
-5.52615e-05
3.03625e-05
-7.15916e-05
3.19324e-05
-8.87959e-05
3.36667e-05
-0.000106934
3.55374e-05
-0.000126035
3.7488e-05
-0.000146116
3.94972e-05
-0.000167178
4.15346e-05
-0.000189214
4.35896e-05
-0.000212199
4.56153e-05
-0.000236079
4.75566e-05
-0.000260787
4.93788e-05
5.11966e-05
-0.000286308
-1.02833e-05
3.10763e-05
-2.4258e-05
4.19307e-05
-3.88e-05
4.35708e-05
-5.39938e-05
4.55564e-05
-6.99437e-05
4.78823e-05
-8.67095e-05
5.04324e-05
-0.000104335
5.31625e-05
-0.000122831
5.59844e-05
-0.000142196
5.88624e-05
-0.000162408
6.17467e-05
-0.00018344
6.46214e-05
-0.00020525
6.74251e-05
-0.000227784
7.00908e-05
-0.000250971
7.25659e-05
7.49826e-05
-0.000274757
-9.81076e-06
4.0887e-05
-2.33272e-05
5.54472e-05
-3.74195e-05
5.76631e-05
-5.21184e-05
6.02552e-05
-6.75138e-05
6.32778e-05
-8.36444e-05
6.65631e-05
-0.000100533
7.00507e-05
-0.000118169
7.36203e-05
-0.000136526
7.722e-05
-0.000155558
8.07783e-05
-0.000175212
8.42754e-05
-0.000195433
8.7646e-05
-0.000216168
9.08265e-05
-0.00023735
9.37472e-05
9.65186e-05
-0.000258886
-9.19419e-06
5.00812e-05
-2.21087e-05
6.83617e-05
-3.56144e-05
7.11687e-05
-4.96751e-05
7.43159e-05
-6.43619e-05
7.79645e-05
-7.96884e-05
8.18896e-05
-9.56533e-05
8.60156e-05
-0.000112223
9.01904e-05
-0.000129349
9.4346e-05
-0.00014696
9.8389e-05
-0.000164984
0.000102299
-0.000183354
0.000106017
-0.000202027
0.000109499
-0.000220946
0.000112666
0.000115578
-0.000240005
-8.46001e-06
5.85412e-05
-2.0622e-05
8.05237e-05
-3.34148e-05
8.39616e-05
-4.67124e-05
8.76135e-05
-6.05597e-05
9.18119e-05
-7.49439e-05
9.62738e-05
-8.98392e-05
0.000100911
-0.000105191
0.000105542
-0.000120929
0.000110085
-0.000136966
0.000114426
-0.000153216
0.000118548
-0.000169609
0.00012241
-0.000186114
0.000126004
-0.0002027
0.000129253
0.000132156
-0.000219278
-7.59643e-06
6.61377e-05
-1.88786e-05
9.18059e-05
-3.08535e-05
9.59364e-05
-4.32838e-05
0.000100044
-5.61856e-05
0.000104714
-6.95201e-05
0.000109608
-8.32389e-05
0.00011463
-9.72682e-05
0.000119571
-0.000111524
0.000124341
-0.000125909
0.000128811
-0.00014033
0.000132969
-0.00015472
0.0001368
-0.000169066
0.00014035
-0.000183374
0.00014356
0.000146372
-0.00019759
-6.59291e-06
7.27306e-05
-1.68913e-05
0.000102104
-2.79647e-05
0.00010701
-3.94453e-05
0.000111524
-5.13197e-05
0.000116588
-6.35267e-05
0.000121815
-7.59978e-05
0.000127101
-8.86444e-05
0.000132218
-0.000101373
0.00013707
-0.000114083
0.000141521
-0.000126684
0.00014557
-0.000139115
0.000149231
-0.000151378
0.000152613
-0.000163519
0.000155702
0.000158389
-0.000175536
-5.46854e-06
7.81991e-05
-1.468e-05
0.000111316
-2.47842e-05
0.000117114
-3.52531e-05
0.000121993
-4.60406e-05
0.000127376
-5.70686e-05
0.000132843
-6.8252e-05
0.000138284
-7.94901e-05
0.000143456
-9.0685e-05
0.000148265
-0.000101738
0.000152574
-0.000112567
0.000156398
-0.000123117
0.000159781
-0.000133402
0.000162897
-0.000143501
0.000165801
0.00016835
-0.000153461
-4.2358e-06
8.24349e-05
-1.22672e-05
0.000119347
-2.13506e-05
0.000126197
-3.07618e-05
0.000131404
-4.04228e-05
0.000137037
-5.02433e-05
0.000142664
-6.01238e-05
0.000148165
-6.99548e-05
0.000153287
-7.96362e-05
0.000157946
-8.9076e-05
0.000162014
-9.82013e-05
0.000165524
-0.000106965
0.000168545
-0.000115379
0.000171311
-0.000123538
0.00017396
0.00017635
-0.000131538
-2.90132e-06
8.53362e-05
-9.67741e-06
0.000126123
-1.77008e-05
0.000134221
-2.60228e-05
0.000139727
-3.4535e-05
0.000145549
-4.31384e-05
0.000151267
-5.17208e-05
0.000156747
-6.01661e-05
0.000161732
-6.83726e-05
0.000166153
-7.62547e-05
0.000169896
-8.37514e-05
0.00017302
-9.08215e-05
0.000175615
-9.74627e-05
0.000177953
-0.000103753
0.00018025
0.000182439
-0.000109842
-1.45923e-06
8.67955e-05
-6.9457e-06
0.00013161
-1.38723e-05
0.000141147
-2.10828e-05
0.000146937
-2.84397e-05
0.000152906
-3.58321e-05
0.00015866
-4.31356e-05
0.000164051
-5.02298e-05
0.000168826
-5.70116e-05
0.000172935
-6.33984e-05
0.000176283
-6.93385e-05
0.00017896
-7.47994e-05
0.000181076
-7.97559e-05
0.000182909
-8.42269e-05
0.000184721
0.000186622
-8.84099e-05
1.34479e-07
8.6661e-05
-4.11366e-06
0.000135858
-9.89098e-06
0.000146925
-1.59839e-05
0.00015303
-2.21939e-05
0.000159116
-2.83923e-05
0.000164858
-3.44461e-05
0.000170104
-4.02333e-05
0.000174614
-4.56465e-05
0.000178348
-5.0602e-05
0.000181238
-5.50502e-05
0.000183408
-5.89686e-05
0.000184994
-6.2323e-05
0.000186263
-6.50243e-05
0.000187423
0.000188834
-6.72368e-05
1.48829e-06
8.51727e-05
-1.23238e-06
0.000138579
-5.78846e-06
0.000151481
-1.07669e-05
0.000158008
-1.58488e-05
0.000164198
-2.08789e-05
0.000169888
-2.57186e-05
0.000174944
-3.02479e-05
0.000179143
-3.43501e-05
0.00018245
-3.79385e-05
0.000184827
-4.09549e-05
0.000186425
-4.33765e-05
0.000187416
-4.51994e-05
0.000188086
-4.62596e-05
0.000188483
0.000188769
-4.61946e-05
2.97359e-06
8.21991e-05
1.78316e-06
0.000139769
-1.61367e-06
0.000154878
-5.47321e-06
0.000161868
-9.45237e-06
0.000168177
-1.33438e-05
0.000173779
-1.7008e-05
0.000178608
-2.03335e-05
0.000182468
-2.31804e-05
0.000185297
-2.54631e-05
0.000187109
-2.71078e-05
0.00018807
-2.80636e-05
0.000188372
-2.83463e-05
0.000188369
-2.79126e-05
0.000188049
0.000186679
-2.58221e-05
4.48971e-06
7.77094e-05
4.87046e-06
0.000139388
2.68526e-06
0.000157063
-1.82732e-07
0.000164736
-3.05394e-06
0.000171048
-5.83792e-06
0.000176563
-8.36844e-06
0.000181139
-1.05422e-05
0.000184642
-1.21857e-05
0.00018694
-1.32187e-05
0.000188142
-1.35502e-05
0.000188401
-1.30899e-05
0.000187911
-1.17918e-05
0.000187071
-9.70369e-06
0.000185961
0.000183325
-6.34998e-06
5.97762e-06
7.17318e-05
7.9657e-06
0.0001374
7.03816e-06
0.00015799
5.27379e-06
0.0001665
3.37803e-06
0.000172944
1.60283e-06
0.000178339
7.53567e-08
0.000182666
-9.42758e-07
0.00018566
-1.4358e-06
0.000187433
-1.26113e-06
0.000187968
-3.18564e-07
0.000187459
1.49443e-06
0.000186098
4.24898e-06
0.000184316
8.05486e-06
0.000182155
0.000178411
1.29686e-05
7.37906e-06
6.43527e-05
1.10162e-05
0.000133763
1.13698e-05
0.000157637
1.06566e-05
0.000167214
9.79059e-06
0.00017381
9.04885e-06
0.00017908
8.60759e-06
0.000183108
8.58979e-06
0.000185678
9.17326e-06
0.00018685
1.04769e-05
0.000186664
1.26076e-05
0.000185328
1.5742e-05
0.000182964
1.99914e-05
0.000180067
2.51051e-05
0.000177041
0.000171605
3.19115e-05
8.61623e-06
5.57365e-05
1.39399e-05
0.000128439
1.56414e-05
0.000155935
1.59859e-05
0.000166869
1.60975e-05
0.000173698
1.63299e-05
0.000178848
1.68674e-05
0.00018257
1.78643e-05
0.000184681
1.94857e-05
0.000185228
2.18832e-05
0.000184267
2.5162e-05
0.000182049
2.95195e-05
0.000178607
3.52675e-05
0.000174319
4.18114e-05
0.000170497
0.000163185
5.02318e-05
9.5774e-06
4.61591e-05
1.66332e-05
0.000121384
1.97901e-05
0.000152778
2.12228e-05
0.000165436
2.22791e-05
0.000172642
2.34392e-05
0.000177688
2.49168e-05
0.000181093
2.68749e-05
0.000182723
2.94866e-05
0.000182617
3.29455e-05
0.000180808
3.73559e-05
0.000177639
4.28414e-05
0.000173121
5.01013e-05
0.000167059
5.81246e-05
0.000162474
0.000153313
6.79964e-05
1.01076e-05
3.60515e-05
1.89717e-05
0.000112519
2.3731e-05
0.000148019
2.63084e-05
0.000162859
2.8299e-05
0.000170651
3.03502e-05
0.000175637
3.27261e-05
0.000178717
3.56016e-05
0.000179848
3.91539e-05
0.000179064
4.36321e-05
0.000176329
4.91919e-05
0.000172079
5.56971e-05
0.000166616
6.44237e-05
0.000158332
7.39876e-05
0.00015291
0.000141936
8.53645e-05
1.00283e-05
2.60232e-05
2.08235e-05
0.000101724
2.73496e-05
0.000141493
3.11648e-05
0.000159044
3.4108e-05
0.000167708
3.7027e-05
0.000172718
4.02599e-05
0.000175484
4.40143e-05
0.000176093
4.84608e-05
0.000174618
5.38756e-05
0.000170915
6.06466e-05
0.000165308
6.80937e-05
0.000159169
7.82282e-05
0.000148198
8.93689e-05
0.00014177
0.000128861
0.000102443
9.23773e-06
1.67854e-05
2.20601e-05
8.89019e-05
3.04935e-05
0.000133059
3.56881e-05
0.000153849
3.9648e-05
0.000163748
4.34257e-05
0.00016894
4.74702e-05
0.000171439
5.20664e-05
0.000171497
5.73954e-05
0.000169289
6.36099e-05
0.0001647
7.16773e-05
0.000157241
8.00312e-05
0.000150815
9.13757e-05
0.000136853
0.000104157
0.000128988
0.000113552
0.000119466
7.84146e-06
8.94398e-06
2.25249e-05
7.42185e-05
3.29704e-05
0.000122614
3.97529e-05
0.000147067
4.48387e-05
0.000158662
4.94913e-05
0.000164287
5.43106e-05
0.00016662
5.96851e-05
0.000166122
6.59288e-05
0.000163045
7.28002e-05
0.000157829
8.22042e-05
0.000147837
9.16456e-05
0.000141373
0.000103984
0.000124515
0.000117785
0.000115187
9.52562e-05
0.000136081
6.11864e-06
2.82535e-06
2.20119e-05
5.83252e-05
3.45698e-05
0.000110056
4.32023e-05
0.000138434
4.95762e-05
0.000152289
5.51409e-05
0.000158723
6.07182e-05
0.000161043
6.67695e-05
0.000160071
7.40161e-05
0.000155799
8.14211e-05
0.000150424
9.1965e-05
0.000137293
0.000102808
0.00013053
0.000116678
0.000110645
0.000130621
0.000101244
7.42181e-05
0.000151659
4.3248e-06
-1.49945e-06
2.03143e-05
4.23357e-05
3.50809e-05
9.52894e-05
4.58432e-05
0.000127672
5.36959e-05
0.000144436
6.02637e-05
0.000152155
6.66408e-05
0.000154666
7.32102e-05
0.000153502
8.15018e-05
0.000147507
8.95483e-05
0.000142377
0.000100828
0.000126013
0.000112851
0.000118507
0.000129217
9.42799e-05
0.00014347
8.69908e-05
5.09916e-05
0.000166696
2.63673e-06
-4.13618e-06
1.74256e-05
2.75468e-05
3.43169e-05
7.83981e-05
4.74003e-05
0.000114588
5.69867e-05
0.000134849
6.46639e-05
0.000144478
7.19704e-05
0.000147359
7.89792e-05
0.000146493
8.8144e-05
0.000138342
9.71134e-05
0.000133408
0.000109002
0.000114124
0.000121559
0.00010595
0.000140417
7.54218e-05
0.000155879
7.15284e-05
2.58886e-05
0.000180982
1.26733e-06
-5.40351e-06
1.37198e-05
1.50944e-05
3.21319e-05
5.9986e-05
4.7526e-05
9.91943e-05
5.91348e-05
0.000123241
6.81211e-05
0.000135491
7.64878e-05
0.000138992
8.39669e-05
0.000139014
9.36628e-05
0.000128646
0.000103828
0.000123243
0.000116493
0.000101459
0.000129396
9.30472e-05
0.000149562
5.52565e-05
0.00016707
5.40198e-05
-4.43215e-07
0.000193402
4.22839e-07
-5.82635e-06
9.85881e-06
5.65846e-06
2.83333e-05
4.15115e-05
4.58331e-05
8.16944e-05
5.97798e-05
0.000109294
7.02485e-05
0.000125023
7.99132e-05
0.000129328
8.81742e-05
0.000130753
9.77514e-05
0.000119069
0.000109
0.000111994
0.000122683
8.77754e-05
0.000136786
7.89442e-05
0.000155616
3.64262e-05
0.000176636
3.29999e-05
-2.73632e-05
0.000203556
5.19652e-08
-5.87831e-06
6.52266e-06
-8.12236e-07
2.30388e-05
2.49954e-05
4.20066e-05
6.27267e-05
5.84424e-05
9.28581e-05
7.07345e-05
0.00011273
8.1526e-05
0.000118536
9.12881e-05
0.000120991
0.000100777
0.00010958
0.00011241
0.000100362
0.00012541
7.47746e-05
0.000143239
6.11155e-05
0.000157634
2.20316e-05
0.000184702
5.93188e-06
-5.01636e-05
0.000207502
-4.25418e-08
-5.83577e-06
4.07969e-06
-4.93447e-06
1.71882e-05
1.18869e-05
3.60941e-05
4.38207e-05
5.45845e-05
7.43678e-05
6.90481e-05
9.82667e-05
8.1059e-05
0.000106525
9.1969e-05
0.000110081
0.000102137
9.94123e-05
0.000114917
8.75814e-05
0.000125835
6.3857e-05
0.000146736
4.02143e-05
0.000159448
9.31921e-06
0.000187213
-2.18323e-05
-6.68985e-05
0.000203948
6.83187e-08
-5.90409e-06
2.77204e-06
-7.63819e-06
1.20791e-05
2.57977e-06
2.88129e-05
2.7087e-05
4.80196e-05
5.5161e-05
6.44807e-05
8.18057e-05
7.77985e-05
9.32076e-05
9.04233e-05
9.7456e-05
9.99793e-05
8.98564e-05
0.000115964
7.15968e-05
0.000123459
5.63614e-05
0.000147046
1.66282e-05
0.000156419
-5.42956e-08
0.000184953
-5.03664e-05
-8.23818e-05
0.000200436
3.11276e-07
-6.21537e-06
2.37664e-06
-9.70355e-06
8.55688e-06
-3.60048e-06
2.16082e-05
1.40357e-05
3.931e-05
3.74592e-05
5.6859e-05
6.42567e-05
7.09548e-05
7.91118e-05
8.54876e-05
8.29232e-05
9.47359e-05
8.06081e-05
0.000111326
5.50071e-05
0.000120522
4.71652e-05
0.000143271
-6.12077e-06
0.000150743
-7.52701e-06
0.000182977
-8.25997e-05
-8.42132e-05
0.000184808
6.14724e-07
-6.83009e-06
2.43447e-06
-1.15233e-05
6.58483e-06
-7.75083e-06
1.57457e-05
4.87474e-06
2.99139e-05
2.32911e-05
4.66281e-05
4.75425e-05
6.09561e-05
6.47838e-05
7.55099e-05
6.83694e-05
8.66113e-05
6.95067e-05
0.000100264
4.13543e-05
0.000113078
3.43509e-05
0.000129168
-2.22101e-05
0.000140333
-1.86923e-05
0.00016673
-0.000108997
-8.76464e-05
0.000170163
8.50765e-07
-7.68086e-06
2.49142e-06
-1.3164e-05
5.38534e-06
-1.06448e-05
1.13532e-05
-1.09308e-06
2.12668e-05
1.33774e-05
3.49479e-05
3.38615e-05
4.8402e-05
5.13297e-05
6.12685e-05
5.55029e-05
7.29024e-05
5.78728e-05
8.43605e-05
2.98962e-05
9.68413e-05
2.18701e-05
0.000104766
-3.01353e-05
0.00012258
-3.65057e-05
0.000138908
-0.000125325
-0.000129367
0.000180629
8.93703e-07
-8.57456e-06
2.16387e-06
-1.44341e-05
4.05035e-06
-1.25312e-05
7.60375e-06
-4.64647e-06
1.36764e-05
7.30473e-06
2.31977e-05
2.43402e-05
3.41904e-05
4.03371e-05
4.4317e-05
4.53762e-05
5.44758e-05
4.7714e-05
6.39342e-05
2.04378e-05
7.51977e-05
1.06066e-05
8.47706e-05
-3.97082e-05
0.000117604
-6.93394e-05
0.000152465
-0.000160186
-0.000199283
0.000222381
6.60635e-07
-9.2352e-06
1.23153e-06
-1.5005e-05
1.97146e-06
-1.32712e-05
3.55126e-06
-6.22627e-06
6.48548e-06
4.37051e-06
1.19687e-05
1.8857e-05
1.93232e-05
3.29826e-05
2.64769e-05
3.82225e-05
3.37695e-05
4.04214e-05
4.01329e-05
1.40745e-05
5.68798e-05
-6.14036e-06
8.43358e-05
-6.71642e-05
0.000137926
-0.000122929
0.00019034
-0.0002126
-0.000258835
0.000249893
1.38788e-07
-9.37398e-06
-3.21157e-07
-1.45451e-05
-9.65199e-07
-1.26271e-05
-1.27724e-06
-5.91423e-06
-1.05568e-06
4.14894e-06
1.01966e-06
1.67816e-05
4.15393e-06
2.98483e-05
8.15642e-06
3.42201e-05
1.33174e-05
3.52604e-05
2.43904e-05
3.00147e-06
5.95596e-05
-4.13095e-05
0.000108679
-0.000116283
0.00017077
-0.000185021
0.000215563
-0.000257393
-0.000299895
0.000256622
-6.08449e-07
-8.76553e-06
-2.29361e-06
-1.28599e-05
-4.45437e-06
-1.04664e-05
-6.67224e-06
-3.69637e-06
-8.7513e-06
6.228e-06
-1.03387e-05
1.8369e-05
-1.08553e-05
3.03649e-05
-8.59301e-06
3.19578e-05
3.08879e-06
2.35786e-05
3.25955e-05
-2.65052e-05
8.57499e-05
-9.44639e-05
0.000141402
-0.000171935
0.000192975
-0.000236595
0.000227496
-0.000291914
-0.000333087
0.000260688
-1.44587e-06
-7.31966e-06
-4.39528e-06
-9.91049e-06
-8.05055e-06
-6.8111e-06
-1.20456e-05
2.98676e-07
-1.61129e-05
1.02953e-05
-1.99375e-05
2.21936e-05
-2.17939e-05
3.22213e-05
-1.56632e-05
2.58271e-05
1.18104e-05
-3.895e-06
6.01512e-05
-7.4846e-05
0.000117183
-0.000151496
0.000165317
-0.000220069
0.00020444
-0.000275717
0.000234135
-0.000321609
-0.000357024
0.000258072
-2.18786e-06
-5.1318e-06
-6.17057e-06
-5.92778e-06
-1.09673e-05
-2.01441e-06
-1.60235e-05
5.35488e-06
-2.08836e-05
1.51555e-05
-2.42543e-05
2.55643e-05
-2.30783e-05
3.10453e-05
-5.91497e-06
8.66376e-06
3.683e-05
-4.664e-05
9.06511e-05
-0.000128667
0.000140219
-0.000201063
0.00017971
-0.000259561
0.000210978
-0.000306985
0.000233645
-0.000344276
-0.000376033
0.000252654
-2.65491e-06
-2.47689e-06
-7.20112e-06
-1.38157e-06
-1.23904e-05
3.17488e-06
-1.7459e-05
1.04235e-05
-2.13712e-05
1.90677e-05
-2.16709e-05
2.5864e-05
-1.38297e-05
2.32041e-05
1.63265e-05
-2.14925e-05
6.63808e-05
-9.66943e-05
0.000115001
-0.000177287
0.000155891
-0.000241954
0.00018797
-0.00029164
0.000211719
-0.000330735
0.000230337
-0.000362893
-0.000392704
0.000247008
-2.75564e-06
2.78746e-07
-7.29602e-06
3.15881e-06
-1.21368e-05
8.01562e-06
-1.61521e-05
1.44388e-05
-1.78062e-05
2.07218e-05
-1.43412e-05
2.23989e-05
2.62627e-06
6.2367e-06
4.24922e-05
-6.13584e-05
9.08803e-05
-0.000145082
0.00013268
-0.000219087
0.000165602
-0.000274875
0.000190579
-0.000316617
0.000209895
-0.000350051
0.000225569
-0.000378568
-0.000406207
0.000239072
-2.51962e-06
2.79836e-06
-6.58042e-06
7.21962e-06
-1.05172e-05
1.19524e-05
-1.29034e-05
1.68251e-05
-1.18233e-05
1.96417e-05
-4.77278e-06
1.53484e-05
2.16754e-05
-2.02115e-05
6.63278e-05
-0.000106011
0.000109436
-0.000188191
0.000144215
-0.000253866
0.000170277
-0.000300937
0.000190361
-0.0003367
0.000205987
-0.000365677
0.000218944
-0.000391525
-0.000418949
0.000231686
-2.05694e-06
4.85531e-06
-5.34945e-06
1.05121e-05
-8.13689e-06
1.47398e-05
-8.87517e-06
1.75633e-05
-5.74782e-06
1.65144e-05
6.672e-06
2.92857e-06
4.21808e-05
-5.57203e-05
8.54522e-05
-0.000149282
0.000122588
-0.000225326
0.000150826
-0.000282105
0.00017166
-0.000321771
0.000187617
-0.000352657
0.000200531
-0.000378591
0.00021246
-0.000403454
-0.000430219
0.00022373
-1.50822e-06
6.36353e-06
-3.9423e-06
1.29462e-05
-5.61647e-06
1.6414e-05
-4.98728e-06
1.69342e-05
-7.68288e-07
1.22954e-05
1.93877e-05
-1.72274e-05
6.15024e-05
-9.7835e-05
0.000100289
-0.000188069
0.000131097
-0.000256134
0.000153742
-0.00030475
0.00017028
-0.000338309
0.000183446
-0.000365823
0.000194743
-0.000389888
0.000205174
-0.000413885
-0.000440483
0.000215438
-9.96286e-07
7.35981e-06
-2.63579e-06
1.45857e-05
-3.39009e-06
1.71683e-05
-1.92152e-06
1.54656e-05
5.19069e-06
5.18317e-06
3.44574e-05
-4.64941e-05
7.68172e-05
-0.000140195
0.000110792
-0.000222043
0.000135868
-0.00028121
0.00015383
-0.000322712
0.000167291
-0.00035177
0.000178427
-0.000376958
0.000188145
-0.000399606
0.000197852
-0.000423593
-0.000450207
0.000207576
-6.0386e-07
7.96367e-06
-1.6102e-06
1.55921e-05
-1.61366e-06
1.71717e-05
-1.15405e-07
1.39673e-05
1.34535e-05
-8.38575e-06
5.06108e-05
-8.36514e-05
8.85493e-05
-0.000178133
0.000117423
-0.000250917
0.000137691
-0.000301479
0.000152058
-0.000337079
0.000163118
-0.000362829
0.000172651
-0.000386491
0.000181542
-0.000408498
0.000190505
-0.000432556
-0.000458835
0.000199133
-3.67828e-07
8.3315e-06
-8.97361e-07
1.61216e-05
-4.19726e-07
1.66941e-05
2.26229e-06
1.12853e-05
2.39025e-05
-3.00259e-05
6.4204e-05
-0.000123953
9.71572e-05
-0.000211087
0.000120918
-0.000274678
0.000137279
-0.00031784
0.000148866
-0.000348666
0.000158187
-0.00037215
0.000166665
-0.000394969
0.000174666
-0.000416499
0.000182873
-0.000440763
-0.000467055
0.000191093
-2.8714e-07
8.61864e-06
-4.25103e-07
1.62596e-05
-7.26316e-08
1.63416e-05
6.94859e-06
4.26409e-06
3.70886e-05
-6.0166e-05
7.41115e-05
-0.000160976
0.000102576
-0.000239551
0.000122033
-0.000294135
0.00013522
-0.000331026
0.00014477
-0.000358216
0.000152828
-0.000380208
0.000160327
-0.000402468
0.000167707
-0.000423878
0.000175437
-0.000448494
-0.00047443
0.000182812
-3.06339e-07
8.92498e-06
-2.06787e-07
1.616e-05
8.11648e-09
1.61267e-05
1.35641e-05
-9.29186e-06
4.96874e-05
-9.62893e-05
8.17734e-05
-0.000193062
0.000105431
-0.000263209
0.000121258
-0.000309962
0.000132
-0.000341768
0.000140026
-0.000366241
0.000147096
-0.000387279
0.000153922
-0.000409294
0.000160735
-0.000430691
0.000167755
-0.000455513
-0.000481261
0.000174586
-3.57536e-07
9.28251e-06
-1.60206e-07
1.59627e-05
1.39615e-06
1.45704e-05
2.20659e-05
-2.99616e-05
5.87873e-05
-0.000133011
8.69406e-05
-0.000221215
0.000106319
-0.000282587
0.000119124
-0.000322767
0.000127966
-0.00035061
0.00013486
-0.000373136
0.000141214
-0.000393632
0.000147388
-0.000415468
0.000153639
-0.000436943
0.000160185
-0.000462058
-0.000487515
0.000166438
-3.34289e-07
9.6168e-06
-3.39611e-07
1.5968e-05
4.93671e-06
9.29405e-06
3.26214e-05
-5.76463e-05
6.53104e-05
-0.0001657
8.97278e-05
-0.000245632
0.000105665
-0.000298525
0.000116013
-0.000333115
0.000123384
-0.000357982
0.000129425
-0.000379177
0.00013515
-0.000399357
0.000140798
-0.000421116
0.000146595
-0.00044274
0.000152514
-0.000467977
-0.000493154
0.000158153
-3.35901e-07
9.9527e-06
-6.60052e-07
1.62921e-05
9.73805e-06
-1.10405e-06
4.22213e-05
-9.01296e-05
7.03534e-05
-0.000193832
9.06242e-05
-0.000265903
0.000103696
-0.000311597
0.000112192
-0.000341611
0.000118449
-0.000364238
0.000123804
-0.000384532
0.000129027
-0.00040458
0.000134183
-0.000426272
0.000139463
-0.00044802
0.000144862
-0.000473376
-0.000498338
0.000150046
-3.19355e-07
1.02721e-05
-4.27266e-07
1.64001e-05
1.52372e-05
-1.67686e-05
4.87511e-05
-0.000123643
7.3619e-05
-0.0002187
9.02591e-05
-0.000282543
0.000100861
-0.000322199
0.000107883
-0.000348633
0.000113273
-0.000369628
0.000118079
-0.000389338
0.000122824
-0.000409324
0.000127518
-0.000430966
0.000132371
-0.000452874
0.000137222
-0.000478227
-0.000502926
0.00014181
-1.95927e-07
1.0468e-05
1.12288e-06
1.50812e-05
2.24531e-05
-3.80988e-05
5.28964e-05
-0.000154087
7.50635e-05
-0.000240867
8.88508e-05
-0.000296331
9.73934e-05
-0.000330742
0.000103237
-0.000354476
0.000107948
-0.00037434
0.000112276
-0.000393666
0.000116594
-0.000413642
0.000120861
-0.000435233
0.000125238
-0.000457251
0.000129562
-0.000482551
-0.000507088
0.000133724
-2.04712e-07
1.06727e-05
3.88396e-06
1.09926e-05
2.96644e-05
-6.38793e-05
5.61624e-05
-0.000180585
7.49901e-05
-0.000259695
8.64662e-05
-0.000307807
9.34714e-05
-0.000337747
9.83922e-05
-0.000359397
0.000102532
-0.000378479
0.000106437
-0.000397572
0.000110337
-0.000417542
0.000114173
-0.000439069
0.000118118
-0.000461195
0.000121953
-0.000486386
-0.000510729
0.000125594
-2.67097e-07
1.09398e-05
7.05404e-06
3.67145e-06
3.54535e-05
-9.22787e-05
5.83297e-05
-0.000203461
7.39221e-05
-0.000275287
8.33718e-05
-0.000317256
8.91897e-05
-0.000343565
9.34035e-05
-0.000363611
9.70685e-05
-0.000382144
0.000100574
-0.000401077
0.000104072
-0.00042104
0.000107504
-0.000442501
0.000110995
-0.000464686
0.000114326
-0.000489717
-0.000513964
0.00011756
-2.98455e-07
1.12382e-05
1.03652e-05
-6.99218e-06
3.91455e-05
-0.000121059
5.94295e-05
-0.000223745
7.21725e-05
-0.00028803
7.98231e-05
-0.000324907
8.46772e-05
-0.000348419
8.83325e-05
-0.000367266
9.15796e-05
-0.000385391
9.47066e-05
-0.000404203
9.78097e-05
-0.000424144
0.000100826
-0.000445517
0.000103881
-0.000467741
0.00010676
-0.000492597
-0.000516755
0.000109551
-3.43e-07
1.15812e-05
1.43319e-05
-2.16671e-05
4.08039e-05
-0.000147531
5.92492e-05
-0.00024219
6.98789e-05
-0.00029866
7.60219e-05
-0.00033105
8.00415e-05
-0.000352438
8.32107e-05
-0.000370435
8.6083e-05
-0.000388264
8.88436e-05
-0.000406964
9.15555e-05
-0.000426856
9.4173e-05
-0.000448135
9.67893e-05
-0.000470357
9.9202e-05
-0.00049501
-0.000519153
0.0001016
-1.77016e-07
1.17583e-05
1.82401e-05
-4.00842e-05
4.18963e-05
-0.000171187
5.8016e-05
-0.00025831
6.70338e-05
-0.000307677
7.2035e-05
-0.000336051
7.53596e-05
-0.000355763
7.80869e-05
-0.000373163
8.0594e-05
-0.000390771
8.29934e-05
-0.000409363
8.53201e-05
-0.000429182
8.75319e-05
-0.000450346
8.97161e-05
-0.000472541
9.1702e-05
-0.000496996
-0.000521135
9.36843e-05
4.32989e-07
1.13253e-05
2.15784e-05
-6.12296e-05
4.242e-05
-0.000192029
5.61652e-05
-0.000272055
6.3748e-05
-0.00031526
6.78972e-05
-0.0003402
7.06661e-05
-0.000358532
7.29813e-05
-0.000375478
7.51278e-05
-0.000392917
7.71656e-05
-0.000411401
7.9107e-05
-0.000431124
8.09222e-05
-0.000452162
8.26803e-05
-0.000474299
8.423e-05
-0.000498546
-0.000522705
8.57996e-05
1.37301e-06
9.95227e-06
2.41273e-05
-8.39839e-05
4.23924e-05
-0.000210294
5.39204e-05
-0.000283583
6.01855e-05
-0.000321525
6.36433e-05
-0.000343658
6.59685e-05
-0.000360857
6.79109e-05
-0.00037742
6.96964e-05
-0.000394703
7.13674e-05
-0.000413072
7.29251e-05
-0.000432681
7.43403e-05
-0.000453577
7.56723e-05
-0.000475631
7.68035e-05
-0.000499677
-0.00052385
7.79487e-05
2.80055e-06
7.15172e-06
2.57772e-05
-0.000106961
4.1935e-05
-0.000226452
5.14433e-05
-0.000293091
5.65023e-05
-0.000326584
5.93411e-05
-0.000346497
6.12782e-05
-0.000362794
6.28735e-05
-0.000379015
6.4305e-05
-0.000396134
6.56083e-05
-0.000414376
6.67799e-05
-0.000433853
6.77985e-05
-0.000454596
6.87088e-05
-0.000476542
6.94031e-05
-0.000500371
-0.000524531
7.00837e-05
4.67953e-06
2.47219e-06
2.65803e-05
-0.000128861
4.10497e-05
-0.000240921
4.88091e-05
-0.000300851
5.27817e-05
-0.000330557
5.50392e-05
-0.000348754
5.66094e-05
-0.000364364
5.7874e-05
-0.00038028
5.89572e-05
-0.000397218
5.98916e-05
-0.00041531
6.06775e-05
-0.000434639
6.12972e-05
-0.000455215
6.17832e-05
-0.000477028
6.20453e-05
-0.000500633
-0.000524748
6.22624e-05
6.79408e-06
-4.32189e-06
2.65123e-05
-0.00014858
3.96151e-05
-0.000254024
4.60379e-05
-0.000307274
4.90723e-05
-0.000333591
5.07812e-05
-0.000350463
5.19817e-05
-0.000365565
5.29153e-05
-0.000381214
5.36548e-05
-0.000397957
5.42235e-05
-0.000415879
5.46232e-05
-0.000435038
5.48437e-05
-0.000455436
5.49084e-05
-0.000477092
5.47334e-05
-0.000500458
-0.00052449
5.44756e-05
9.06061e-06
-1.33825e-05
2.64851e-05
-0.000166004
3.77737e-05
-0.000265312
4.30842e-05
-0.000312584
4.53697e-05
-0.000335877
4.65803e-05
-0.000351674
4.7409e-05
-0.000366394
4.80071e-05
-0.000381812
4.8403e-05
-0.000398353
4.8607e-05
-0.000416083
4.86211e-05
-0.000435052
4.8439e-05
-0.000455254
4.80799e-05
-0.000476733
4.74776e-05
-0.000499856
-0.000523761
4.67486e-05
1.07706e-05
-2.41531e-05
2.62366e-05
-0.00018147
3.57064e-05
-0.000274782
3.99642e-05
-0.000316842
4.16504e-05
-0.000337563
4.24355e-05
-0.000352459
4.29015e-05
-0.00036686
4.31571e-05
-0.000382067
4.32071e-05
-0.000398403
4.30487e-05
-0.000415924
4.26782e-05
-0.000434682
4.2091e-05
-0.000454666
4.13059e-05
-0.000475948
4.02786e-05
-0.000498829
-0.000522558
3.90758e-05
1.18556e-05
-3.60087e-05
2.56007e-05
-0.000195215
3.34538e-05
-0.000282635
3.67488e-05
-0.000320137
3.79218e-05
-0.000338736
3.83385e-05
-0.000352876
3.84603e-05
-0.000366981
3.83731e-05
-0.00038198
3.80746e-05
-0.000398104
3.75535e-05
-0.000415403
3.68005e-05
-0.000433929
3.58074e-05
-0.000453673
3.45892e-05
-0.00047473
3.3133e-05
-0.000497373
-0.000520899
3.14739e-05
1.23466e-05
-4.83553e-05
2.46146e-05
-0.000207483
3.10658e-05
-0.000289087
3.35036e-05
-0.000322575
3.42135e-05
-0.000339446
3.42936e-05
-0.000352956
3.40865e-05
-0.000366774
3.36588e-05
-0.000381553
3.30106e-05
-0.000397456
3.21279e-05
-0.00041452
3.09965e-05
-0.000432798
2.96038e-05
-0.000452281
2.79534e-05
-0.00047308
2.60372e-05
-0.000495456
-0.000518793
2.39308e-05
1.23616e-05
-6.07169e-05
2.33161e-05
-0.000218438
2.85676e-05
-0.000294338
3.02661e-05
-0.000324273
3.05498e-05
-0.00033973
3.03069e-05
-0.000352713
2.97806e-05
-0.000366248
2.90178e-05
-0.00038079
2.80204e-05
-0.000396459
2.67759e-05
-0.000413276
2.52695e-05
-0.000431291
2.34885e-05
-0.0004505
2.14256e-05
-0.000471017
1.90063e-05
-0.000493037
-0.000516226
1.64401e-05
1.20452e-05
-7.27621e-05
2.17887e-05
-0.000228181
2.60027e-05
-0.000298552
2.70609e-05
-0.000325331
2.69493e-05
-0.000339618
2.63894e-05
-0.000352153
2.55474e-05
-0.000365406
2.44524e-05
-0.000379695
2.31077e-05
-0.000395114
2.1503e-05
-0.000411671
1.9624e-05
-0.000429412
1.74618e-05
-0.000448337
1.50182e-05
-0.000468573
1.21029e-05
-0.000490122
-0.000513099
8.97499e-06
1.15004e-05
-8.42626e-05
2.00955e-05
-0.000236776
2.34004e-05
-0.000301857
2.39035e-05
-0.000325835
2.3424e-05
-0.000339138
2.25486e-05
-0.000351278
2.13909e-05
-0.000364248
1.99667e-05
-0.00037827
1.82768e-05
-0.000393424
1.63126e-05
-0.000409707
1.40611e-05
-0.000427161
1.15205e-05
-0.000445797
8.69081e-06
-0.000465743
5.43923e-06
-0.00048687
-0.000509088
1.42823e-06
1.07967e-05
-9.50592e-05
1.82989e-05
-0.000244278
2.07989e-05
-0.000304357
2.08107e-05
-0.000325846
1.99831e-05
-0.000338311
1.87923e-05
-0.000350087
1.73167e-05
-0.000362773
1.55633e-05
-0.000376517
1.35305e-05
-0.000391391
1.12088e-05
-0.000407385
8.58455e-06
-0.000424536
5.67315e-06
-0.000442885
2.3624e-06
-0.000462433
-9.07985e-07
-0.0004836
-0.000504553
-5.44278e-06
9.95387e-06
-0.000105013
1.64436e-05
-0.000250768
1.82279e-05
-0.000306141
1.77965e-05
-0.000325415
1.66332e-05
-0.000337147
1.51249e-05
-0.000348579
1.33284e-05
-0.000360976
1.12444e-05
-0.000374433
8.87054e-06
-0.000389018
6.19194e-06
-0.000404707
3.19688e-06
-0.000421541
-1.56091e-07
-0.000439532
-3.69867e-06
-0.00045889
-7.69959e-06
-0.000479599
-0.000500061
-1.21913e-05
9.01217e-06
-0.000114025
1.45769e-05
-0.000256333
1.57152e-05
-0.00030728
1.48732e-05
-0.000324573
1.33779e-05
-0.000335652
1.155e-05
-0.000346751
9.42886e-06
-0.000358855
7.00924e-06
-0.000372013
4.29266e-06
-0.000386301
1.25228e-06
-0.000401666
-2.07515e-06
-0.000418214
-5.69191e-06
-0.000435916
-9.614e-06
-0.000454968
-1.41633e-05
-0.000475049
-0.000495337
-1.88872e-05
8.13518e-06
-0.00012216
1.27421e-05
-0.00026094
1.32723e-05
-0.00030781
1.20401e-05
-0.000323341
1.02183e-05
-0.00033383
8.06837e-06
-0.000344601
5.61676e-06
-0.000356404
2.85278e-06
-0.000369249
-2.33186e-07
-0.000383215
-3.55877e-06
-0.000398341
-7.22353e-06
-0.000414549
-1.11857e-05
-0.000431954
-1.55089e-05
-0.000450645
-2.04472e-05
-0.000470111
-0.000490285
-2.54997e-05
7.27697e-06
-0.000129437
1.09644e-05
-0.000264627
1.09116e-05
-0.000307757
9.29905e-06
-0.000321728
7.1538e-06
-0.000331685
4.67669e-06
-0.000342124
1.88033e-06
-0.000353607
-1.20712e-06
-0.000366162
-4.56043e-06
-0.000379862
-8.26345e-06
-0.000394638
-1.22719e-05
-0.000410541
-1.65966e-05
-0.000427629
-2.13358e-05
-0.000445906
-2.65852e-05
-0.000464862
-0.000484858
-3.20119e-05
6.43473e-06
-0.000135872
9.25411e-06
-0.000267446
8.63788e-06
-0.000307141
6.65363e-06
-0.000319744
4.1814e-06
-0.000329213
1.35803e-06
-0.0003393
-1.7382e-06
-0.000350511
-5.11954e-06
-0.000362781
-8.82926e-06
-0.000376152
-1.28695e-05
-0.000390598
-1.72225e-05
-0.000406188
-2.19179e-05
-0.000422933
-2.70719e-05
-0.000440752
-3.26068e-05
-0.000459327
-0.000479065