/*--------------------------------*- C++ -*----------------------------------*\
  =========                 |
  \\      /  F ield         | OpenFOAM: The Open Source CFD Toolbox
   \\    /   O peration     | Website:  https://openfoam.org
    \\  /    A nd           | Version:  7
     \\/     M anipulation  |
\*---------------------------------------------------------------------------*/
FoamFile
{
    version     2.0;
    format      ascii;
    class       volVectorField;
    location    "25.0008";
    object      U;
}
// * * * * * * * * * * * * * * * * * * * * * * * * * * * * * * * * * * * * * //

dimensions      [0 1 -1 0 0 0 0];

internalField   nonuniform List<vector> 
18750
(
(-0.0362262 0.0204144 -7.46937e-21)
(-0.128136 0.024972 2.56498e-21)
(-0.227847 0.0232768 2.81086e-20)
(-0.315496 0.0219739 6.52622e-21)
(-0.402764 0.0208522 -1.59592e-20)
(-0.484932 0.0198966 -3.89521e-20)
(-0.565364 0.0190301 4.07107e-20)
(-0.642018 0.0182301 2.72056e-20)
(-0.716423 0.0174594 -2.0617e-20)
(-0.787414 0.0167105 -5.58026e-20)
(-0.855869 0.0159623 2.14755e-19)
(-0.920821 0.0151959 -1.78777e-19)
(-0.982495 0.014383 1.07304e-19)
(-1.03979 0.0135384 -2.12562e-19)
(-1.09277 0.0127361 4.95111e-20)
(-0.0377461 0.0658179 4.50012e-21)
(-0.129338 0.0809206 7.66166e-21)
(-0.228028 0.0759796 4.03713e-21)
(-0.314698 0.0721826 4.39867e-20)
(-0.400954 0.0688796 9.15056e-20)
(-0.482068 0.0660044 1.23294e-19)
(-0.561349 0.0633178 -1.0615e-19)
(-0.636729 0.0607457 1.7547e-19)
(-0.709696 0.0581793 1.65221e-19)
(-0.779065 0.0556022 -5.41545e-20)
(-0.845704 0.0529631 -2.28014e-19)
(-0.908643 0.0502179 1.08121e-20)
(-0.968074 0.0472965 5.17338e-20)
(-1.02282 0.0442591 1.38357e-19)
(-1.07289 0.0413464 -2.13371e-19)
(-0.0407639 0.110157 1.41668e-20)
(-0.131731 0.135956 2.21639e-20)
(-0.228384 0.12794 -7.02039e-20)
(-0.313097 0.121708 5.27424e-21)
(-0.397334 0.116268 -1.70011e-19)
(-0.476353 0.111491 5.64944e-20)
(-0.553356 0.106987 -1.6181e-19)
(-0.626232 0.102632 -1.83701e-20)
(-0.696388 0.0982499 -1.26492e-19)
(-0.762613 0.0938169 3.85404e-19)
(-0.825762 0.0892596 5.17133e-19)
(-0.884876 0.0845274 4.60888e-19)
(-0.940104 0.0795288 2.73285e-19)
(-0.990149 0.0743612 1.8646e-19)
(-1.03492 0.0693749 -3.49317e-19)
(-0.0451684 0.152733 -7.67408e-20)
(-0.135243 0.189474 9.19752e-20)
(-0.228903 0.178671 -6.95445e-20)
(-0.310733 0.170108 -1.47028e-19)
(-0.392014 0.162607 2.56406e-19)
(-0.467987 0.155964 -2.3961e-19)
(-0.541703 0.149651 3.5812e-19)
(-0.611 0.143503 -3.06378e-19)
(-0.677187 0.137283 2.18793e-19)
(-0.739024 0.130961 -5.39942e-19)
(-0.797364 0.124454 -7.83588e-19)
(-0.851293 0.117731 4.38473e-20)
(-0.900936 0.110706 -1.51407e-19)
(-0.944875 0.103503 -3.33378e-19)
(-0.982903 0.0965078 1.28179e-18)
(-0.0507966 0.192885 -5.97716e-20)
(-0.139762 0.240894 1.35765e-19)
(-0.229562 0.227708 3.07226e-20)
(-0.307657 0.216969 1.15995e-19)
(-0.385143 0.207522 -1.56466e-19)
(-0.457237 0.199071 6.79309e-20)
(-0.526808 0.190974 8.51852e-19)
(-0.59165 0.183034 1.3421e-19)
(-0.652965 0.174964 2.41208e-19)
(-0.709498 0.166735 -8.63836e-20)
(-0.762115 0.158265 7.22308e-20)
(-0.809991 0.149567 -3.12583e-20)
(-0.853281 0.140593 -8.65052e-19)
(-0.890478 0.131488 -4.88218e-19)
(-0.921269 0.122606 -1.45187e-18)
(-0.0574613 0.230029 1.35292e-19)
(-0.145156 0.289655 4.66445e-20)
(-0.230321 0.274623 -6.54932e-20)
(-0.30392 0.261928 -4.85337e-20)
(-0.37689 0.250687 5.3446e-20)
(-0.44441 0.240514 -7.23345e-19)
(-0.509147 0.230682 -9.16297e-20)
(-0.568867 0.220975 4.6081e-20)
(-0.624669 0.211068 -3.5412e-19)
(-0.675301 0.200941 -4.92075e-19)
(-0.721661 0.190528 3.63231e-19)
(-0.763055 0.179906 -3.62996e-19)
(-0.799733 0.169092 1.13734e-18)
(-0.830167 0.158256 -8.96613e-19)
(-0.853934 0.147677 1.98004e-18)
(-0.0649524 0.26362 -1.22733e-19)
(-0.151253 0.335217 -2.08619e-19)
(-0.231101 0.319041 8.51105e-20)
(-0.299564 0.30467 6.44247e-19)
(-0.36743 0.291827 6.573e-19)
(-0.429824 0.280052 -2.3165e-19)
(-0.489207 0.268563 1.19598e-19)
(-0.543338 0.25714 7.84946e-20)
(-0.593224 0.245443 7.68957e-19)
(-0.637639 0.233466 1.07252e-18)
(-0.67752 0.221171 -5.24203e-19)
(-0.71234 0.208715 -1.02077e-18)
(-0.742508 0.196201 -1.91437e-18)
(-0.766547 0.183844 3.34091e-19)
(-0.783927 0.171822 -2.42281e-18)
(-0.0730203 0.293098 -1.09975e-19)
(-0.157845 0.377125 -1.29729e-19)
(-0.231792 0.360662 -9.39024e-19)
(-0.294623 0.344944 3.37493e-19)
(-0.356933 0.330722 -3.92974e-19)
(-0.413791 0.317499 2.70985e-19)
(-0.467456 0.304466 2.9442e-19)
(-0.515708 0.291415 -1.28393e-18)
(-0.559478 0.278008 -8.63384e-19)
(-0.597581 0.264271 -1.4734e-18)
(-0.630997 0.250202 -2.44588e-19)
(-0.659381 0.236044 1.08464e-18)
(-0.683341 0.222001 4.28819e-18)
(-0.701533 0.208354 -6.62446e-19)
(-0.71331 0.195184 1.18687e-18)
(-0.0813488 0.317906 5.9187e-19)
(-0.16468 0.414972 2.39145e-19)
(-0.232272 0.399259 1.03339e-18)
(-0.289117 0.382557 -7.59041e-19)
(-0.345551 0.367209 3.6296e-19)
(-0.396596 0.352725 -6.09168e-19)
(-0.444322 0.338293 -1.41156e-18)
(-0.486553 0.323734 1.26264e-18)
(-0.524163 0.308735 1.5306e-19)
(-0.556022 0.293368 2.20521e-18)
(-0.583142 0.277673 -7.25241e-19)
(-0.605356 0.261977 -3.31426e-18)
(-0.62349 0.246594 -2.03938e-18)
(-0.63639 0.231896 2.15526e-19)
(-0.643303 0.217885 -1.00494e-18)
(-0.089575 0.3376 -4.93999e-19)
(-0.171474 0.448475 -2.80845e-19)
(-0.232414 0.434663 3.64254e-19)
(-0.28306 0.417371 5.66757e-20)
(-0.333415 0.401172 -1.42648e-19)
(-0.37849 0.38565 -1.66108e-19)
(-0.420177 0.369997 6.43762e-19)
(-0.456367 0.354081 -7.75205e-19)
(-0.487886 0.337639 7.68439e-19)
(-0.513677 0.320801 9.72601e-19)
(-0.534768 0.303659 -1.73634e-18)
(-0.551136 0.286618 3.31415e-18)
(-0.563809 0.270094 3.9092e-19)
(-0.571872 0.254571 5.40046e-19)
(-0.574492 0.240007 1.24353e-18)
(-0.0972603 0.351709 9.34303e-19)
(-0.177869 0.477293 -3.06907e-19)
(-0.232068 0.466763 -1.36167e-18)
(-0.276453 0.449296 5.42282e-19)
(-0.320634 0.432546 -3.13467e-19)
(-0.359683 0.416235 3.68025e-19)
(-0.395333 0.399566 2.76162e-18)
(-0.425553 0.382472 1.34281e-18)
(-0.451133 0.364759 8.98102e-19)
(-0.471093 0.346631 -3.02448e-18)
(-0.48646 0.328243 3.33319e-18)
(-0.497313 0.310064 1.2337e-18)
(-0.504831 0.292594 -1.99743e-18)
(-0.508354 0.276438 2.43104e-18)
(-0.507055 0.261555 -8.66723e-20)
(-0.103964 0.360034 1.95504e-19)
(-0.183546 0.501391 4.71354e-20)
(-0.231109 0.495474 -9.52499e-20)
(-0.269286 0.478282 -9.69463e-19)
(-0.307283 0.461306 1.94167e-18)
(-0.340347 0.444482 -9.93425e-19)
(-0.370048 0.427026 -2.93283e-18)
(-0.394438 0.408954 9.12715e-19)
(-0.414275 0.390156 -1.45661e-18)
(-0.428669 0.37093 2.27536e-18)
(-0.438627 0.351502 -4.13137e-18)
(-0.444283 0.332398 3.26665e-19)
(-0.446886 0.314169 1.7837e-18)
(-0.446001 0.297519 -3.76224e-18)
(-0.440968 0.282483 -8.88777e-19)
(-0.109019 0.361938 -6.21242e-19)
(-0.18807 0.520473 1.7791e-19)
(-0.229371 0.520716 5.52165e-19)
(-0.261531 0.504312 -2.63194e-20)
(-0.293423 0.487474 -2.65438e-18)
(-0.320613 0.470421 2.54275e-19)
(-0.344516 0.452416 9.55118e-19)
(-0.363267 0.433579 -2.61335e-18)
(-0.377591 0.413897 1.98231e-18)
(-0.386684 0.393765 -1.83411e-18)
(-0.391527 0.3735 5.05257e-18)
(-0.392272 0.353678 -2.11254e-18)
(-0.390149 0.334864 2.59098e-18)
(-0.384853 0.317822 5.28447e-18)
(-0.376061 0.302691 2.29485e-18)
(-0.111903 0.357878 -2.48563e-19)
(-0.191157 0.53477 -6.90225e-21)
(-0.226818 0.542351 -2.01406e-20)
(-0.253148 0.527424 -6.39347e-20)
(-0.279075 0.511096 -1.30381e-18)
(-0.300586 0.494105 -5.81719e-19)
(-0.318893 0.475803 9.40271e-19)
(-0.332234 0.456436 5.75653e-19)
(-0.341283 0.436062 -3.35118e-18)
(-0.34533 0.41521 -1.88985e-19)
(-0.345312 0.394291 -9.91449e-19)
(-0.341396 0.37394 2.03443e-18)
(-0.334734 0.354722 -2.86306e-18)
(-0.324954 0.337352 -4.08182e-19)
(-0.312127 0.321972 -2.59544e-18)
(-0.112273 0.348065 1.11427e-18)
(-0.192354 0.543788 -9.94701e-19)
(-0.223276 0.560314 -1.3466e-18)
(-0.24405 0.547674 2.40083e-18)
(-0.264278 0.532264 2.11809e-18)
(-0.280341 0.515609 2.72266e-18)
(-0.293285 0.497259 1.18017e-19)
(-0.301459 0.477582 1.88242e-18)
(-0.305491 0.456716 2.5386e-18)
(-0.304725 0.435322 3.82004e-18)
(-0.300062 0.41391 -1.78138e-18)
(-0.29167 0.39319 3.77008e-18)
(-0.280652 0.373733 -1.91028e-20)
(-0.266452 0.356122 -1.93022e-18)
(-0.248766 0.340281 -4.82275e-18)
(-0.109911 0.332478 -7.09214e-19)
(-0.191351 0.547255 1.09894e-18)
(-0.218597 0.574631 7.33798e-19)
(-0.234203 0.565192 -2.26916e-18)
(-0.249015 0.551048 -1.05719e-18)
(-0.259938 0.535008 -1.94792e-19)
(-0.267774 0.516864 -1.44636e-18)
(-0.271062 0.497133 -2.48868e-18)
(-0.270304 0.475941 -4.27611e-18)
(-0.26495 0.454168 -1.8699e-18)
(-0.255818 0.432402 2.64387e-18)
(-0.243064 0.411429 -5.55377e-18)
(-0.227843 0.39187 1.94073e-19)
(-0.209553 0.374154 3.57452e-18)
(-0.185763 0.357901 5.17318e-18)
(-0.104623 0.311085 -1.7153e-18)
(-0.187925 0.545054 1.32692e-18)
(-0.212592 0.585281 -2.28703e-18)
(-0.223623 0.580109 -1.10392e-18)
(-0.23334 0.567554 -6.01934e-20)
(-0.239425 0.55241 1.52128e-18)
(-0.242426 0.534733 2.47038e-18)
(-0.241062 0.515101 8.23363e-19)
(-0.235785 0.493776 1.2047e-18)
(-0.226029 0.47179 -3.41524e-18)
(-0.212589 0.449787 9.65371e-20)
(-0.195536 0.428642 -2.66914e-18)
(-0.1761 0.409047 -1.98399e-18)
(-0.154214 0.391294 -5.71768e-18)
(-0.123879 0.375229 -7.19296e-20)
(-0.0963198 0.284048 1.50918e-18)
(-0.181952 0.537074 2.40138e-19)
(-0.205154 0.592125 3.51689e-19)
(-0.212261 0.592409 2.73366e-18)
(-0.217304 0.581937 1.1586e-18)
(-0.218846 0.567954 -1.4174e-18)
(-0.217347 0.550989 1.12181e-18)
(-0.21155 0.531575 -6.55345e-19)
(-0.201951 0.51032 -1.32162e-18)
(-0.187982 0.488241 1.49969e-18)
(-0.170385 0.466112 -5.11669e-18)
(-0.149084 0.444848 -2.1321e-19)
(-0.125347 0.425257 -2.94116e-18)
(-0.100247 0.407559 4.56411e-18)
(-0.0628739 0.392417 4.20366e-19)
(-0.0851569 0.251766 -5.80489e-19)
(-0.173413 0.523108 -1.62275e-18)
(-0.196265 0.594917 4.23965e-19)
(-0.200113 0.602057 -3.16051e-18)
(-0.200919 0.59424 -2.15369e-18)
(-0.198239 0.581687 -1.21869e-18)
(-0.192543 0.565607 -2.13732e-18)
(-0.182589 0.546651 2.07547e-18)
(-0.16885 0.525629 2.93892e-18)
(-0.150815 0.503583 5.77141e-18)
(-0.129195 0.481421 -2.66063e-19)
(-0.103723 0.460111 6.58439e-18)
(-0.0753575 0.440466 2.60518e-18)
(-0.0478181 0.422826 2.05477e-18)
(-0.00216629 0.409511 -4.5588e-18)
(-0.0716917 0.214862 1.00108e-18)
(-0.162419 0.502801 2.47192e-18)
(-0.185958 0.593235 1.69198e-18)
(-0.187228 0.608926 2.2043e-18)
(-0.184221 0.604487 4.93156e-21)
(-0.177666 0.593647 8.67356e-19)
(-0.168039 0.57865 2.27216e-20)
(-0.154208 0.560388 -1.60165e-18)
(-0.13651 0.539732 2.5206e-18)
(-0.114522 0.517822 -8.82681e-18)
(-0.0889904 0.495735 2.59859e-18)
(-0.0595332 0.474431 -1.72418e-18)
(-0.025885 0.454713 3.40688e-19)
(0.00295054 0.437076 -2.60398e-18)
(0.0586617 0.426693 -2.95036e-18)
(-0.0571004 0.174206 -1.63417e-18)
(-0.149237 0.475607 2.17518e-18)
(-0.17428 0.586433 -5.39684e-19)
(-0.173667 0.612752 -9.37885e-19)
(-0.167294 0.612644 1.95756e-18)
(-0.15718 0.603883 2.0561e-19)
(-0.143918 0.590172 -5.83241e-19)
(-0.126421 0.57277 -6.85404e-20)
(-0.104978 0.552646 -1.6267e-18)
(-0.0790945 0.530982 4.23642e-18)
(-0.0496486 0.509019 2.61301e-18)
(-0.0166956 0.487916 1.3901e-18)
(0.0234655 0.468003 -1.3091e-19)
(0.0517513 0.449592 3.35001e-18)
(0.119924 0.444532 -3.03411e-19)
(-0.0432902 0.131203 4.7862e-19)
(-0.134277 0.440764 -5.16424e-19)
(-0.161259 0.573638 4.09096e-19)
(-0.159495 0.613072 1.73702e-18)
(-0.150224 0.618594 -1.10979e-18)
(-0.136897 0.61237 -7.26797e-19)
(-0.120228 0.600192 -1.35975e-18)
(-0.0993099 0.583823 1.07742e-18)
(-0.0742914 0.564337 -1.12514e-18)
(-0.0446108 0.543001 -1.30682e-18)
(-0.0109597 0.521186 -2.2555e-18)
(0.024517 0.500491 -1.31397e-18)
(0.0730712 0.480826 4.83267e-18)
(0.0985389 0.46005 -6.66461e-18)
(0.182019 0.462717 -1.80081e-19)
(-0.0320774 0.0883966 2.04905e-18)
(-0.118014 0.397375 -7.93274e-19)
(-0.146881 0.553829 -2.06377e-18)
(-0.144752 0.609188 -5.50681e-19)
(-0.133137 0.622007 2.91372e-18)
(-0.116888 0.619048 -6.33314e-20)
(-0.0971327 0.60866 1.41926e-18)
(-0.07291 0.593456 -7.79713e-19)
(-0.0445461 0.574785 -3.05163e-18)
(-0.0112672 0.553921 7.09669e-18)
(0.0274503 0.53208 -5.24554e-18)
(0.0637545 0.511997 1.56216e-18)
(0.123434 0.493353 -6.88135e-18)
(0.14251 0.46726 2.43486e-18)
(0.245431 0.481854 2.00683e-18)
(-0.0235103 0.0494712 -7.2961e-19)
(-0.100743 0.344681 -2.34966e-18)
(-0.131091 0.525942 1.06294e-18)
(-0.129476 0.600085 1.88253e-19)
(-0.116116 0.622348 -2.62446e-18)
(-0.0973455 0.623651 1.62581e-18)
(-0.074692 0.615534 8.64215e-20)
(-0.0474438 0.601652 -4.01413e-19)
(-0.0156766 0.58376 -3.13477e-18)
(0.0204169 0.563624 -3.61619e-19)
(0.065956 0.541626 4.18843e-18)
(0.10063 0.521886 3.55075e-19)
(0.175539 0.507665 9.98051e-19)
(0.183603 0.470086 2.87672e-18)
(0.30856 0.497665 -7.34326e-18)
(-0.0157169 0.0179894 -1.1099e-18)
(-0.0826689 0.282774 3.49008e-20)
(-0.11384 0.48896 -1.34793e-18)
(-0.113686 0.584397 1.09401e-18)
(-0.0993097 0.618706 1.48673e-18)
(-0.0783251 0.625867 -1.11609e-18)
(-0.0532374 0.620538 -1.9271e-19)
(-0.0230426 0.608234 -9.38408e-19)
(0.0123347 0.591201 2.33971e-18)
(0.0499206 0.572022 4.53206e-19)
(0.10488 0.549781 -6.07538e-18)
(0.134089 0.528033 1.66276e-18)
(0.229908 0.524671 1.03293e-18)
(0.223858 0.474191 -4.65157e-18)
(0.370979 0.507148 1.05722e-18)
(-0.00713771 -0.0039844 2.51291e-19)
(-0.0647287 0.213987 6.75859e-19)
(-0.0953254 0.441794 1.26289e-18)
(-0.0974287 0.560406 -1.06899e-18)
(-0.0827972 0.609883 -4.21881e-20)
(-0.0601673 0.624932 2.70624e-18)
(-0.0327118 0.623518 -1.24287e-19)
(-0.000474623 0.613042 -5.35669e-21)
(0.0398898 0.596467 3.81055e-18)
(0.0763128 0.578627 -2.18694e-18)
(0.144874 0.558198 1.56103e-18)
(0.163463 0.528113 -4.41914e-18)
(0.284572 0.539778 3.805e-19)
(0.265101 0.48261 -1.17784e-18)
(0.432761 0.515195 2.02459e-18)
(0.001467 -0.0163749 -1.87928e-19)
(-0.0481716 0.144587 8.42306e-19)
(-0.0762569 0.383506 -1.12108e-18)
(-0.0808021 0.526112 2.36271e-18)
(-0.0667918 0.594186 -1.98797e-18)
(-0.0429937 0.619964 -1.78023e-18)
(-0.0136339 0.623512 -1.10952e-18)
(0.0199808 0.615922 -2.39901e-18)
(0.0667415 0.599826 -4.65505e-18)
(0.0991431 0.581397 7.04905e-19)
(0.185394 0.56829 3.66154e-18)
(0.190146 0.524697 2.93912e-18)
(0.337443 0.546827 4.99294e-19)
(0.306556 0.491504 -2.45467e-18)
(0.493395 0.520459 -1.23785e-18)
(0.00824927 -0.021454 4.50934e-19)
(-0.0325592 0.0837571 7.90045e-19)
(-0.0573743 0.313998 -3.37559e-18)
(-0.0641039 0.479683 -2.33645e-18)
(-0.0514597 0.569514 -6.92624e-20)
(-0.027557 0.609242 1.87127e-18)
(0.00446953 0.620026 -6.88773e-19)
(0.0366273 0.615577 5.33321e-18)
(0.0933786 0.601289 4.34813e-19)
(0.117353 0.578703 -3.00088e-18)
(0.22528 0.578235 -2.81929e-18)
(0.215456 0.52259 -4.50813e-18)
(0.385934 0.546177 4.97049e-18)
(0.348814 0.497106 3.30345e-18)
(0.548824 0.519418 -1.07737e-20)
(0.012548 -0.0224228 -1.25566e-18)
(-0.0165232 0.0385101 -2.32664e-18)
(-0.0393814 0.235199 1.67998e-18)
(-0.0478255 0.419688 2.05974e-18)
(-0.0370882 0.533376 1.28319e-18)
(-0.0143638 0.590641 -1.30408e-18)
(0.0204951 0.610756 3.33576e-18)
(0.0502837 0.611691 -4.76754e-18)
(0.117292 0.601828 5.30278e-18)
(0.132587 0.568162 3.40509e-18)
(0.258919 0.582232 -1.0613e-18)
(0.24512 0.523665 -1.48744e-18)
(0.421061 0.537791 -1.99158e-18)
(0.395697 0.501194 -3.97105e-18)
(0.593393 0.507077 4.77152e-18)
(0.0148018 -0.0216195 3.53607e-18)
(-0.000974423 0.00933387 2.71333e-18)
(-0.0232765 0.155404 6.16855e-19)
(-0.0329359 0.346285 -3.56863e-20)
(-0.0240427 0.482877 -4.45209e-19)
(-0.00444445 0.561372 -5.24756e-19)
(0.0346104 0.594376 -2.60714e-18)
(0.0580145 0.598591 4.53905e-18)
(0.139457 0.602917 -3.55116e-18)
(0.145464 0.556265 -2.9815e-20)
(0.27964 0.568825 3.43043e-18)
(0.280104 0.527703 2.41092e-18)
(0.439712 0.517764 2.40052e-18)
(0.441492 0.505273 -2.55361e-20)
(0.632047 0.482745 -2.84536e-18)
(0.0159815 -0.0202818 -2.12189e-18)
(0.0119966 -0.00729371 -2.20129e-18)
(-0.00821416 0.0890657 6.83798e-19)
(-0.0202171 0.263406 -1.10814e-18)
(-0.0126464 0.416408 -5.24115e-19)
(0.00135209 0.517261 1.89154e-18)
(0.0446476 0.568832 -5.00087e-19)
(0.0632894 0.576336 -4.65469e-19)
(0.147512 0.590139 -1.435e-18)
(0.170208 0.553232 -3.31058e-18)
(0.275524 0.544301 1.53689e-18)
(0.327187 0.520909 -1.81685e-18)
(0.433204 0.502234 -2.79028e-18)
(0.512343 0.490124 -1.25863e-18)
(0.60614 0.458646 5.06804e-18)
(0.0172242 -0.0188596 2.39149e-18)
(0.0222827 -0.0157087 -1.87915e-18)
(0.00723178 0.044309 -3.09168e-18)
(-0.00881621 0.181325 3.17895e-19)
(-0.0033573 0.335782 7.45595e-19)
(0.00344049 0.45591 -5.26709e-19)
(0.0474648 0.528143 1.43679e-18)
(0.0660172 0.545139 3.03803e-19)
(0.144964 0.564403 -2.16319e-19)
(0.183829 0.531175 1.03662e-19)
(0.280832 0.537313 -1.59723e-18)
(0.338524 0.476454 2.04198e-19)
(0.459874 0.510085 8.93425e-19)
(0.499033 0.428042 -7.03829e-19)
(0.668905 0.479338 4.78693e-18)
(0.0192582 -0.0177037 5.01481e-19)
(0.0312359 -0.0195682 -1.0763e-18)
(0.0221935 0.0185161 3.00676e-18)
(0.00314916 0.114023 2.32995e-18)
(0.00387494 0.250021 -2.34175e-18)
(0.00221542 0.378264 -1.5899e-19)
(0.0424377 0.470269 -1.08202e-18)
(0.0627381 0.495892 -4.15314e-19)
(0.131976 0.529993 2.97577e-18)
(0.192748 0.489081 1.51269e-18)
(0.261596 0.509798 2.08424e-18)
(0.378118 0.449036 -1.6507e-18)
(0.427504 0.474379 1.11111e-18)
(0.547254 0.400407 -6.31813e-19)
(0.659071 0.458659 -6.10681e-18)
(0.022336 -0.0171731 4.00084e-19)
(0.0396069 -0.0214845 6.43626e-19)
(0.0349568 0.00458991 -1.65514e-18)
(0.0157344 0.0684418 -1.89027e-18)
(0.00905237 0.173109 -1.73894e-18)
(-0.000777667 0.291918 1.49e-19)
(0.028422 0.396032 1.26502e-18)
(0.0553423 0.429644 -2.29464e-18)
(0.101746 0.470435 -1.21136e-18)
(0.200761 0.447867 6.6357e-19)
(0.214 0.435853 -1.91185e-18)
(0.416089 0.434679 1.92671e-19)
(0.338997 0.370273 1.32201e-18)
(0.632701 0.402072 -1.78492e-18)
(0.516157 0.338508 1.44325e-18)
(0.0262652 -0.017486 -9.00426e-19)
(0.0470876 -0.0232983 2.04302e-18)
(0.0443432 -0.00415141 1.35249e-18)
(0.0259615 0.0400124 9.08198e-19)
(0.0117596 0.113682 1.48708e-18)
(-0.0056144 0.209188 -1.4955e-19)
(0.00883905 0.311119 -1.17108e-18)
(0.037568 0.350511 2.55543e-19)
(0.0684495 0.390301 1.59183e-18)
(0.174283 0.379487 -2.53073e-18)
(0.185698 0.357913 -1.18878e-18)
(0.368488 0.359483 9.80153e-20)
(0.288225 0.270993 -3.76416e-19)
(0.61865 0.350476 2.1387e-18)
(0.42961 0.224243 -2.0368e-18)
(0.030389 -0.0185597 9.81268e-19)
(0.052537 -0.0260346 6.53957e-19)
(0.0491812 -0.0123029 -7.9101e-20)
(0.0304461 0.0194043 -5.88974e-19)
(0.0101502 0.0696928 1.32534e-19)
(-0.0145725 0.138378 -1.73937e-18)
(-0.0127547 0.225406 3.87454e-19)
(0.0064627 0.261886 -7.65426e-19)
(0.0354596 0.303888 -7.85246e-19)
(0.122088 0.278722 1.73157e-18)
(0.157362 0.279656 2.51918e-18)
(0.286405 0.24941 1.19075e-18)
(0.315992 0.230438 1.23978e-18)
(0.610464 0.297815 -1.6149e-18)
(0.668787 0.30424 -1.70557e-18)
(0.0336958 -0.0200195 8.10045e-19)
(0.0545009 -0.0298784 -1.54474e-18)
(0.048166 -0.0220072 -7.46177e-19)
(0.0271136 -5.89923e-05 -1.66831e-18)
(0.00150874 0.0338087 7.52358e-19)
(-0.029424 0.0793604 1.83713e-18)
(-0.0380399 0.145182 -2.10516e-18)
(-0.0327732 0.170883 7.36237e-19)
(-0.00420507 0.212294 1.39034e-18)
(0.0632924 0.172008 3.79563e-19)
(0.110055 0.180126 -1.62962e-18)
(0.276663 0.180776 -6.84127e-19)
(0.439076 0.237504 -6.89096e-22)
(0.745221 0.325424 9.48924e-19)
(0.923134 0.405476 3.74883e-18)
(0.0350689 -0.021308 -1.31353e-18)
(0.0518038 -0.0343115 -1.31603e-18)
(0.0405597 -0.0333228 7.35354e-19)
(0.0153917 -0.0207728 2.96505e-18)
(-0.0157052 0.000185199 -1.93061e-18)
(-0.051208 0.0271742 5.49058e-19)
(-0.070527 0.0711181 8.21619e-19)
(-0.0758578 0.0830055 -6.57738e-20)
(-0.0539335 0.116557 1.75224e-19)
(0.0129449 0.0783896 7.75382e-19)
(0.131785 0.112698 -7.12729e-19)
(0.394622 0.189163 -1.49638e-18)
(0.643309 0.28701 -1.38025e-18)
(0.91237 0.383091 1.15291e-18)
(1.02769 0.429469 3.70341e-19)
(0.0335954 -0.0218151 -3.22904e-19)
(0.0439848 -0.0383733 2.60115e-18)
(0.0266557 -0.0450339 5.43899e-19)
(-0.00367029 -0.0420978 7.77392e-19)
(-0.0407627 -0.032963 7.1159e-19)
(-0.0812252 -0.0204197 6.88317e-19)
(-0.111417 0.00342955 -2.48794e-19)
(-0.121179 0.00345765 4.48378e-19)
(-0.0921942 0.0318592 2.21493e-19)
(0.0454811 0.04033 9.86378e-19)
(0.289905 0.131674 4.73368e-20)
(0.586527 0.243885 1.03799e-18)
(0.831409 0.3453 -8.78535e-19)
(1.00116 0.404633 -8.79781e-19)
(1.10048 0.445121 6.10148e-19)
(0.0288354 -0.0210196 1.16324e-18)
(0.0314191 -0.0408407 -1.06861e-18)
(0.00779933 -0.0549702 1.06229e-19)
(-0.0277119 -0.0611045 -1.58674e-18)
(-0.0705515 -0.0619802 -1.31652e-18)
(-0.115929 -0.0597372 2.2705e-18)
(-0.150252 -0.0506446 6.54655e-19)
(-0.142313 -0.0523476 -9.41786e-19)
(-0.0563773 -0.0115908 2.51268e-19)
(0.20167 0.0751465 -2.67646e-18)
(0.50314 0.1956 9.31854e-19)
(0.765818 0.3028 -1.13096e-18)
(0.943144 0.37306 1.39333e-18)
(1.07156 0.421762 -1.49101e-19)
(1.14919 0.453623 -8.88264e-19)
(0.0210455 -0.0185987 -1.8137e-18)
(0.0154069 -0.0404459 -1.84459e-18)
(-0.0135501 -0.0604312 -1.89575e-18)
(-0.0527885 -0.0729132 -1.42011e-18)
(-0.0976582 -0.0795767 9.59217e-19)
(-0.140875 -0.0810918 -3.88131e-18)
(-0.163087 -0.0751251 3.5433e-19)
(-0.10516 -0.0639303 3.42315e-19)
(0.0850659 0.0152044 1.85445e-19)
(0.41063 0.144086 1.25554e-18)
(0.689652 0.25665 -1.037e-18)
(0.889468 0.338937 2.4935e-18)
(1.02865 0.395245 -5.38194e-19)
(1.11767 0.430928 -1.07488e-18)
(1.16371 0.446876 6.09852e-19)
(0.0111723 -0.0145865 3.19645e-19)
(-0.00198915 -0.0363843 1.49433e-18)
(-0.0339244 -0.0591237 2.12769e-18)
(-0.0732477 -0.0739369 3.5413e-19)
(-0.113372 -0.0807588 1.69384e-18)
(-0.142881 -0.0778494 9.48721e-19)
(-0.137595 -0.0652704 2.9394e-19)
(-0.00232369 -0.0285801 -1.5126e-18)
(0.288082 0.0920051 -9.25997e-20)
(0.598903 0.211102 6.65967e-19)
(0.828024 0.301922 2.55682e-18)
(0.985366 0.368131 -3.31123e-19)
(1.08288 0.40749 9.20744e-19)
(1.13889 0.429655 8.83666e-19)
(1.17992 0.444289 1.45826e-18)
(0.000555196 -0.00943776 5.85691e-19)
(-0.0186305 -0.0288752 -1.95996e-18)
(-0.0504697 -0.0512132 -4.26599e-19)
(-0.0850338 -0.0646385 2.50661e-20)
(-0.113977 -0.0670652 -3.14864e-18)
(-0.12131 -0.055544 8.14925e-19)
(-0.0781916 -0.0384065 -4.186e-19)
(0.15707 0.0409534 4.9639e-19)
(0.481474 0.166356 1.66276e-18)
(0.750947 0.264117 -5.8138e-19)
(0.935678 0.337925 -1.98493e-18)
(1.04898 0.385669 -2.78959e-19)
(1.11509 0.411664 -3.12193e-19)
(1.15796 0.430216 -6.82192e-19)
(1.18422 0.437293 -1.56986e-18)
(-0.00949111 -0.00392181 1.22304e-19)
(-0.0329968 -0.0191599 5.30353e-19)
(-0.061883 -0.0386589 -1.36818e-18)
(-0.087905 -0.0483234 5.74437e-19)
(-0.101497 -0.0447394 1.30262e-18)
(-0.0849078 -0.026491 -5.56812e-19)
(0.0133881 -0.00284442 -1.06381e-19)
(0.336989 0.114771 -1.30888e-18)
(0.645598 0.226324 2.76236e-19)
(0.871476 0.306429 -9.67312e-19)
(1.01048 0.362966 9.52572e-19)
(1.09143 0.396382 -7.96733e-19)
(1.13865 0.415188 1.42196e-18)
(1.16402 0.42589 -5.48254e-19)
(1.18448 0.429361 -1.15515e-18)
(-0.018018 0.00117458 6.24888e-19)
(-0.0443651 -0.00887087 3.91532e-19)
(-0.068376 -0.0242489 3.53659e-19)
(-0.0837555 -0.0296499 8.86913e-20)
(-0.0805589 -0.0209036 5.90893e-19)
(-0.040121 -0.00537624 -1.4243e-18)
(0.146078 0.0524689 7.95417e-19)
(0.504019 0.177654 1.88762e-18)
(0.780699 0.275471 -1.98461e-19)
(0.960796 0.338041 1.45452e-18)
(1.06369 0.380734 8.87339e-19)
(1.12045 0.40312 1.51112e-19)
(1.14921 0.413825 2.98502e-19)
(1.16863 0.421868 5.81923e-19)
(1.1871 0.424137 1.3531e-18)
(-0.0245852 0.00525623 9.48533e-19)
(-0.052703 0.000456224 1.35162e-18)
(-0.0709382 -0.0105784 -1.2164e-18)
(-0.0752212 -0.0123142 1.10455e-18)
(-0.0571815 -0.00189824 -2.53743e-18)
(0.0204311 0.00666709 6.21661e-19)
(0.313272 0.116306 -2.17298e-19)
(0.652902 0.231552 -1.17058e-18)
(0.886389 0.313738 -2.12305e-18)
(1.02629 0.361469 -8.2372e-19)
(1.09939 0.392755 -2.06743e-18)
(1.13657 0.405322 1.29708e-18)
(1.15726 0.413174 -1.77231e-18)
(1.17111 0.418193 1.22475e-18)
(1.18339 0.41654 8.48404e-19)
(-0.0291965 0.00802562 -2.24704e-18)
(-0.0584179 0.0077438 7.75753e-20)
(-0.0707865 0.000585828 1.60738e-19)
(-0.0646691 0.00198931 3.06555e-19)
(-0.0337051 0.00666418 1.69122e-19)
(0.116434 0.037178 1.19802e-18)
(0.477443 0.174068 6.60935e-19)
(0.777088 0.275758 -1.89175e-19)
(0.966599 0.342937 9.53591e-19)
(1.07169 0.378109 6.27504e-19)
(1.12204 0.400058 2.91474e-19)
(1.14807 0.406715 -7.33872e-19)
(1.16052 0.411339 2.44246e-18)
(1.17014 0.413138 4.28083e-19)
(1.18311 0.411519 -9.08711e-19)
(-0.0322054 0.00948008 2.06622e-18)
(-0.0621337 0.0124632 -1.47748e-18)
(-0.0689274 0.00846089 4.71728e-19)
(-0.0548155 0.0120756 -4.83449e-20)
(0.00120595 0.00417432 2.42046e-18)
(0.261385 0.0944206 -1.98564e-19)
(0.621818 0.224803 -7.95747e-19)
(0.876633 0.311515 1.97157e-18)
(1.0255 0.364609 1.87811e-19)
(1.10256 0.389553 8.22959e-19)
(1.13697 0.404939 -1.66022e-18)
(1.15327 0.406166 3.58481e-20)
(1.16163 0.409417 -7.70434e-19)
(1.17069 0.409739 -1.62683e-19)
(1.17999 0.406222 -5.35195e-19)
(-0.0341632 0.00981734 -5.52404e-19)
(-0.0644325 0.0145492 1.54323e-18)
(-0.0659441 0.0137039 9.3171e-19)
(-0.0464977 0.0146417 7.43419e-19)
(0.0644917 0.0121728 -3.99216e-19)
(0.421792 0.153458 -1.60166e-19)
(0.745392 0.267384 1.04863e-18)
(0.953944 0.339306 -8.3325e-19)
(1.06772 0.38029 2.60307e-19)
(1.1228 0.397459 -1.38055e-18)
(1.14493 0.407272 9.85173e-20)
(1.1565 0.405507 2.15207e-19)
(1.16216 0.408034 -3.20116e-19)
(1.16848 0.405349 -1.91639e-18)
(1.17701 0.401467 8.11572e-19)
(-0.0356784 0.00928072 -9.72745e-19)
(-0.0656611 0.0143549 -1.21748e-18)
(-0.0632472 0.0170651 6.40756e-19)
(-0.0320631 0.00801142 -8.34619e-20)
(0.172035 0.0556235 -9.8979e-19)
(0.562033 0.204305 -4.3084e-20)
(0.844813 0.302776 -7.32608e-19)
(1.01208 0.361036 -1.47067e-18)
(1.09705 0.391639 -6.09198e-19)
(1.13523 0.402527 5.68652e-19)
(1.14983 0.408699 5.28456e-19)
(1.1574 0.404546 -5.45776e-20)
(1.16061 0.406189 -8.56792e-19)
(1.16721 0.40193 1.57521e-18)
(1.17443 0.398056 4.94682e-19)
(-0.0372408 0.00806083 9.57593e-19)
(-0.0659228 0.01314 1.97374e-21)
(-0.0620475 0.0173116 -1.57171e-18)
(0.00254261 -0.00288072 -3.42343e-20)
(0.319123 0.11641 2.39349e-19)
(0.685365 0.248197 4.34606e-19)
(0.924544 0.33139 -7.85399e-19)
(1.05527 0.377506 4.08347e-19)
(1.11684 0.399499 -1.79822e-20)
(1.14277 0.406002 4.64457e-19)
(1.1515 0.409071 -4.21301e-19)
(1.15692 0.40351 -1.19336e-18)
(1.15954 0.405038 -5.82887e-20)
(1.16487 0.398497 -7.62443e-19)
(1.17014 0.394307 -6.65961e-19)
(-0.0390345 0.00637605 3.9048e-19)
(-0.0654242 0.012589 -7.96846e-19)
(-0.0601655 0.0128997 8.00332e-19)
(0.0672645 0.00681621 -2.54317e-19)
(0.463819 0.1698 -1.37214e-19)
(0.789062 0.284804 -3.93821e-19)
(0.985639 0.354259 6.17718e-19)
(1.0858 0.390009 4.04487e-19)
(1.12959 0.405198 -2.4299e-19)
(1.14644 0.40819 -6.97386e-19)
(1.15191 0.409156 -2.54699e-19)
(1.15589 0.40281 1.22173e-18)
(1.15705 0.403576 7.5214e-19)
(1.16225 0.395329 7.47661e-19)
(1.16714 0.392035 -2.32894e-19)
(-0.0408686 0.00452663 -2.45014e-19)
(-0.0650847 0.0128798 8.8126e-20)
(-0.0504265 0.00302371 -3.31653e-19)
(0.167126 0.0520786 -3.25191e-21)
(0.586232 0.215855 -2.56641e-19)
(0.873206 0.316261 -3.84613e-19)
(1.03245 0.372705 1.33965e-19)
(1.10745 0.399408 -8.04714e-19)
(1.13742 0.40911 7.22364e-19)
(1.14808 0.409766 9.29595e-19)
(1.151 0.409007 1.21331e-19)
(1.15377 0.402057 -1.06037e-18)
(1.15481 0.402476 -1.04042e-18)
(1.15962 0.392719 -7.92023e-19)
(1.16253 0.389574 3.22426e-19)
(-0.042523 0.00335556 -7.91398e-19)
(-0.0660713 0.0118082 2.17416e-19)
(-0.0228348 -0.00937301 -1.59328e-19)
(0.300095 0.111032 -2.28666e-21)
(0.695248 0.255302 -6.44968e-20)
(0.941226 0.341725 -1.47468e-19)
(1.06712 0.387084 2.72516e-19)
(1.12171 0.406452 -1.59184e-19)
(1.14166 0.412102 -2.07389e-19)
(1.14788 0.410913 -4.0334e-19)
(1.1494 0.408829 -3.59389e-19)
(1.15162 0.401718 -1.65934e-19)
(1.15187 0.401339 6.45572e-19)
(1.15615 0.390158 -2.5576e-20)
(1.15867 0.388027 5.14992e-19)
(-0.04385 0.00417763 3.28967e-19)
(-0.0675209 0.00794097 5.47967e-19)
(0.0282164 -0.00980674 9.27193e-20)
(0.436172 0.161991 3.40332e-19)
(0.788544 0.28871 7.47671e-19)
(0.993945 0.362741 2.75894e-19)
(1.09207 0.398586 1.01799e-18)
(1.13105 0.411947 5.3794e-19)
(1.14357 0.414359 3.4371e-19)
(1.14686 0.411893 7.91926e-19)
(1.14731 0.408764 2.46705e-19)
(1.14868 0.401394 4.53883e-19)
(1.14878 0.400318 2.25989e-19)
(1.15295 0.388271 1.07284e-19)
(1.15399 0.386635 3.55429e-19)
(-0.044677 0.00747545 4.58952e-19)
(-0.0662849 0.001297 -7.80001e-19)
(0.101856 0.0149296 -1.50248e-19)
(0.551289 0.205499 3.57852e-19)
(0.866112 0.318737 -7.55093e-19)
(1.03527 0.380252 -3.08756e-19)
(1.10982 0.407605 -6.29073e-19)
(1.13644 0.416193 -2.14644e-20)
(1.14373 0.416318 -1.70366e-19)
(1.14494 0.412843 -6.67574e-19)
(1.14469 0.408786 5.10016e-19)
(1.14574 0.401383 3.88462e-20)
(1.14544 0.399448 -2.19608e-20)
(1.14893 0.386499 1.88362e-19)
(1.14939 0.385609 -4.36254e-19)
(-0.0453253 0.0117696 -3.35943e-20)
(-0.0568968 -0.00798108 3.42443e-19)
(0.200318 0.062214 9.51903e-20)
(0.651123 0.244039 -5.01854e-19)
(0.929541 0.344228 3.3481e-19)
(1.06646 0.394714 1.07119e-19)
(1.12171 0.414944 -2.81197e-19)
(1.13923 0.419789 -1.33761e-19)
(1.1428 0.418092 -4.06995e-19)
(1.14262 0.41382 7.26126e-20)
(1.14187 0.409025 -4.94242e-19)
(1.14226 0.401451 -3.5206e-19)
(1.14173 0.398626 9.46911e-20)
(1.14507 0.385289 9.86487e-20)
(1.14459 0.384882 -1.71727e-19)
(-0.0464289 0.0137744 -1.70314e-19)
(-0.0344108 -0.0157367 -1.08529e-19)
(0.316102 0.114467 2.33375e-19)
(0.738257 0.276559 4.3115e-19)
(0.979946 0.365641 8.39269e-20)
(1.08965 0.406736 -2.31067e-19)
(1.12959 0.42102 2.9116e-19)
(1.1401 0.422887 2.5444e-19)
(1.14101 0.419864 1.32591e-19)
(1.13979 0.414928 2.53447e-20)
(1.1386 0.409408 1.59225e-19)
(1.13867 0.401733 7.07081e-20)
(1.13793 0.398036 -5.00348e-20)
(1.14062 0.384277 -6.31732e-20)
(1.13953 0.384186 5.62505e-20)
(-0.0481144 0.0106019 -7.92585e-20)
(0.00239569 -0.0161124 -9.3158e-20)
(0.432371 0.161828 7.67301e-20)
(0.814438 0.305729 -1.01625e-19)
(1.01995 0.383502 -2.18484e-19)
(1.10625 0.416598 1.6711e-20)
(1.1341 0.426227 1.34648e-19)
(1.13961 0.425853 -1.21762e-19)
(1.13865 0.421725 8.07598e-20)
(1.13669 0.416155 1.63445e-19)