/*--------------------------------*- C++ -*----------------------------------*\
  =========                 |
  \\      /  F ield         | OpenFOAM: The Open Source CFD Toolbox
   \\    /   O peration     | Website:  https://openfoam.org
    \\  /    A nd           | Version:  7
     \\/     M anipulation  |
\*---------------------------------------------------------------------------*/
FoamFile
{
    version     2.0;
    format      ascii;
    class       volScalarField;
    location    "12.9987";
    object      p;
}
// * * * * * * * * * * * * * * * * * * * * * * * * * * * * * * * * * * * * * //

dimensions      [0 2 -2 0 0 0 0];

internalField   nonuniform List<scalar> 
18750
(
-0.0315925
-0.045128
-0.0693765
-0.104866
-0.149525
-0.202128
-0.260971
-0.32452
-0.391273
-0.459976
-0.529397
-0.598303
-0.665492
-0.729952
-0.790869
-0.0370533
-0.0502248
-0.0741372
-0.10933
-0.153732
-0.206112
-0.264756
-0.328113
-0.394662
-0.463151
-0.532375
-0.601126
-0.668175
-0.732438
-0.793089
-0.047724
-0.0601878
-0.0834379
-0.118042
-0.161931
-0.213861
-0.272099
-0.335063
-0.401197
-0.469248
-0.538059
-0.606476
-0.673238
-0.737146
-0.797334
-0.0631178
-0.0745689
-0.0968507
-0.13059
-0.173717
-0.224965
-0.282579
-0.344937
-0.410438
-0.477817
-0.545981
-0.613854
-0.680176
-0.743626
-0.80325
-0.0825514
-0.0927315
-0.113771
-0.146399
-0.18853
-0.23887
-0.295639
-0.357175
-0.421825
-0.488305
-0.555578
-0.622683
-0.688414
-0.751354
-0.810414
-0.105198
-0.113877
-0.133459
-0.16478
-0.205712
-0.254935
-0.310647
-0.371153
-0.434751
-0.500124
-0.566286
-0.632405
-0.697399
-0.759821
-0.818402
-0.130152
-0.13708
-0.155089
-0.184976
-0.224551
-0.272479
-0.326946
-0.386236
-0.448608
-0.512711
-0.577583
-0.64253
-0.706656
-0.76857
-0.82682
-0.156402
-0.161392
-0.177816
-0.206213
-0.244324
-0.29082
-0.343891
-0.401813
-0.462828
-0.525543
-0.589007
-0.652646
-0.715786
-0.777196
-0.835284
-0.182889
-0.185881
-0.200825
-0.22774
-0.264333
-0.309311
-0.360879
-0.417324
-0.476886
-0.538149
-0.60015
-0.662397
-0.724444
-0.785319
-0.843388
-0.208586
-0.209667
-0.223362
-0.248854
-0.283925
-0.327353
-0.37736
-0.432259
-0.490313
-0.550099
-0.610631
-0.671456
-0.732316
-0.792565
-0.850692
-0.232543
-0.231987
-0.244759
-0.268921
-0.302519
-0.344414
-0.392846
-0.44617
-0.50269
-0.561
-0.620091
-0.679508
-0.739105
-0.798572
-0.856735
-0.253937
-0.252266
-0.264434
-0.287385
-0.319612
-0.360032
-0.406913
-0.458662
-0.513645
-0.570488
-0.62818
-0.686234
-0.744533
-0.803015
-0.861058
-0.272108
-0.270151
-0.281882
-0.303789
-0.334797
-0.373827
-0.419203
-0.469399
-0.522852
-0.57824
-0.634562
-0.691312
-0.748334
-0.805643
-0.863207
-0.28678
-0.28529
-0.296677
-0.317796
-0.347762
-0.385495
-0.429426
-0.478096
-0.530029
-0.58397
-0.638934
-0.694415
-0.750236
-0.806299
-0.862752
-0.298004
-0.297377
-0.308551
-0.329206
-0.358297
-0.394811
-0.437364
-0.484525
-0.534942
-0.587435
-0.641034
-0.695239
-0.749918
-0.804879
-0.859588
-0.305922
-0.306247
-0.317599
-0.337965
-0.366284
-0.401644
-0.442865
-0.488511
-0.537404
-0.58843
-0.640652
-0.693546
-0.747038
-0.801113
-0.853953
-0.310868
-0.312152
-0.323894
-0.344098
-0.371732
-0.406006
-0.445794
-0.489946
-0.537283
-0.586797
-0.637621
-0.689171
-0.741415
-0.794562
-0.84599
-0.313435
-0.315589
-0.327634
-0.347664
-0.374636
-0.407826
-0.446208
-0.488796
-0.534511
-0.582436
-0.631814
-0.682002
-0.732843
-0.78522
-0.835221
-0.314426
-0.317141
-0.329112
-0.348812
-0.375088
-0.407169
-0.444121
-0.485067
-0.529071
-0.575302
-0.623146
-0.672002
-0.721233
-0.772981
-0.821431
-0.314694
-0.317348
-0.328643
-0.34777
-0.373271
-0.404173
-0.439606
-0.47881
-0.520996
-0.565399
-0.611553
-0.659177
-0.706579
-0.75775
-0.804614
-0.314904
-0.316566
-0.326516
-0.344821
-0.369423
-0.399027
-0.432811
-0.47013
-0.510361
-0.552806
-0.597003
-0.643542
-0.688956
-0.739547
-0.784851
-0.315235
-0.314824
-0.323003
-0.340293
-0.363808
-0.391952
-0.423932
-0.459183
-0.497266
-0.537682
-0.579532
-0.625118
-0.668485
-0.718509
-0.762363
-0.315255
-0.311862
-0.318453
-0.33455
-0.356701
-0.383186
-0.413201
-0.446172
-0.481816
-0.520218
-0.559266
-0.60395
-0.645276
-0.694727
-0.737549
-0.314234
-0.307637
-0.313381
-0.327969
-0.348397
-0.373005
-0.400868
-0.431361
-0.464114
-0.500573
-0.536422
-0.580146
-0.6195
-0.668144
-0.710623
-0.311812
-0.303014
-0.308381
-0.320909
-0.339243
-0.36175
-0.387204
-0.415065
-0.444304
-0.478831
-0.511252
-0.553824
-0.591538
-0.638907
-0.681533
-0.308099
-0.299509
-0.303825
-0.313749
-0.329698
-0.349861
-0.372486
-0.397595
-0.422654
-0.455003
-0.484022
-0.524929
-0.561813
-0.607499
-0.650438
-0.304031
-0.297729
-0.299712
-0.306983
-0.32035
-0.337893
-0.357051
-0.379187
-0.399582
-0.429077
-0.455125
-0.493288
-0.530441
-0.574315
-0.617905
-0.300469
-0.296904
-0.296137
-0.301291
-0.311859
-0.326476
-0.341376
-0.360023
-0.375605
-0.401007
-0.425141
-0.458956
-0.497522
-0.539462
-0.585038
-0.297847
-0.296088
-0.293729
-0.29733
-0.304846
-0.316237
-0.326173
-0.340294
-0.351353
-0.370803
-0.394452
-0.422202
-0.463331
-0.502332
-0.553096
-0.296156
-0.295001
-0.292996
-0.295175
-0.299816
-0.307709
-0.312412
-0.320388
-0.327422
-0.338827
-0.363493
-0.383346
-0.429433
-0.460687
-0.521557
-0.295074
-0.294145
-0.293261
-0.294451
-0.297077
-0.301314
-0.301083
-0.301158
-0.304502
-0.306305
-0.332143
-0.345272
-0.395192
-0.422141
-0.483411
-0.294271
-0.293615
-0.293636
-0.294835
-0.296538
-0.297298
-0.29292
-0.283962
-0.282884
-0.276826
-0.299615
-0.312793
-0.360676
-0.390869
-0.449986
-0.29351
-0.293226
-0.293988
-0.295913
-0.297495
-0.295701
-0.287739
-0.271313
-0.262552
-0.253182
-0.266353
-0.286024
-0.326904
-0.366467
-0.422111
-0.292573
-0.29274
-0.29428
-0.297075
-0.298988
-0.296111
-0.284904
-0.264119
-0.246161
-0.235521
-0.241775
-0.265449
-0.30114
-0.348742
-0.396545
-0.291275
-0.291946
-0.294259
-0.297815
-0.30025
-0.297448
-0.284099
-0.261736
-0.236752
-0.223875
-0.228874
-0.252991
-0.286157
-0.334092
-0.37729
-0.289479
-0.29065
-0.293603
-0.297791
-0.300706
-0.298588
-0.28498
-0.262813
-0.234902
-0.220309
-0.225035
-0.24845
-0.278817
-0.321009
-0.362671
-0.287119
-0.288711
-0.292064
-0.296617
-0.29995
-0.298816
-0.287002
-0.26667
-0.240181
-0.226882
-0.228706
-0.248767
-0.275753
-0.312075
-0.351023
-0.284227
-0.286111
-0.289536
-0.294082
-0.297678
-0.297855
-0.290079
-0.27402
-0.25058
-0.238387
-0.23759
-0.251987
-0.275837
-0.306352
-0.340888
-0.280987
-0.282956
-0.286105
-0.290236
-0.293923
-0.296219
-0.295184
-0.285856
-0.267401
-0.253097
-0.248663
-0.257661
-0.277048
-0.302324
-0.332241
-0.277708
-0.279563
-0.28216
-0.285679
-0.289431
-0.294389
-0.302329
-0.299051
-0.282996
-0.267021
-0.25936
-0.263599
-0.278415
-0.299132
-0.324395
-0.274749
-0.276353
-0.278343
-0.281228
-0.284985
-0.292443
-0.308525
-0.309609
-0.29535
-0.277836
-0.267795
-0.268502
-0.279393
-0.295994
-0.317105
-0.27236
-0.273653
-0.275074
-0.277369
-0.280915
-0.290271
-0.309191
-0.315112
-0.302251
-0.284741
-0.273496
-0.271845
-0.279558
-0.292641
-0.310127
-0.270615
-0.271556
-0.272462
-0.274143
-0.276773
-0.287486
-0.302916
-0.314044
-0.304027
-0.28799
-0.276669
-0.273515
-0.278792
-0.28891
-0.303285
-0.269423
-0.269983
-0.270353
-0.271204
-0.272188
-0.28222
-0.293597
-0.307029
-0.301546
-0.288293
-0.27771
-0.273743
-0.277132
-0.284779
-0.296525
-0.268636
-0.268788
-0.268544
-0.268168
-0.267604
-0.27345
-0.284835
-0.297765
-0.296296
-0.286369
-0.277084
-0.272781
-0.274679
-0.280272
-0.289786
-0.268134
-0.267879
-0.266967
-0.264954
-0.263578
-0.262511
-0.277183
-0.288849
-0.289783
-0.282936
-0.275148
-0.270855
-0.271568
-0.275438
-0.283053
-0.267858
-0.267244
-0.265487
-0.262352
-0.25981
-0.255869
-0.270355
-0.280936
-0.283117
-0.278607
-0.272244
-0.268155
-0.267912
-0.270346
-0.276328
-0.267816
-0.266982
-0.264294
-0.2614
-0.254309
-0.254454
-0.265228
-0.274177
-0.276799
-0.273852
-0.268651
-0.264828
-0.263815
-0.265045
-0.269594
-0.268058
-0.267059
-0.263669
-0.262646
-0.249938
-0.254508
-0.26192
-0.268668
-0.271041
-0.268965
-0.264602
-0.261001
-0.259348
-0.259579
-0.262861
-0.268702
-0.267589
-0.264949
-0.263091
-0.251769
-0.254826
-0.259729
-0.26429
-0.265896
-0.264119
-0.260259
-0.256781
-0.254584
-0.25398
-0.25611
-0.269778
-0.268489
-0.26812
-0.260833
-0.257018
-0.256215
-0.258308
-0.260746
-0.261302
-0.259392
-0.255741
-0.252259
-0.249571
-0.248263
-0.249341
-0.271273
-0.269706
-0.272384
-0.259196
-0.260078
-0.257886
-0.257433
-0.257802
-0.25715
-0.25481
-0.251116
-0.247505
-0.244362
-0.242447
-0.242543
-0.273067
-0.271769
-0.27502
-0.262978
-0.261986
-0.259097
-0.256789
-0.255254
-0.253326
-0.250357
-0.246428
-0.242578
-0.23899
-0.236536
-0.235715
-0.2751
-0.275436
-0.274735
-0.270694
-0.265018
-0.260024
-0.25606
-0.252889
-0.249717
-0.246004
-0.241693
-0.237509
-0.233485
-0.230535
-0.228859
-0.277205
-0.280627
-0.271992
-0.275424
-0.268042
-0.26087
-0.255236
-0.250588
-0.24623
-0.241709
-0.236912
-0.232322
-0.22786
-0.224438
-0.221974
-0.279397
-0.285713
-0.270301
-0.275921
-0.269727
-0.261506
-0.254356
-0.248301
-0.242794
-0.237435
-0.232077
-0.227022
-0.222122
-0.218244
-0.215059
-0.282012
-0.289026
-0.273765
-0.275362
-0.270061
-0.261601
-0.253326
-0.245984
-0.239359
-0.233139
-0.22717
-0.221612
-0.21627
-0.211948
-0.208112
-0.285483
-0.289958
-0.281702
-0.276663
-0.269907
-0.261111
-0.252011
-0.243558
-0.235872
-0.228788
-0.222171
-0.216081
-0.2103
-0.205552
-0.201136
-0.290222
-0.288765
-0.289524
-0.280057
-0.270253
-0.260291
-0.25035
-0.24093
-0.232266
-0.224337
-0.217055
-0.210421
-0.204205
-0.199051
-0.194139
-0.296897
-0.28675
-0.295012
-0.284009
-0.271271
-0.259461
-0.248405
-0.23804
-0.228472
-0.219736
-0.211795
-0.204613
-0.197975
-0.192445
-0.187118
-0.305576
-0.287887
-0.298034
-0.287381
-0.272552
-0.258712
-0.246256
-0.234869
-0.224432
-0.214934
-0.206354
-0.19864
-0.191598
-0.185721
-0.18005
-0.31569
-0.294815
-0.300146
-0.289651
-0.273521
-0.25788
-0.243918
-0.231419
-0.22011
-0.209886
-0.2007
-0.192476
-0.185053
-0.178865
-0.172895
-0.326314
-0.307073
-0.303128
-0.290877
-0.273752
-0.256689
-0.241312
-0.227673
-0.215485
-0.204559
-0.194797
-0.186096
-0.178321
-0.171847
-0.165614
-0.335823
-0.321021
-0.307519
-0.291483
-0.273086
-0.254894
-0.238313
-0.223591
-0.210534
-0.198926
-0.188617
-0.179469
-0.171373
-0.164647
-0.158188
-0.342643
-0.332568
-0.31231
-0.2918
-0.271608
-0.252382
-0.234801
-0.219114
-0.205232
-0.192965
-0.182133
-0.172567
-0.164177
-0.157241
-0.150616
-0.345985
-0.3399
-0.315883
-0.291714
-0.269489
-0.249166
-0.23071
-0.214182
-0.199546
-0.186657
-0.175325
-0.16536
-0.1567
-0.149597
-0.142878
-0.346382
-0.343186
-0.317595
-0.290935
-0.266815
-0.245322
-0.226028
-0.208754
-0.193441
-0.179976
-0.168172
-0.157831
-0.148918
-0.141668
-0.134903
-0.345402
-0.343576
-0.317488
-0.289266
-0.263571
-0.240905
-0.22077
-0.202808
-0.186888
-0.172901
-0.160659
-0.149969
-0.140817
-0.13341
-0.126571
-0.344306
-0.342315
-0.315879
-0.286648
-0.2597
-0.235927
-0.214951
-0.196334
-0.179863
-0.165405
-0.152767
-0.141767
-0.132405
-0.124828
-0.117743
-0.343801
-0.340299
-0.313139
-0.283113
-0.255146
-0.230366
-0.208572
-0.189324
-0.172349
-0.157467
-0.144477
-0.133212
-0.123691
-0.115986
-0.108312
-0.344064
-0.337981
-0.309554
-0.278725
-0.24987
-0.224184
-0.201615
-0.181767
-0.164327
-0.149072
-0.135776
-0.124294
-0.114684
-0.106951
-0.0982925
-0.344908
-0.335541
-0.305312
-0.27354
-0.243843
-0.217337
-0.19405
-0.173642
-0.155784
-0.140208
-0.126659
-0.115018
-0.105386
-0.0976966
-0.0879218
-0.345923
-0.332993
-0.300497
-0.267584
-0.237038
-0.209775
-0.185838
-0.164928
-0.146708
-0.130871
-0.117138
-0.105412
-0.0958265
-0.0880439
-0.0775888
-0.346608
-0.3302
-0.295094
-0.260845
-0.229415
-0.201451
-0.176942
-0.155604
-0.137093
-0.121066
-0.107232
-0.0955095
-0.0860567
-0.0778438
-0.0673664
-0.346518
-0.3268
-0.288986
-0.253273
-0.220932
-0.192324
-0.167333
-0.145662
-0.126946
-0.110806
-0.0969533
-0.085322
-0.0759506
-0.0672475
-0.0571589
-0.345278
-0.32235
-0.281992
-0.244791
-0.211547
-0.182366
-0.157003
-0.13511
-0.116278
-0.100102
-0.0862864
-0.0748072
-0.0654477
-0.0564068
-0.0468746
-0.342552
-0.316533
-0.273919
-0.235308
-0.201223
-0.171571
-0.145965
-0.12396
-0.105083
-0.0889263
-0.0752321
-0.0639337
-0.0545564
-0.0453958
-0.0364601
-0.33808
-0.309134
-0.264594
-0.224745
-0.189937
-0.159954
-0.134234
-0.112187
-0.093334
-0.0772828
-0.0637871
-0.0526938
-0.0433288
-0.0342235
-0.0259038
-0.331666
-0.300014
-0.253877
-0.213035
-0.177693
-0.147539
-0.121772
-0.0997669
-0.0810314
-0.065179
-0.0519515
-0.0410981
-0.0318169
-0.022879
-0.0152168
-0.323188
-0.289111
-0.241661
-0.200144
-0.164518
-0.134278
-0.108556
-0.0866989
-0.068185
-0.0526254
-0.0397338
-0.0291646
-0.0200454
-0.0113598
-0.00440934
-0.312583
-0.276442
-0.227867
-0.186067
-0.150369
-0.120144
-0.0945874
-0.0729936
-0.0548095
-0.0396366
-0.0271489
-0.0169118
-0.00802233
0.000334786
0.00651169
-0.299836
-0.262074
-0.212485
-0.170775
-0.135185
-0.105143
-0.0798826
-0.0586688
-0.0409234
-0.0262312
-0.0142155
-0.00435656
0.00424763
0.0122057
0.0175268
-0.284969
-0.246043
-0.195635
-0.154173
-0.118956
-0.0892917
-0.0644647
-0.0437482
-0.0265495
-0.0124294
-0.00095093
0.00848623
0.0167502
0.0242324
0.028591
-0.268047
-0.228239
-0.177439
-0.136313
-0.101702
-0.072613
-0.048363
-0.0282611
-0.0117132
0.00174929
0.0126328
0.0216039
0.0294512
0.0363414
0.0396508
-0.249186
-0.208406
-0.158065
-0.117332
-0.0834742
-0.0551394
-0.031611
-0.0122407
0.0035578
0.0162885
0.0265304
0.0349855
0.0422982
0.0484003
0.0506124
-0.228537
-0.186486
-0.13754
-0.0973623
-0.064352
-0.0369157
-0.0142474
0.00427672
0.0192353
0.031174
0.040739
0.0486161
0.0552287
0.0602457
0.0611808
-0.206205
-0.162798
-0.115757
-0.0764847
-0.0444214
-0.0179998
0.00368305
0.0212522
0.0352902
0.0463899
0.0552466
0.0624621
0.0681692
0.0717054
0.0708142
-0.182164
-0.137833
-0.0927447
-0.0547344
-0.0237597
0.00154202
0.0221286
0.0386446
0.0516925
0.0619135
0.070019
0.0764551
0.0810162
0.0826373
0.0793246
-0.156376
-0.112016
-0.0686557
-0.032147
-0.00243322
0.0216402
0.0410322
0.05641
0.0684088
0.0777098
0.0849909
0.0904882
0.0936543
0.0931408
0.0877618
-0.129053
-0.0854003
-0.0436632
-0.0087952
0.0194922
0.0422251
0.0603335
0.0745011
0.0853998
0.0937291
0.100077
0.104449
0.106043
0.10377
0.0982582
-0.10043
-0.0579796
-0.0179136
0.0152174
0.041942
0.0632263
0.0799701
0.0928665
0.102617
0.109909
0.115199
0.118285
0.118301
0.114843
0.112695
-0.0707318
-0.0298053
0.00847038
0.039777
0.0648309
0.0845708
0.099878
0.111449
0.120001
0.12618
0.130303
0.132037
0.130666
0.12666
0.126742
-0.0401555
-0.000975983
0.0353743
0.06477
0.0880666
0.106182
0.11999
0.130188
0.137489
0.14248
0.145361
0.145775
0.143289
0.139165
0.140036
-0.00888902
0.0283773
0.0626821
0.0900855
0.111553
0.127979
0.140235
0.149016
0.155016
0.158756
0.160365
0.159532
0.156112
0.151893
0.152647
0.0228906
0.0581121
0.0902731
0.115614
0.135194
0.14988
0.160541
0.167864
0.172519
0.174967
0.175308
0.173315
0.16909
0.16465
0.164762
0.0550094
0.0880803
0.118023
0.141245
0.158891
0.171798
0.180831
0.186665
0.18994
0.191076
0.190164
0.187061
0.182051
0.177216
0.176541
0.087299
0.118135
0.145806
0.166869
0.182547
0.193648
0.201029
0.20535
0.207225
0.207043
0.204904
0.200737
0.194945
0.189561
0.188019
0.119594
0.148133
0.173495
0.192377
0.206065
0.215344
0.221058
0.223853
0.224317
0.22282
0.219469
0.214252
0.207652
0.201651
0.199233
0.151732
0.177931
0.200967
0.217658
0.229349
0.236799
0.240842
0.242107
0.241162
0.238363
0.233824
0.227573
0.220146
0.213459
0.210153
0.183556
0.207393
0.2281
0.242605
0.252303
0.25793
0.260307
0.260047
0.257703
0.253613
0.247898
0.240622
0.232368
0.224986
0.220778
0.214914
0.236385
0.254775
0.267113
0.274835
0.278654
0.279379
0.277611
0.273884
0.268525
0.261657
0.253371
0.244281
0.236174
0.231069
0.245658
0.264777
0.280876
0.291079
0.296851
0.298889
0.297987
0.294732
0.289645
0.283037
0.275037
0.265764
0.255861
0.247029
0.241007
0.275645
0.292445
0.306293
0.314403
0.318265
0.318556
0.316061
0.311352
0.304934
0.297109
0.288005
0.277764
0.267054
0.25749
0.250562
0.30474
0.319269
0.330918
0.336991
0.338991
0.33758
0.333532
0.327406
0.319693
0.310682
0.300508
0.289337
0.277847
0.267549
0.259708
0.33281
0.345134
0.354649
0.358749
0.358945
0.355887
0.350336
0.342839
0.333873
0.323716
0.312507
0.300436
0.288187
0.277165
0.268422
0.359732
0.36993
0.377387
0.37959
0.378051
0.373407
0.366409
0.357593
0.34742
0.336162
0.323966
0.311038
0.298057
0.286315
0.27668
0.385389
0.393556
0.39904
0.399432
0.396233
0.390074
0.381694
0.371616
0.36029
0.34798
0.334839
0.321097
0.307416
0.294973
0.284462
0.409668
0.415912
0.419522
0.418194
0.413421
0.405823
0.39613
0.384855
0.372435
0.359129
0.3451
0.330589
0.316239
0.30311
0.291748
0.432467
0.436908
0.438749
0.435805
0.429548
0.420597
0.409668
0.397265
0.383814
0.36957
0.354707
0.339478
0.324498
0.310706
0.298521
0.45369
0.456459
0.456646
0.452195
0.444554
0.434339
0.422256
0.4088
0.394387
0.379271
0.363633
0.347737
0.332164
0.317738
0.304765
0.473245
0.474488
0.473144
0.467302
0.458382
0.446999
0.43385
0.419419
0.404117
0.388195
0.371847
0.35534
0.339215
0.324187
0.310467
0.491052
0.490926
0.488181
0.481068
0.47098
0.458529
0.444406
0.429086
0.412971
0.396316
0.379322
0.362259
0.345627
0.330034
0.315615
0.507034
0.505712
0.5017
0.493441
0.4823
0.468887
0.453886
0.437765
0.420919
0.403604
0.386032
0.368472
0.351379
0.335265
0.320199
0.521131
0.51879
0.51365
0.504375
0.4923
0.478036
0.462257
0.445426
0.427933
0.410035
0.391955
0.373958
0.356454
0.339865
0.324212
0.533303
0.530101
0.523984
0.513825
0.500942
0.48594
0.469488
0.452042
0.433989
0.415588
0.397071
0.378698
0.360834
0.343821
0.327647
0.543519
0.539589
0.532657
0.521756
0.508193
0.492571
0.475554
0.457591
0.439067
0.420245
0.401363
0.382675
0.364505
0.347126
0.330504
0.551742
0.547218
0.539635
0.528136
0.514027
0.497905
0.480432
0.462053
0.443149
0.423989
0.404814
0.385875
0.367455
0.349772
0.332783
0.557941
0.552962
0.544891
0.532943
0.518421
0.501923
0.484106
0.465413
0.446223
0.426808
0.407414
0.388284
0.369674
0.351756
0.334487
0.562088
0.556802
0.548405
0.536156
0.521359
0.504609
0.486562
0.467659
0.448278
0.428692
0.409152
0.389896
0.371157
0.353077
0.335619
0.564165
0.558725
0.550165
0.537766
0.522831
0.505954
0.487793
0.468784
0.449307
0.429636
0.410022
0.390703
0.371899
0.353737
0.336184
0.564165
0.558725
0.550165
0.537766
0.522831
0.505954
0.487792
0.468784
0.449307
0.429636
0.410022
0.390703
0.371899
0.353737
0.336184
0.562087
0.556801
0.548405
0.536156
0.521359
0.504609
0.486562
0.467659
0.448278
0.428692
0.409151
0.389896
0.371157
0.353077
0.335619
0.55794
0.552961
0.54489
0.532942
0.51842
0.501922
0.484105
0.465412
0.446223
0.426807
0.407413
0.388284
0.369674
0.351755
0.334486
0.551741
0.547217
0.539634
0.528135
0.514026
0.497904
0.480431
0.462052
0.443149
0.423988
0.404813
0.385874
0.367454
0.349771
0.332782
0.543517
0.539588
0.532656
0.521755
0.508192
0.49257
0.475553
0.45759
0.439066
0.420244
0.401362
0.382674
0.364504
0.347125
0.330503
0.533301
0.530099
0.523982
0.513823
0.50094
0.485938
0.469487
0.452041
0.433987
0.415587
0.39707
0.378697
0.360833
0.34382
0.327646
0.521129
0.518788
0.513648
0.504373
0.492298
0.478034
0.462255
0.445424
0.427931
0.410034
0.391954
0.373957
0.356452
0.339863
0.32421
0.507032
0.50571
0.501697
0.493439
0.482298
0.468885
0.453884
0.437763
0.420917
0.403602
0.38603
0.36847
0.351378
0.335264
0.320198
0.491049
0.490923
0.488178
0.481066
0.470978
0.458527
0.444404
0.429084
0.412969
0.396314
0.37932
0.362257
0.345625
0.330033
0.315613
0.473242
0.474485
0.473141
0.467299
0.45838
0.446996
0.433847
0.419417
0.404115
0.388193
0.371845
0.355338
0.339213
0.324185
0.310465
0.453686
0.456456
0.456643
0.452192
0.444551
0.434336
0.422254
0.408798
0.394385
0.379268
0.363631
0.347735
0.332162
0.317736
0.304763
0.432463
0.436904
0.438745
0.435802
0.429545
0.420594
0.409665
0.397262
0.383811
0.369567
0.354705
0.339476
0.324496
0.310704
0.298519
0.409664
0.415908
0.419518
0.418191
0.413417
0.40582
0.396127
0.384852
0.372432
0.359127
0.345097
0.330586
0.316237
0.303107
0.291746
0.385384
0.393551
0.399036
0.399428
0.396229
0.39007
0.38169
0.371613
0.360287
0.347976
0.334836
0.321094
0.307414
0.29497
0.28446
0.359727
0.369926
0.377382
0.379586
0.378047
0.373404
0.366406
0.357589
0.347417
0.336159
0.323962
0.311035
0.298054
0.286312
0.276677
0.332804
0.345129
0.354644
0.358744
0.358941
0.355883
0.350332
0.342836
0.33387
0.323713
0.312504
0.300433
0.288184
0.277162
0.268419
0.304734
0.319263
0.330913
0.336986
0.338986
0.337576
0.333528
0.327402
0.319689
0.310678
0.300504
0.289334
0.277843
0.267546
0.259705
0.275639
0.292439
0.306288
0.314398
0.31826
0.318552
0.316056
0.311347
0.30493
0.297105
0.288001
0.27776
0.26705
0.257486
0.250559
0.245652
0.264771
0.280871
0.291073
0.296846
0.298884
0.297982
0.294728
0.28964
0.283033
0.275033
0.26576
0.255857
0.247025
0.241004
0.214907
0.236379
0.254769
0.267107
0.274829
0.278649
0.279374
0.277606
0.273879
0.26852
0.261653
0.253367
0.244277
0.23617
0.231066
0.183549
0.207386
0.228094
0.242599
0.252298
0.257925
0.260302
0.260042
0.257698
0.253608
0.247893
0.240618
0.232364
0.224982
0.220775
0.151724
0.177924
0.20096
0.217651
0.229343
0.236794
0.240837
0.242101
0.241157
0.238358
0.233819
0.227569
0.220141
0.213454
0.210149
0.119585
0.148125
0.173488
0.19237
0.206059
0.215338
0.221052
0.223847
0.224312
0.222815
0.219465
0.214247
0.207648
0.201647
0.199229
0.0872906
0.118128
0.145798
0.166862
0.18254
0.193642
0.201023
0.205344
0.207219
0.207037
0.204898
0.200733
0.19494
0.189556
0.188015
0.0550006
0.088072
0.118015
0.141238
0.158884
0.171791
0.180825
0.186659
0.189934
0.19107
0.190159
0.187056
0.182047
0.177211
0.176537
0.0228814
0.0581035
0.090265
0.115606
0.135186
0.149873
0.160534
0.167858
0.172513
0.174962
0.175303
0.173309
0.169084
0.164645
0.164757
-0.0088986
0.0283684
0.0626736
0.0900776
0.111546
0.127972
0.140228
0.149009
0.155009
0.15875
0.16036
0.159527
0.156106
0.151888
0.152642
-0.0401654
-0.000985316
0.0353655
0.0647617
0.0880587
0.106175
0.119983
0.130181
0.137483
0.142473
0.145355
0.14577
0.143284
0.13916
0.140031
-0.0707422
-0.029815
0.00846126
0.0397684
0.0648228
0.0845631
0.0998706
0.111442
0.119995
0.126174
0.130297
0.132031
0.13066
0.126654
0.126737
-0.100441
-0.0579896
-0.017923
0.0152085
0.0419336
0.0632182
0.0799625
0.0928592
0.10261
0.109902
0.115193
0.118279
0.118295
0.114837
0.112689
-0.129064
-0.0854106
-0.043673
-0.00880444
0.0194835
0.0422167
0.0603255
0.0744936
0.0853925
0.0937222
0.100071
0.104442
0.106037
0.103764
0.0982522
-0.156387
-0.112027
-0.0686658
-0.0321566
-0.00244226
0.0216316
0.041024
0.0564022
0.0684013
0.0777027
0.084984
0.0904816
0.0936479
0.0931346
0.0877557
-0.182175
-0.137844
-0.0927551
-0.0547443
-0.023769
0.00153317
0.0221201
0.0386366
0.0516848
0.0619061
0.0700119
0.0764483
0.0810097
0.082631
0.0793183
-0.206217
-0.162809
-0.115768
-0.0764949
-0.044431
-0.0180089
0.00367436
0.0212439
0.0352822
0.0463823
0.0552393
0.062455
0.0681625
0.0716989
0.0708079
-0.22855
-0.186498
-0.137551
-0.0973728
-0.0643619
-0.0369251
-0.0142563
0.00426818
0.0192271
0.0311661
0.0407315
0.0486089
0.0552218
0.060239
0.0611744
-0.249199
-0.208418
-0.158076
-0.117342
-0.0834843
-0.055149
-0.0316202
-0.0122495
0.00354941
0.0162805
0.0265227
0.0349781
0.0422911
0.0483935
0.0506058
-0.26806
-0.228252
-0.17745
-0.136324
-0.101712
-0.0726229
-0.0483724
-0.0282701
-0.0117218
0.00174103
0.0126248
0.0215962
0.0294439
0.0363344
0.0396441
-0.284983
-0.246056
-0.195647
-0.154184
-0.118967
-0.0893018
-0.0644744
-0.0437575
-0.0265583
-0.0124379
-0.000959057
0.00847843
0.0167427
0.0242252
0.028584
-0.29985
-0.262087
-0.212498
-0.170787
-0.135196
-0.105154
-0.0798925
-0.0586783
-0.0409325
-0.0262399
-0.0142238
-0.00436456
0.00423995
0.0121983
0.0175197
-0.312597
-0.276455
-0.22788
-0.186079
-0.15038
-0.120155
-0.0945976
-0.0730033
-0.0548187
-0.0396455
-0.0271574
-0.01692
-0.00803019
0.000327245
0.00650443
-0.323203
-0.289125
-0.241674
-0.200156
-0.164529
-0.134289
-0.108566
-0.0867088
-0.0681945
-0.0526345
-0.0397425
-0.0291729
-0.0200535
-0.0113675
-0.00441676
-0.331681
-0.300028
-0.25389
-0.213047
-0.177705
-0.14755
-0.121783
-0.0997771
-0.0810411
-0.0651883
-0.0519604
-0.0411066
-0.0318252
-0.0228869
-0.0152244
-0.338095
-0.309148
-0.264607
-0.224757
-0.189949
-0.159965
-0.134245
-0.112198
-0.0933439
-0.0772923
-0.0637962
-0.0527026
-0.0433372
-0.0342315
-0.0259115
-0.342567
-0.316548
-0.273933
-0.235321
-0.201235
-0.171583
-0.145976
-0.123971
-0.105093
-0.088936
-0.0752414
-0.0639427
-0.054565
-0.045404
-0.036468
-0.345293
-0.322365
-0.282006
-0.244804
-0.21156
-0.182378
-0.157014
-0.135121
-0.116288
-0.100112
-0.0862959
-0.0748163
-0.0654565
-0.0564152
-0.0468826
-0.346534
-0.326815
-0.289
-0.253286
-0.220945
-0.192336
-0.167344
-0.145673
-0.126956
-0.110816
-0.096963
-0.0853313
-0.0759595
-0.067256
-0.0571671
-0.346624
-0.330215
-0.295108
-0.260859
-0.229428
-0.201463
-0.176953
-0.155615
-0.137104
-0.121077
-0.107242
-0.0955189
-0.0860658
-0.0778525
-0.0673747
-0.345939
-0.333008
-0.300511
-0.267597
-0.237051
-0.209787
-0.18585
-0.164939
-0.146719
-0.130881
-0.117148
-0.105421
-0.0958357
-0.0880528
-0.0775973
-0.344923
-0.335557
-0.305326
-0.273554
-0.243857
-0.217349
-0.194062
-0.173654
-0.155796
-0.140218
-0.126669
-0.115028
-0.105396
-0.0977056
-0.0879304
-0.34408
-0.337996
-0.309569
-0.278739
-0.249883
-0.224197
-0.201628
-0.181778
-0.164339
-0.149083
-0.135786
-0.124304
-0.114694
-0.10696
-0.0983012
-0.343817
-0.340314
-0.313154
-0.283128
-0.255159
-0.230379
-0.208585
-0.189336
-0.17236
-0.157478
-0.144488
-0.133222
-0.123701
-0.115995
-0.108321
-0.344321
-0.342331
-0.315894
-0.286663
-0.259714
-0.23594
-0.214964
-0.196346
-0.179875
-0.165416
-0.152778
-0.141777
-0.132414
-0.124837
-0.117752
-0.345418
-0.343592
-0.317503
-0.289281
-0.263585
-0.240918
-0.220783
-0.20282
-0.1869
-0.172912
-0.16067
-0.149979
-0.140827
-0.13342
-0.126581
-0.346398
-0.343202
-0.31761
-0.29095
-0.266829
-0.245336
-0.226041
-0.208767
-0.193453
-0.179988
-0.168183
-0.157841
-0.148928
-0.141677
-0.134912
-0.346001
-0.339916
-0.315899
-0.291729
-0.269503
-0.249179
-0.230723
-0.214195
-0.199558
-0.186668
-0.175336
-0.165371
-0.15671
-0.149607
-0.142887
-0.34266
-0.332585
-0.312326
-0.291815
-0.271623
-0.252396
-0.234815
-0.219127
-0.205244
-0.192977
-0.182144
-0.172578
-0.164187
-0.157251
-0.150626
-0.33584
-0.321039
-0.307535
-0.291498
-0.2731
-0.254908
-0.238327
-0.223604
-0.210547
-0.198938
-0.188628
-0.17948
-0.171383
-0.164657
-0.158198
-0.326331
-0.307091
-0.303144
-0.290893
-0.273767
-0.256704
-0.241326
-0.227686
-0.215497
-0.204571
-0.194808
-0.186107
-0.178332
-0.171858
-0.165624
-0.315707
-0.294832
-0.300162
-0.289667
-0.273536
-0.257895
-0.243931
-0.231432
-0.220123
-0.209899
-0.200711
-0.192487
-0.185064
-0.178875
-0.172905
-0.305593
-0.287903
-0.29805
-0.287397
-0.272567
-0.258726
-0.24627
-0.234883
-0.224444
-0.214946
-0.206366
-0.198652
-0.191609
-0.185732
-0.18006
-0.296914
-0.286765
-0.295028
-0.284025
-0.271286
-0.259476
-0.248419
-0.238054
-0.228485
-0.219748
-0.211807
-0.204625
-0.197986
-0.192455
-0.187128
-0.290238
-0.288781
-0.289541
-0.280073
-0.270268
-0.260306
-0.250364
-0.240944
-0.232279
-0.224349
-0.217067
-0.210433
-0.204217
-0.199062
-0.194149
-0.285499
-0.289974
-0.281718
-0.276679
-0.269922
-0.261126
-0.252025
-0.243572
-0.235885
-0.228801
-0.222183
-0.216093
-0.210311
-0.205562
-0.201146
-0.282028
-0.289042
-0.273782
-0.275378
-0.270076
-0.261616
-0.253341
-0.245998
-0.239372
-0.233152
-0.227182
-0.221624
-0.216281
-0.211959
-0.208122
-0.279413
-0.285729
-0.270317
-0.275937
-0.269743
-0.261521
-0.25437
-0.248315
-0.242807
-0.237447
-0.232089
-0.227034
-0.222133
-0.218255
-0.21507
-0.277221
-0.280643
-0.272007
-0.27544
-0.268057
-0.260886
-0.25525
-0.250602
-0.246243
-0.241722
-0.236925
-0.232334
-0.227872
-0.224449
-0.221985
-0.275116
-0.275452
-0.274751
-0.270711
-0.265034
-0.26004
-0.256075
-0.252903
-0.24973
-0.246017
-0.241705
-0.237521
-0.233497
-0.230546
-0.22887
-0.273083
-0.271785
-0.275036
-0.262995
-0.262002
-0.259112
-0.256803
-0.255269
-0.253339
-0.25037
-0.246441
-0.24259
-0.239002
-0.236547
-0.235726
-0.271288
-0.269722
-0.2724
-0.259212
-0.260094
-0.257902
-0.257448
-0.257816
-0.257164
-0.254823
-0.251129
-0.247518
-0.244374
-0.242459
-0.242554
-0.269793
-0.268505
-0.268136
-0.260849
-0.257034
-0.256231
-0.258323
-0.260761
-0.261315
-0.259405
-0.255753
-0.252272
-0.249582
-0.248274
-0.249352
-0.268717
-0.267605
-0.264965
-0.263107
-0.251786
-0.254842
-0.259745
-0.264305
-0.26591
-0.264132
-0.260272
-0.256793
-0.254596
-0.253992
-0.256121
-0.268074
-0.267074
-0.263685
-0.262663
-0.249954
-0.254524
-0.261935
-0.268682
-0.271054
-0.268978
-0.264614
-0.261014
-0.25936
-0.259591
-0.262872
-0.267831
-0.266997
-0.264309
-0.261416
-0.254324
-0.25447
-0.265243
-0.274191
-0.276812
-0.273865
-0.268664
-0.26484
-0.263827
-0.265057
-0.269605
-0.267873
-0.267259
-0.265502
-0.262368
-0.259825
-0.255884
-0.27037
-0.28095
-0.28313
-0.278619
-0.272256
-0.268168
-0.267924
-0.270358
-0.276339
-0.268149
-0.267894
-0.266982
-0.264969
-0.263593
-0.262526
-0.277197
-0.288862
-0.289796
-0.282948
-0.275161
-0.270868
-0.271581
-0.27545
-0.283065
-0.268651
-0.268803
-0.26856
-0.268184
-0.267619
-0.273464
-0.284849
-0.297778
-0.296308
-0.286381
-0.277097
-0.272794
-0.274692
-0.280284
-0.289798
-0.269438
-0.269998
-0.270368
-0.271219
-0.272203
-0.282234
-0.293611
-0.307041
-0.301558
-0.288305
-0.277723
-0.273756
-0.277145
-0.284791
-0.296537
-0.270631
-0.271572
-0.272477
-0.274158
-0.276788
-0.2875
-0.302928
-0.314056
-0.304039
-0.288003
-0.276682
-0.273528
-0.278805
-0.288923
-0.303298
-0.272376
-0.273668
-0.275089
-0.277384
-0.28093
-0.290286
-0.309204
-0.315125
-0.302263
-0.284753
-0.273509
-0.271859
-0.279572
-0.292654
-0.31014
-0.274764
-0.276368
-0.278358
-0.281243
-0.285
-0.292457
-0.308539
-0.309621
-0.295361
-0.277849
-0.267808
-0.268516
-0.279407
-0.296008
-0.317118
-0.277724
-0.279578
-0.282175
-0.285694
-0.289445
-0.294404
-0.302344
-0.299064
-0.283006
-0.267034
-0.259374
-0.263613
-0.27843
-0.299146
-0.324409
-0.281002
-0.282971
-0.28612
-0.290251
-0.293938
-0.296233
-0.295199