/*--------------------------------*- C++ -*----------------------------------*\
  =========                 |
  \\      /  F ield         | OpenFOAM: The Open Source CFD Toolbox
   \\    /   O peration     | Website:  https://openfoam.org
    \\  /    A nd           | Version:  7
     \\/     M anipulation  |
\*---------------------------------------------------------------------------*/
FoamFile
{
    version     2.0;
    format      ascii;
    class       surfaceScalarField;
    location    "1.9998";
    object      phi;
}
// * * * * * * * * * * * * * * * * * * * * * * * * * * * * * * * * * * * * * //

dimensions      [0 3 -1 0 0 0 0];

internalField   nonuniform List<scalar> 
37105
(
-1.80213e-05
1.80213e-05
2.67245e-11
-3.99451e-05
2.19238e-05
2.20448e-11
-6.15264e-05
2.15812e-05
9.25102e-12
-8.29622e-05
2.14358e-05
-8.66161e-13
-0.000104011
2.10493e-05
-9.26518e-12
-0.000124176
2.01645e-05
-1.76008e-11
-0.00014224
1.80642e-05
-2.86003e-11
-0.000156472
1.42322e-05
-4.30625e-11
-0.000165175
8.70239e-06
-5.90025e-11
-0.000167271
2.09637e-06
-7.18314e-11
-0.000162403
-4.86788e-06
-7.96186e-11
-0.000150816
-1.15868e-05
-8.23676e-11
-0.0001324
-1.84161e-05
-8.11792e-11
-0.000104835
-2.75652e-05
-7.9475e-11
-4.55913e-05
-8.89398e-11
-5.92432e-05
-1.7803e-05
3.58243e-05
-3.95283e-05
4.36492e-05
-6.0928e-05
4.29809e-05
-8.21976e-05
4.27054e-05
-0.000103101
4.19523e-05
-0.000123129
4.01928e-05
-0.000141085
3.60204e-05
-0.00015534
2.84867e-05
-0.00016436
1.77226e-05
-0.000167181
4.91754e-06
-0.000163036
-9.01275e-06
-0.000151349
-2.32734e-05
-0.000131223
-3.85425e-05
-0.000101045
-5.7743e-05
-8.95138e-05
-5.71228e-05
-1.73753e-05
5.31996e-05
-3.87211e-05
6.4995e-05
-5.97888e-05
6.40486e-05
-8.07834e-05
6.36999e-05
-0.000101496
6.26645e-05
-0.000121431
6.01279e-05
-0.000139473
5.40627e-05
-0.00015419
4.32041e-05
-0.000164244
2.77765e-05
-0.00016854
9.21319e-06
-0.000165487
-1.20654e-05
-0.000153336
-3.54244e-05
-0.000130708
-6.11705e-05
-9.75317e-05
-9.09197e-05
-0.000130629
-5.6416e-05
-1.67524e-05
6.9952e-05
-3.75591e-05
8.58017e-05
-5.81778e-05
8.46673e-05
-7.88482e-05
8.43703e-05
-9.94217e-05
8.3238e-05
-0.000119469
8.01753e-05
-0.000138044
7.26373e-05
-0.000153937
5.90978e-05
-0.000165806
3.96456e-05
-0.00017195
1.53567e-05
-0.000169799
-1.42167e-05
-0.000156863
-4.83602e-05
-0.000131955
-8.60783e-05
-9.6522e-05
-0.000126353
-0.000168788
-5.83635e-05
-1.59511e-05
8.59031e-05
-3.60661e-05
0.000105917
-5.61335e-05
0.000104735
-7.6454e-05
0.000104691
-9.69708e-05
0.000103755
-0.000117374
0.000100579
-0.000136934
9.21967e-05
-0.000154575
7.67395e-05
-0.000168622
5.3692e-05
-0.000176457
2.31926e-05
-0.00017488
-1.5794e-05
-0.000161414
-6.1826e-05
-0.000135045
-0.000112447
-9.78058e-05
-0.000163592
-0.00020472
-6.1874e-05
-1.50366e-05
0.00010094
-3.42442e-05
0.000125124
-5.36471e-05
0.000124138
-7.35769e-05
0.000124621
-9.40805e-05
0.000124258
-0.000114992
0.00012149
-0.000135776
0.00011298
-0.000155325
9.62887e-05
-0.000171382
6.97493e-05
-0.000180521
3.23313e-05
-0.000179427
-1.68877e-05
-0.000166051
-7.52023e-05
-0.000139324
-0.000139174
-0.000101436
-0.000201481
-0.000241095
-6.50601e-05
-1.39198e-05
0.00011486
-3.20489e-05
0.000143253
-5.06674e-05
0.000142756
-7.01198e-05
0.000144073
-9.05621e-05
0.000144701
-0.000111954
0.000142882
-0.000133858
0.000134884
-0.000154992
0.000117422
-0.000172543
8.73002e-05
-0.000182484
4.22731e-05
-0.000181831
-1.7541e-05
-0.00016891
-8.81233e-05
-0.000142766
-0.000165318
-0.000104951
-0.000239296
-0.000279089
-6.69578e-05
-1.2524e-05
0.000127384
-2.94114e-05
0.000160141
-4.71105e-05
0.000160455
-6.59359e-05
0.000162898
-8.61379e-05
0.000164903
-0.00010775
0.000164494
-0.000130328
0.000157463
-0.000152366
0.00013946
-0.000170636
0.00010557
-0.000180791
5.24286e-05
-0.000180064
-1.82687e-05
-0.000167386
-0.000100801
-0.000142344
-0.00019036
-0.000105336
-0.000276304
-0.000318453
-6.59716e-05
-1.08635e-05
0.000138247
-2.62786e-05
0.000175556
-4.28773e-05
0.000177054
-6.08465e-05
0.000180868
-8.04923e-05
0.000184548
-0.000101863
0.000185864
-0.000124412
0.000180012
-0.000146405
0.000161453
-0.000164408
0.000123573
-0.000173915
6.1936e-05
-0.000172264
-1.99205e-05
-0.000159271
-0.000113794
-0.000135585
-0.000214045
-0.000100366
-0.000311523
-0.000358241
-6.05776e-05
-8.90875e-06
0.000147156
-2.25937e-05
0.000189241
-3.78869e-05
0.000192347
-5.47045e-05
0.000197685
-7.33634e-05
0.000203207
-9.38576e-05
0.000206359
-0.000115487
0.000201641
-0.000136333
0.0001823
-0.000152919
0.000140159
-0.00016078
6.9797e-05
-0.000157432
-2.32684e-05
-0.000143543
-0.000127683
-0.000121339
-0.000236249
-8.86042e-05
-0.000344258
-0.000397083
-4.97622e-05
-6.63259e-06
0.000153788
-1.83309e-05
0.000200939
-3.2079e-05
0.000206095
-4.73781e-05
0.000212984
-6.45212e-05
0.00022035
-8.34127e-05
0.00022525
-0.000103181
0.000221409
-0.000121751
0.00020087
-0.000135788
0.000154195
-0.000141079
7.50883e-05
-0.000135488
-2.88598e-05
-0.000120318
-0.000142853
-9.9607e-05
-0.00025696
-6.9698e-05
-0.000374167
-0.000433577
-3.32036e-05
-3.96847e-06
0.000157757
-1.35037e-05
0.000210474
-2.54383e-05
0.00021803
-3.88193e-05
0.000226365
-5.39012e-05
0.000235432
-7.04609e-05
0.00024181
-8.74512e-05
0.000238399
-0.00010272
0.000216139
-0.000113264
0.000164739
-0.000115359
7.71833e-05
-0.000107266
-3.69529e-05
-9.07414e-05
-0.000159377
-7.13653e-05
-0.000276336
-4.43755e-05
-0.000401157
-0.000466658
-1.12954e-05
-7.36989e-07
0.000158494
-8.18244e-06
0.00021792
-1.79638e-05
0.000227811
-2.90394e-05
0.000237441
-4.1555e-05
0.000247948
-5.51132e-05
0.000255368
-6.85779e-05
0.000251864
-7.97932e-05
0.000227354
-8.6198e-05
0.000171144
-8.47783e-05
7.57636e-05
-7.42048e-05
-4.75263e-05
-5.65588e-05
-0.000177023
-3.82081e-05
-0.000294686
-1.34611e-05
-0.000425904
-0.000493518
1.33995e-05
2.25188e-06
0.000156242
-2.51443e-06
0.000222686
-9.69647e-06
0.000234993
-1.81736e-05
0.000245918
-2.77155e-05
0.00025749
-3.77294e-05
0.000265382
-4.71334e-05
0.000261268
-5.38419e-05
0.000234063
-5.58663e-05
0.000173168
-5.07892e-05
7.06865e-05
-3.79117e-05
-6.04039e-05
-1.93467e-05
-0.000195588
-1.67003e-06
-0.000312363
1.84693e-05
-0.000446043
-0.000514927
3.98777e-05
5.54474e-06
0.000150697
3.94792e-06
0.000224283
-6.63352e-07
0.000239605
-6.41157e-06
0.000251666
-1.2727e-05
0.000263805
-1.88757e-05
0.000271531
-2.40081e-05
0.0002664
-2.62334e-05
0.000236288
-2.38883e-05
0.000170823
-1.4801e-05
6.15992e-05
1.10741e-06
-7.63123e-05
1.79595e-05
-0.00021244
3.28289e-05
-0.000327233
4.98799e-05
-0.000463094
-0.000532987
6.79399e-05
9.21491e-06
0.000141482
1.1018e-05
0.00022248
8.9458e-06
0.000241677
5.94025e-06
0.000254672
2.84404e-06
0.000266901
2.34395e-07
0.00027414
-5.08073e-07
0.000267142
1.42533e-06
0.000234355
8.65768e-06
0.000163591
2.09436e-05
4.93134e-05
3.63144e-05
-9.16831e-05
5.3074e-05
-0.0002292
6.67704e-05
-0.000340929
8.13121e-05
-0.000477636
-0.000547795
9.61209e-05
1.31271e-05
0.000128355
1.83235e-05
0.000217283
1.89005e-05
0.0002411
1.87212e-05
0.000254851
1.91805e-05
0.000266442
2.11817e-05
0.000272139
2.53827e-05
0.000262941
3.26688e-05
0.000227069
4.24139e-05
0.000153846
5.53134e-05
3.64138e-05
7.14273e-05
-0.000107797
8.6523e-05
-0.000244296
9.90288e-05
-0.000353435
0.000111528
-0.000490135
-0.000559832
0.000123565
1.71477e-05
0.000111207
2.5758e-05
0.000208673
2.89199e-05
0.000237938
3.1385e-05
0.000252386
3.50678e-05
0.000262759
4.10105e-05
0.000266196
4.9661e-05
0.000254291
6.14198e-05
0.00021531
7.39558e-05
0.00014131
8.80574e-05
2.23122e-05
0.000104584
-0.000124324
0.000117532
-0.000257244
0.000128595
-0.000364498
0.000139502
-0.000501042
-0.000569585
0.000149255
2.11177e-05
9.00898e-05
3.31007e-05
0.00019669
3.87582e-05
0.00023228
4.36151e-05
0.000247529
5.00932e-05
0.000256281
5.94395e-05
0.00025685
7.17756e-05
0.000241955
8.75773e-05
0.000199508
0.000102594
0.000126293
0.000118323
6.58287e-06
0.000134636
-0.000140637
0.000144908
-0.000267516
0.00015483
-0.000374419
0.000164547
-0.000510759
-0.00057728
0.000172241
2.47834e-05
6.53064e-05
3.99514e-05
0.000181522
4.8107e-05
0.000224125
5.50983e-05
0.000240538
6.38011e-05
0.000247578
7.58763e-05
0.000244775
9.10487e-05
0.000226783
0.000110183
0.000180374
0.000127247
0.000109229
0.000145205
-1.13753e-05
0.000160277
-0.000155709
0.000167927
-0.000275166
0.00017742
-0.000383912
0.000186241
-0.00051958
-0.000583107
0.000192068
2.7517e-05
3.77894e-05
4.57568e-05
0.000163282
5.66874e-05
0.000213194
6.55484e-05
0.000231677
7.58182e-05
0.000237309
8.97953e-05
0.000230798
0.000107157
0.000209421
0.000128577
0.000158955
0.000147587
9.0219e-05
0.000167297
-3.10856e-05
0.000180414
-0.000168826
0.000186043
-0.000280794
0.000196163
-0.000394032
0.000204387
-0.000527805
-0.000587147
0.000208427
2.718e-05
1.06094e-05
4.98646e-05
0.000140598
6.41752e-05
0.000198883
7.45958e-05
0.000221256
8.58934e-05
0.000226011
0.000100668
0.000216023
0.000119959
0.000190131
0.000142264
0.000136649
0.00016305
6.94328e-05
0.000183864
-5.18994e-05
0.000194257
-0.000179219
0.000199363
-0.000285901
0.000211321
-0.00040599
0.000218951
-0.000535435
-0.000589462
0.000221266
2.15569e-05
-1.09475e-05
5.16595e-05
0.000110495
6.98868e-05
0.000180656
8.16563e-05
0.000209487
9.3904e-05
0.000213763
0.000108148
0.000201778
0.000129088
0.000169191
0.000150796
0.000114942
0.000173592
4.66365e-05
0.000194058
-7.23656e-05
0.000201701
-0.000186862
0.000208701
-0.000292901
0.000223231
-0.00042052
0.000229959
-0.000542163
-0.000590211
0.000230709
1.40108e-05
-2.49583e-05
5.1376e-05
7.31299e-05
7.29347e-05
0.000159097
8.61121e-05
0.000196309
9.96104e-05
0.000200265
0.00011273
0.000188659
0.000134282
0.000147639
0.000154378
9.48455e-05
0.000179443
2.15718e-05
0.000197328
-9.025e-05
0.000203587
-0.000193121
0.000215322
-0.000304636
0.000232278
-0.000437476
0.000237525
-0.00054741
-0.000589633
0.000236946
8.29246e-06
-3.32507e-05
4.75715e-05
3.38509e-05
7.25404e-05
0.000134129
8.76791e-05
0.000181171
0.000102177
0.000185767
0.000115321
0.000175514
0.000135685
0.000127275
0.000154201
7.63296e-05
0.000180585
-4.81228e-06
0.000193632
-0.000103297
0.000202124
-0.000201613
0.00022051
-0.000323023
0.000238596
-0.000455561
0.000241767
-0.000550582
-0.000588114
0.000240248
4.15318e-06
-3.74039e-05
3.89569e-05
-9.52826e-07
6.80585e-05
0.000105027
8.63151e-05
0.000162914
0.000100508
0.000171574
0.00011529
0.000160732
0.000132658
0.000109908
0.000151481
5.75065e-05
0.000175592
-2.89232e-05
0.000184313
-0.000112018
0.000200232
-0.000217532
0.000224899
-0.00034769
0.000242067
-0.000472729
0.000242949
-0.000551464
-0.000586157
0.000240992
2.58813e-06
-3.99921e-05
2.88906e-05
-2.72553e-05
6.05574e-05
7.33602e-05
8.1379e-05
0.000142093
9.45406e-05
0.000158413
0.000110708
0.000144565
0.000124969
9.56467e-05
0.000145768
3.67074e-05
0.000162869
-4.60237e-05
0.000173187
-0.000122337
0.000200364
-0.000244708
0.000228205
-0.000375531
0.000242464
-0.000486988
0.00024143
-0.00055043
-0.000584281
0.000239554
4.25382e-06
-4.42459e-05
2.20308e-05
-4.50323e-05
5.00862e-05
4.53048e-05
7.15424e-05
0.000120636
8.52888e-05
0.000144666
0.000100594
0.000129259
0.000114232
8.20089e-05
0.000134435
1.65043e-05
0.000144155
-5.57436e-05
0.000165809
-0.00014399
0.000202899
-0.000281798
0.00022957
-0.000402202
0.000239799
-0.000497218
0.000237618
-0.000548249
-0.00058292
0.000236257
6.93324e-06
-5.11791e-05
1.66234e-05
-5.47225e-05
3.74744e-05
2.44538e-05
5.66608e-05
0.00010145
7.18e-05
0.000129527
8.50624e-05
0.000115996
0.000100103
6.69682e-05
0.000113767
2.83991e-06
0.000126728
-6.87039e-05
0.000166217
-0.000183479
0.000206145
-0.000321726
0.000228401
-0.000424459
0.000234721
-0.000503537
0.000231535
-0.000545063
-0.000583116
0.000231731
6.55269e-06
-5.77318e-05
1.03411e-05
-5.85109e-05
2.38802e-05
1.09148e-05
3.86275e-05
8.67027e-05
5.23452e-05
0.00011581
6.55848e-05
0.000102757
7.9121e-05
5.34321e-05
8.82211e-05
-6.26024e-06
0.000120402
-0.000100884
0.00017212
-0.000235198
0.000207556
-0.000357162
0.000224819
-0.000441722
0.000228473
-0.000507191
0.000223052
-0.000539642
-0.000587622
0.000227558
3.56576e-06
-6.12976e-05
2.53808e-06
-5.74832e-05
9.3918e-06
4.06104e-06
1.9328e-05
7.67665e-05
2.86579e-05
0.00010648
4.11956e-05
9.02191e-05
5.00264e-05
4.46012e-05
7.25587e-05
-2.87925e-05
0.000127743
-0.000156068
0.000177394
-0.000284849
0.000205972
-0.00038574
0.000219407
-0.000455157
0.000222211
-0.000509995
0.000221066
-0.000538496
-0.000577678
0.000211121
-6.74925e-07
-6.06226e-05
-5.39965e-06
-5.27585e-05
-5.44183e-06
4.10323e-06
2.88033e-07
7.10366e-05
5.30638e-06
0.000101461
1.11948e-05
8.43307e-05
2.65078e-05
2.92882e-05
7.74355e-05
-7.97202e-05
0.000138191
-0.000216824
0.000179285
-0.000325942
0.000202208
-0.000408663
0.000213014
-0.000465963
0.000215269
-0.00051225
0.000216172
-0.000539399
-0.000569382
0.000207876
-4.66014e-06
-5.59625e-05
-1.32762e-05
-4.41425e-05
-1.92785e-05
1.01056e-05
-1.97582e-05
7.15162e-05
-1.77163e-05
9.94196e-05
-1.38057e-05
8.04201e-05
2.50812e-05
-9.59871e-06
9.36508e-05
-0.00014829
0.000145067
-0.00026824
0.000178599
-0.000359474
0.000197352
-0.000427417
0.000206273
-0.000474884
0.000209129
-0.000515106
0.000207899
-0.000538169
-0.000565142
0.000203659
-8.44493e-06
-4.75176e-05
-2.06738e-05
-3.19136e-05
-3.13911e-05
2.08229e-05
-3.76808e-05
7.78059e-05
-4.07649e-05
0.000102504
-1.73603e-05
5.70155e-05
4.56124e-05
-7.25714e-05
0.000105682
-0.00020836
0.000148873
-0.000311431
0.000176605
-0.000387206
0.000191963
-0.000442775
0.000199732
-0.000482652
0.000201832
-0.000517206
0.000202519
-0.000538857
-0.000567014
0.000204392
-1.13603e-05
-3.61573e-05
-2.62128e-05
-1.70611e-05
-4.00767e-05
3.46868e-05
-4.92463e-05
8.69755e-05
-5.0453e-05
0.00010371
-3.68965e-06
1.02521e-05
6.5685e-05
-0.000141946
0.000115651
-0.000258326
0.000151235
-0.000347015
0.000173812
-0.000409783
0.00018644
-0.000455403
0.000192909
-0.000489121
0.00019575
-0.000520047
0.000197323
-0.000540429
-0.00056677
0.000197078
-1.30333e-05
-2.3124e-05
-2.87685e-05
-1.32596e-06
-4.21637e-05
4.80821e-05
-4.80789e-05
9.28907e-05
-3.36045e-05
8.92359e-05
2.50081e-05
-4.83604e-05
7.93616e-05
-0.0001963
0.00012307
-0.000302034
0.000152325
-0.00037627
0.000170501
-0.000427959
0.000180749
-0.000465651
0.000186668
-0.00049504
0.000189177
-0.000522556
0.000191058
-0.00054231
-0.000569525
0.000193813
-1.33889e-05
-9.73502e-06
-2.87232e-05
1.40083e-05
-3.96843e-05
5.90432e-05
-4.33094e-05
9.65158e-05
-1.19744e-05
5.79009e-05
4.86594e-05
-0.000108994
9.42223e-05
-0.000241862
0.000129021
-0.000336833
0.000152444
-0.000399692
0.00016682
-0.000442336
0.00017525
-0.000474081
0.000180209
-0.000499999
0.000183081
-0.000525428
0.000185993
-0.000545223
-0.000570187
0.000186656
-1.15498e-05
1.81476e-06
-2.48643e-05
2.73228e-05
-3.01951e-05
6.4374e-05
-2.84551e-05
9.47758e-05
1.18214e-05
1.76244e-05
6.41679e-05
-0.000161341
0.000104885
-0.00028258
0.00013311
-0.000365058
0.000151442
-0.000418024
0.000162773
-0.000453667
0.000169586
-0.000480894
0.000174218
-0.000504631
0.000177035
-0.000528245
0.000179288
-0.000547476
-0.0005727
0.000181801
-8.13086e-06
9.94562e-06
-1.68856e-05
3.60775e-05
-1.71712e-05
6.46596e-05
-6.56315e-06
8.41677e-05
3.9025e-05
-2.79637e-05
7.95227e-05
-0.000201838
0.000112991
-0.000316048
0.000135579
-0.000387646
0.000149698
-0.000432143
0.000158461
-0.000462429
0.000164162
-0.000486595
0.00016814
-0.00050861
0.000170862
-0.000530966
0.000174017
-0.000550631
-0.000574254
0.00017557
-4.43413e-06
1.43797e-05
-8.12429e-06
3.97677e-05
-5.89796e-06
6.24333e-05
1.07791e-05
6.74907e-05
5.71682e-05
-7.43528e-05
9.1519e-05
-0.000236189
0.00011817
-0.0003427
0.000135998
-0.000405474
0.000146954
-0.000443099
0.000153885
-0.00046936
0.00015856
-0.00049127
0.00016225
-0.0005123
0.000165078
-0.000533794
0.00016751
-0.000553063
-0.000576459
0.000169715
-1.51827e-06
1.5898e-05
-5.50768e-07
3.88002e-05
2.46147e-06
5.94211e-05
2.43213e-05
4.56308e-05
6.84954e-05
-0.000118527
0.000100426
-0.000268119
0.000121778
-0.000364052
0.000135269
-0.000418964
0.000143641
-0.000451471
0.000149084
-0.000474803
0.000153117
-0.000495303
0.000156415
-0.000515597
0.000158924
-0.000536304
0.000161929
-0.000556067
-0.000578601
0.000164072
6.37042e-07
1.5261e-05
3.53857e-06
3.58986e-05
7.87545e-06
5.50842e-05
3.55935e-05
1.79128e-05
7.72011e-05
-0.000160134
0.000105901
-0.00029682
0.000123022
-0.000381173
0.000133222
-0.000429165
0.000139636
-0.000457884
0.000144099
-0.000479267
0.000147545
-0.000498749
0.000150557
-0.000518609
0.00015322
-0.000538967
0.000155739
-0.000558586
-0.000580592
0.00015773
1.85608e-06
1.34049e-05
5.67358e-06
3.20811e-05
9.21892e-06
5.15388e-05
4.51958e-05
-1.80641e-05
8.35683e-05
-0.000198507
0.000108689
-0.00032194
0.000122677
-0.000395161
0.000130439
-0.000436927
0.000135349
-0.000462794
0.000138966
-0.000482883
0.000142033
-0.000501816
0.000144835
-0.000521411
0.000147146
-0.000541279
0.000149873
-0.000561313
-0.000582967
0.000152248
2.06864e-06
1.13363e-05
4.58205e-06
2.95677e-05
1.10393e-05
4.50816e-05
5.43874e-05
-6.14122e-05
8.83307e-05
-0.00023245
0.000109379
-0.000342989
0.000120709
-0.000406491
0.000126779
-0.000442998
0.000130657
-0.000466671
0.000133741
-0.000485968
0.000136472
-0.000504546
0.000138994
-0.000523934
0.000141415
-0.000543699
0.000143896
-0.000563793
-0.000584864
0.000145792
1.03294e-06
1.03033e-05
8.19265e-08
3.05187e-05
1.34055e-05
3.1758e-05
6.20734e-05
-0.00011008
9.17872e-05
-0.000262164
0.000108786
-0.000359987
0.000117875
-0.00041558
0.000122682
-0.000447805
0.000125826
-0.000469816
0.000128439
-0.000488581
0.0001309
-0.000507007
0.0001333
-0.000526334
0.000135421
-0.000545821
0.00013784
-0.000566212
-0.000587211
0.000140188
-8.13678e-07
1.1117e-05
-4.61649e-06
3.43216e-05
1.78933e-05
9.24816e-06
6.55696e-05
-0.000157756
9.31653e-05
-0.00028976
0.000107221
-0.000374043
0.000114321
-0.00042268
0.000118147
-0.000451631
0.000120766
-0.000472434
0.000123085
-0.0004909
0.000125334
-0.000509257
0.00012747
-0.00052847
0.000129616
-0.000547966
0.000131938
-0.000568534
-0.000589062
0.000133789
-2.059e-06
1.3176e-05
-5.66813e-06
3.79307e-05
2.62369e-05
-2.26569e-05
6.71058e-05
-0.000198625
9.24663e-05
-0.00031512
0.000104799
-0.000386376
0.000110452
-0.000428332
0.000113466
-0.000454645
0.000115665
-0.000474634
0.000117698
-0.000492933
0.000119724
-0.000511282
0.000121758
-0.000530504
0.000123672
-0.00054988
0.000125783
-0.000570646
-0.00059123
0.000127951
-2.71388e-06
1.58899e-05
-1.19134e-06
3.64082e-05
3.6613e-05
-6.04612e-05
6.93382e-05
-0.000231351
9.06773e-05
-0.000336459
0.000101396
-0.000397094
0.000106125
-0.000433061
0.000108593
-0.000457113
0.000110471
-0.000476513
0.000112288
-0.000494749
0.000114145
-0.00051314
0.000115932
-0.000532291
0.000117785
-0.000551733
0.000119849
-0.000572711
-0.000593002
0.000121621
-2.77893e-06
1.86688e-05
3.40705e-06
3.02222e-05
4.47688e-05
-0.000101823
7.14668e-05
-0.000258049
8.8481e-05
-0.000353474
9.74264e-05
-0.00040604
0.000101523
-0.000437158
0.000103643
-0.000459233
0.000105277
-0.000478146
0.000106878
-0.00049635
0.000108517
-0.000514779
0.000110183
-0.000533957
0.000111844
-0.000553394
0.000113634
-0.000574501
-0.000594909
0.000115541
-2.25399e-06
2.09228e-05
8.31113e-06
1.96571e-05
4.88763e-05
-0.000142388
7.28156e-05
-0.000281988
8.61596e-05
-0.000366818
9.32196e-05
-0.0004131
9.66755e-05
-0.000440614
9.85801e-05
-0.000461138
0.000100044
-0.000479611
0.000101462
-0.000497768
0.000102932
-0.000516248
0.000104357
-0.000535382
0.000105879
-0.000554915
0.000107601
-0.000576224
-0.000596522
0.000109215
-2.05144e-06
2.29742e-05
1.43114e-05
3.29422e-06
4.9712e-05
-0.000177789
7.22628e-05
-0.000304539
8.35325e-05
-0.000378087
8.89867e-05
-0.000418554
9.17979e-05
-0.000443425
9.34817e-05
-0.000462822
9.47978e-05
-0.000480927
9.60474e-05
-0.000499017
9.73009e-05
-0.000517502
9.85719e-05
-0.000536653
9.99079e-05
-0.000556251
0.000101329
-0.000577645
-0.00059811
0.000102917
-2.84853e-06
2.58228e-05
2.06775e-05
-2.02318e-05
5.07454e-05
-0.000207857
7.03693e-05
-0.000324163
8.02545e-05
-0.000387972
8.46968e-05
-0.000422996
8.69406e-05
-0.000445668
8.83951e-05
-0.000464276
8.95645e-05
-0.000482096
9.06413e-05
-0.000500094
9.17169e-05
-0.000518578
9.27502e-05
-0.000537686
9.38813e-05
-0.000557382
9.51743e-05
-0.000578938
-0.000599456
9.65201e-05
-2.70061e-06
2.85234e-05
2.56984e-05
-4.86308e-05
5.14678e-05
-0.000233626
6.80772e-05
-0.000340772
7.65072e-05
-0.000396402
8.028e-05
-0.000426769
8.21317e-05
-0.00044752
8.33405e-05
-0.000465485
8.43296e-05
-0.000483085
8.5233e-05
-0.000500997
8.60915e-05
-0.000519436
8.69396e-05
-0.000538534
8.78674e-05
-0.00055831
8.88438e-05
-0.000579914
-0.000600649
9.00375e-05
-1.66486e-06
3.01882e-05
2.94167e-05
-7.97123e-05
5.17029e-05
-0.000255912
6.55264e-05
-0.000354595
7.25371e-05
-0.000403413
7.57513e-05
-0.000429983
7.73361e-05
-0.000449105
7.83484e-05
-0.000466497
7.91545e-05
-0.000483891
7.98571e-05
-0.0005017
8.05161e-05
-0.000520095
8.11223e-05
-0.000539141
8.17961e-05
-0.000558984
8.25799e-05
-0.000580698
-0.000601606
8.35369e-05
4.35886e-07
2.97523e-05
3.18181e-05
-0.000111095
5.15861e-05
-0.00027568
6.29046e-05
-0.000365914
6.85508e-05
-0.000409059
7.12045e-05
-0.000432637
7.25518e-05
-0.000450452
7.33757e-05
-0.000467321
7.3983e-05
-0.000484499
7.4485e-05
-0.000502202
7.49125e-05
-0.000520523
7.5302e-05
-0.00053953
7.5743e-05
-0.000559425
7.61993e-05
-0.000581154
-0.000602327
7.69199e-05
2.72506e-06
2.70273e-05
3.30011e-05
-0.000141371
5.11394e-05
-0.000293819
6.02648e-05
-0.000375039
6.46179e-05
-0.000413413
6.66998e-05
-0.000434719
6.77995e-05
-0.000451552
6.84509e-05
-0.000467973
6.88731e-05
-0.000484921
6.91565e-05
-0.000502485
6.93605e-05
-0.000520727
6.94951e-05
-0.000539665
6.96467e-05
-0.000559576
6.98544e-05
-0.000581362
-0.000602795
7.0323e-05
5.90059e-06
2.11267e-05
3.27661e-05
-0.000168236
4.98138e-05
-0.000310866
5.7544e-05
-0.00038277
6.07844e-05
-0.000416653
6.22925e-05
-0.000436227
6.3104e-05
-0.000452364
6.35498e-05
-0.000468418
6.37669e-05
-0.000485138
6.38376e-05
-0.000502556
6.37977e-05
-0.000520687
6.3686e-05
-0.000539553
6.35742e-05
-0.000559464
6.34481e-05
-0.000581236
-0.000602969
6.36216e-05
9.75492e-06
1.13718e-05
3.31618e-05
-0.000191643
4.80012e-05
-0.000325706
5.45777e-05
-0.000389346
5.69886e-05
-0.000419064
5.79745e-05
-0.000437213
5.84781e-05
-0.000452867
5.87078e-05
-0.000468648
5.87214e-05
-0.000485152
5.85635e-05
-0.000502398
5.8283e-05
-0.000520406
5.79012e-05
-0.000539171
5.74766e-05
-0.00055904
5.70637e-05
-0.000580823
-0.000602857
5.69515e-05
1.29652e-05
-1.59346e-06
3.34804e-05
-0.000212158
4.59407e-05
-0.000338166
5.13159e-05
-0.000394721
5.31289e-05
-0.000420877
5.37206e-05
-0.000437804
5.39286e-05
-0.000453075
5.39131e-05
-0.000468633
5.36975e-05
-0.000484936
5.3311e-05
-0.000502011
5.27759e-05
-0.000519871
5.21239e-05
-0.000538519
5.14082e-05
-0.000558324
5.06503e-05
-0.000580065
-0.000602426
5.02195e-05
1.53648e-05
-1.69582e-05
3.33332e-05
-0.000230127
4.36655e-05
-0.000348498
4.79057e-05
-0.000398961
4.92208e-05
-0.000422192
4.95041e-05
-0.000438088
4.94463e-05
-0.000453017
4.91885e-05
-0.000468375
4.8741e-05
-0.000484489
4.81087e-05
-0.000501379
4.73166e-05
-0.000519079
4.63796e-05
-0.000537582
4.53348e-05
-0.000557279
4.42534e-05
-0.000578984
-0.00060172
4.3547e-05
1.66069e-05
-3.35651e-05
3.26631e-05
-0.000246183
4.11935e-05
-0.000357029
4.4419e-05
-0.000402187
4.52923e-05
-0.000423065
4.53224e-05
-0.000438118
4.50259e-05
-0.000452721
4.45213e-05
-0.00046787
4.38262e-05
-0.000483793
4.29466e-05
-0.000500499
4.18857e-05
-0.000518018
4.06586e-05
-0.000536355
3.9303e-05
-0.000555924
3.78522e-05
-0.000577533
-0.000600579
3.67112e-05
1.69587e-05
-5.05238e-05
3.15052e-05
-0.000260729
3.85591e-05
-0.000364083
4.09315e-05
-0.000404559
4.13994e-05
-0.000423533
4.11871e-05
-0.000437906
4.06652e-05
-0.000452199
3.99238e-05
-0.000467129
3.89834e-05
-0.000482853
3.78433e-05
-0.000499359
3.65099e-05
-0.000516685
3.49851e-05
-0.000534831
3.32905e-05
-0.000554229
3.14782e-05
-0.000575721
-0.000598961
2.98605e-05
1.67285e-05
-6.72523e-05
2.99392e-05
-0.00027394
3.57892e-05
-0.000369933
3.7451e-05
-0.000406221
3.75538e-05
-0.000423636
3.71084e-05
-0.00043746
3.63657e-05
-0.000451456
3.53863e-05
-0.000466149
3.41941e-05
-0.000481661
3.27955e-05
-0.000497961
3.11857e-05
-0.000515075
2.93634e-05
-0.000533008
2.73366e-05
-0.000552202
2.51174e-05
-0.000573501
-0.00059684
2.29965e-05
1.61479e-05
-8.34003e-05
2.8092e-05
-0.000285884
3.29285e-05
-0.000374769
3.40085e-05
-0.000407301
3.37858e-05
-0.000423413
3.31035e-05
-0.000436778
3.21363e-05
-0.000450489
3.0921e-05
-0.000464934
2.94786e-05
-0.000480218
2.78128e-05
-0.000496295
2.59277e-05
-0.00051319
2.38152e-05
-0.000530896
2.14456e-05
-0.000549833
1.87818e-05
-0.000570838
-0.000594246
1.61879e-05
1.53397e-05
-9.87399e-05
2.60576e-05
-0.000296602
3.00174e-05
-0.000378729
3.06096e-05
-0.000407893
3.00953e-05
-0.000422899
2.91777e-05
-0.00043586
2.79791e-05
-0.00044929
2.65225e-05
-0.000463478
2.4826e-05
-0.000478522
2.28961e-05
-0.000494365
2.07337e-05
-0.000511027
1.83385e-05
-0.000528501
1.56615e-05
-0.000547156
1.25291e-05
-0.000567705
-0.000591092
9.37493e-06
1.43901e-05
-0.00011313
2.39204e-05
-0.000306132
2.71013e-05
-0.00038191
2.72779e-05
-0.00040807
2.64975e-05
-0.000422119
2.53414e-05
-0.000434704
2.39045e-05
-0.000447854
2.22037e-05
-0.000461777
2.0251e-05
-0.000476569
1.80501e-05
-0.000492164
1.56068e-05
-0.000508584
1.29333e-05
-0.000525827
9.95413e-06
-0.000544176
6.48667e-06
-0.000564238
-0.000587155
2.54988e-06
1.33359e-05
-0.000126466
2.17314e-05
-0.000314528
2.42213e-05
-0.0003844
2.40294e-05
-0.000407878
2.29939e-05
-0.000421083
2.15947e-05
-0.000433305
1.99118e-05
-0.000446171
1.796e-05
-0.000459825
1.57468e-05
-0.000474356
1.32765e-05
-0.000489694
1.05517e-05
-0.000505859
7.58871e-06
-0.000522864
4.28712e-06
-0.000540875
8.06035e-07
-0.000560757
-0.000582487
-3.86251e-06
1.20999e-05
-0.000138566
1.95368e-05
-0.000321965
2.14138e-05
-0.000386277
2.08831e-05
-0.000407347
1.95906e-05
-0.00041979
1.79419e-05
-0.000431656
1.60091e-05
-0.000444238
1.38005e-05
-0.000457616
1.1321e-05
-0.000471877
8.57295e-06
-0.000486946
5.57682e-06
-0.000502863
2.281e-06
-0.000519568
-1.2788e-06
-0.000537315
-5.2511e-06
-0.000556784
-0.000577785
-9.95271e-06
1.09357e-05
-0.000149502
1.73853e-05
-0.000328414
1.8695e-05
-0.000387587
1.78404e-05
-0.000406493
1.62867e-05
-0.000418237
1.43827e-05
-0.000429752
1.21924e-05
-0.000442048
9.71818e-06
-0.000455142
6.96533e-06
-0.000469124
3.93982e-06
-0.00048392
6.44159e-07
-0.000499567
-2.84835e-06
-0.000516076
-6.56759e-06
-0.000533596
-1.10252e-05
-0.000552327
-0.000572858
-1.59526e-05
9.88602e-06
-0.000159388
1.53191e-05
-0.000333847
1.60703e-05
-0.000388338
1.48932e-05
-0.000405316
1.30799e-05
-0.000416424
1.09178e-05
-0.00042759
8.46262e-06
-0.000439592
5.71229e-06
-0.000452392
2.67264e-06
-0.000466084
-6.09275e-07
-0.000480638
-4.1086e-06
-0.000496068
-7.85408e-06
-0.00051233
-1.1885e-05
-0.000529565
-1.65942e-05
-0.000547618
-0.000567661
-2.17908e-05
8.88268e-06
-0.00016827
1.335e-05
-0.000338315
1.35518e-05
-0.00038854
1.20505e-05
-0.000403814
9.97271e-06
-0.000414346
7.54516e-06
-0.000425163
4.80981e-06
-0.000436857
1.76273e-06
-0.000449345
-1.50653e-06
-0.000462815
-5.02301e-06
-0.000477122
-8.80261e-06
-0.000492289
-1.28141e-05
-0.000508319
-1.71575e-05
-0.000525221
-2.20146e-05
-0.00054276
-0.000562212
-2.74642e-05
7.92098e-06
-0.000176191
1.14805e-05
-0.000341874
1.11415e-05
-0.000388201
9.31363e-06
-0.000401986
6.96235e-06
-0.000411995
4.25576e-06
-0.000422456
1.21277e-06
-0.000433814
-2.04033e-06
-0.000446092
-5.56488e-06
-0.00045929
-9.37172e-06
-0.000473315
-1.34244e-05
-0.000488236
-1.77196e-05
-0.000504024
-2.2347e-05
-0.000520594
-2.73357e-05
-0.000537772
-0.000556584
-3.29631e-05
7.00181e-06
-0.000183193
9.71024e-06
-0.000344583
8.84815e-06
-0.000387338
6.68888e-06
-0.000399827
4.04637e-06
-0.000409352
1.02091e-06
-0.000419431
-2.21593e-06
-0.000430577
-5.74188e-06
-0.000442566
-9.55753e-06
-0.000455475
-1.36419e-05
-0.000469231
-1.79722e-05
-0.000483906
-2.25533e-05
-0.000499443
-2.74214e-05
-0.000515726
-3.25807e-05
-0.000532612
-0.000550841
-3.83239e-05
6.12813e-06
-0.000189321
8.03553e-06
-0.00034649
6.66952e-06
-0.000385972
4.17018e-06
-0.000397328
1.19985e-06
-0.000406382
-2.03224e-06
-0.000416199
-5.55338e-06
-0.000427056
-9.37213e-06
-0.000438747
-1.34713e-05
-0.000451376
-1.7835e-05
-0.000464867
-2.24481e-05
-0.000479293
-2.73128e-05
-0.000494578
-3.24259e-05
-0.000510613
-3.77718e-05
-0.000527267
-0.000545031
-4.35818e-05
5.30205e-06
-0.000194623
6.45452e-06
-0.000347642
4.60574e-06
-0.000384124
1.74317e-06
-0.000394465
-1.48373e-06
-0.000403155
-4.99008e-06
-0.000412692
-8.81252e-06
-0.000423234
-1.29217e-05
-0.000434638
-1.73056e-05
-0.000446992
-2.19512e-05
-0.000460221
-2.68487e-05
-0.000474395
-3.19966e-05
-0.00048943
-3.73721e-05
-0.000505237
-4.29268e-05
-0.000521712
-0.000539163
-4.87946e-05
4.52492e-06
-0.000199148
4.96105e-06
-0.000348079
2.64494e-06
-0.000381808
-5.83849e-07
-0.000391236
-4.05226e-06
-0.000399686
-7.87016e-06
-0.000408874
-1.19887e-05
-0.000419115
-1.63898e-05
-0.000430236
-2.10603e-05
-0.000442321
-2.59913e-05
-0.00045529
-3.11747e-05
-0.000469212
-3.66094e-05
-0.000483995
-4.22675e-05
-0.000499579
-4.80617e-05
-0.000515918
-0.000533209
-5.40156e-05
3.79794e-06
-0.000202946
3.55544e-06
-0.000347836
7.58435e-07
-0.000379011
-2.7179e-06
-0.00038776
-6.5414e-06
-0.000395863
-1.06666e-05
-0.000404749
-1.50823e-05
-0.000414699
-1.9776e-05
-0.000425543
-2.47361e-05
-0.000437361
-2.99545e-05
-0.000450072
-3.54259e-05
-0.00046374
-4.11519e-05
-0.000478269
-4.71093e-05
-0.000493622
-5.31861e-05
-0.000509841
-0.000527103
-5.9293e-05
3.11624e-06
-0.000206062
2.24552e-06
-0.000346965
-9.762e-07
-0.000375789
-4.80065e-06
-0.000383936
-8.94743e-06
-0.000391716
-1.33811e-05
-0.000400315
-1.80947e-05
-0.000409986
-2.30823e-05
-0.000420555
-2.83334e-05
-0.00043211
-3.38411e-05
-0.000444564
-3.96023e-05
-0.000457979
-4.56244e-05
-0.000472247
-5.18958e-05
-0.00048735
-5.82996e-05
-0.000503437
-0.00052077
-6.46318e-05
2.47056e-06
-0.000208533
1.06111e-06
-0.000345556
-2.57169e-06
-0.000372156
-6.80045e-06
-0.000379707