/*--------------------------------*- C++ -*----------------------------------*\
  =========                 |
  \\      /  F ield         | OpenFOAM: The Open Source CFD Toolbox
   \\    /   O peration     | Website:  https://openfoam.org
    \\  /    A nd           | Version:  7
     \\/     M anipulation  |
\*---------------------------------------------------------------------------*/
FoamFile
{
    version     2.0;
    format      ascii;
    class       volScalarField;
    location    "32.0001";
    object      p;
}
// * * * * * * * * * * * * * * * * * * * * * * * * * * * * * * * * * * * * * //

dimensions      [0 2 -2 0 0 0 0];

internalField   nonuniform List<scalar> 
18750
(
-0.0152349
-0.023607
-0.0381051
-0.0596774
-0.0870753
-0.119828
-0.157221
-0.198666
-0.243509
-0.291169
-0.341035
-0.392422
-0.444497
-0.496404
-0.547366
-0.0184283
-0.0265448
-0.0408011
-0.0621652
-0.0894044
-0.122055
-0.159405
-0.200861
-0.245758
-0.293511
-0.343515
-0.395101
-0.447426
-0.499533
-0.55054
-0.0247782
-0.0324325
-0.046254
-0.067241
-0.0941796
-0.126609
-0.163818
-0.2052
-0.25007
-0.297829
-0.347879
-0.399569
-0.45202
-0.504155
-0.555017
-0.0340294
-0.0410395
-0.0542486
-0.0747023
-0.101207
-0.133301
-0.170269
-0.211486
-0.256241
-0.303911
-0.353904
-0.405581
-0.458035
-0.510063
-0.560626
-0.0458189
-0.0520343
-0.0644743
-0.0842585
-0.110207
-0.141856
-0.17848
-0.219435
-0.263976
-0.311447
-0.361252
-0.412773
-0.465089
-0.5169
-0.567066
-0.0596979
-0.0649949
-0.0765407
-0.0955477
-0.120838
-0.151938
-0.188117
-0.228706
-0.272923
-0.320072
-0.369542
-0.420736
-0.472757
-0.524252
-0.573972
-0.0751667
-0.0794188
-0.0899978
-0.108157
-0.132707
-0.16317
-0.198805
-0.238923
-0.282705
-0.329408
-0.378392
-0.429084
-0.480643
-0.531723
-0.580984
-0.0916664
-0.0947709
-0.104366
-0.121645
-0.145399
-0.175151
-0.210154
-0.2497
-0.292938
-0.339078
-0.387441
-0.437468
-0.488402
-0.538972
-0.587779
-0.108594
-0.110515
-0.119162
-0.135565
-0.158493
-0.18748
-0.221776
-0.260659
-0.303255
-0.348728
-0.396356
-0.445584
-0.495748
-0.545714
-0.594085
-0.125345
-0.126124
-0.133921
-0.149484
-0.17158
-0.199768
-0.2333
-0.271444
-0.31331
-0.358031
-0.404839
-0.453168
-0.502443
-0.551715
-0.599669
-0.141343
-0.14111
-0.148215
-0.162995
-0.184277
-0.211657
-0.244386
-0.28173
-0.322796
-0.366697
-0.412626
-0.459996
-0.508298
-0.556789
-0.604337
-0.156065
-0.15506
-0.161659
-0.17573
-0.19624
-0.222823
-0.254731
-0.291233
-0.331444
-0.374473
-0.41949
-0.465876
-0.513159
-0.56079
-0.60792
-0.169069
-0.167681
-0.173915
-0.187369
-0.207173
-0.232991
-0.264075
-0.29971
-0.339028
-0.381148
-0.425234
-0.470643
-0.516905
-0.563605
-0.61026
-0.18003
-0.178749
-0.184687
-0.197648
-0.216834
-0.241931
-0.272202
-0.306959
-0.345359
-0.386546
-0.429691
-0.474146
-0.519428
-0.565163
-0.611194
-0.188919
-0.187955
-0.193745
-0.206371
-0.225039
-0.249465
-0.27894
-0.312819
-0.350288
-0.390526
-0.432723
-0.476245
-0.520623
-0.565428
-0.610543
-0.195744
-0.195161
-0.20102
-0.213406
-0.231662
-0.255464
-0.284164
-0.317169
-0.353698
-0.392976
-0.43422
-0.476817
-0.520357
-0.56436
-0.60831
-0.200592
-0.200419
-0.206474
-0.218748
-0.236634
-0.259845
-0.287795
-0.319926
-0.355509
-0.393805
-0.434097
-0.475768
-0.518493
-0.561819
-0.604703
-0.203694
-0.203902
-0.210146
-0.222371
-0.239947
-0.262595
-0.289804
-0.321049
-0.355658
-0.392958
-0.432273
-0.473031
-0.514944
-0.557677
-0.599703
-0.205405
-0.205851
-0.212151
-0.224308
-0.241603
-0.263702
-0.290156
-0.320493
-0.354106
-0.390385
-0.428727
-0.468565
-0.509644
-0.551917
-0.593103
-0.206136
-0.206517
-0.212637
-0.224656
-0.241657
-0.263195
-0.288865
-0.318257
-0.350837
-0.386063
-0.423424
-0.462351
-0.502523
-0.544476
-0.584774
-0.206249
-0.206108
-0.211769
-0.223552
-0.240212
-0.261144
-0.285979
-0.314374
-0.345865
-0.379977
-0.416318
-0.454379
-0.49352
-0.535267
-0.574679
-0.20594
-0.204725
-0.209729
-0.221174
-0.237397
-0.25765
-0.281582
-0.308902
-0.339228
-0.372134
-0.407357
-0.444641
-0.482599
-0.524217
-0.562801
-0.205171
-0.202381
-0.206749
-0.217727
-0.233363
-0.252835
-0.275778
-0.301921
-0.330976
-0.362578
-0.396493
-0.433113
-0.469752
-0.511285
-0.54912
-0.203739
-0.199161
-0.203142
-0.213433
-0.228273
-0.246847
-0.2687
-0.29353
-0.321167
-0.351392
-0.383703
-0.419762
-0.454981
-0.496475
-0.533635
-0.201505
-0.195488
-0.199265
-0.208522
-0.222323
-0.239865
-0.260505
-0.283857
-0.309845
-0.338678
-0.369012
-0.404547
-0.438291
-0.479771
-0.516457
-0.19854
-0.192126
-0.19541
-0.203236
-0.21577
-0.232117
-0.251369
-0.273075
-0.29707
-0.324503
-0.352524
-0.387424
-0.419713
-0.461066
-0.497726
-0.195135
-0.18966
-0.191724
-0.197874
-0.208949
-0.223882
-0.241491
-0.261392
-0.282936
-0.308906
-0.334401
-0.368359
-0.399432
-0.440205
-0.477497
-0.191866
-0.188038
-0.188311
-0.192831
-0.202263
-0.215506
-0.231085
-0.249027
-0.267654
-0.29183
-0.314905
-0.347188
-0.377868
-0.417173
-0.455815
-0.189107
-0.186769
-0.18546
-0.188574
-0.196126
-0.207386
-0.220458
-0.236148
-0.251557
-0.273275
-0.29431
-0.323754
-0.355173
-0.392115
-0.433064
-0.186992
-0.185531
-0.183564
-0.185414
-0.19091
-0.199962
-0.210001
-0.222968
-0.235049
-0.253209
-0.273185
-0.297961
-0.331575
-0.364072
-0.412379
-0.18545
-0.184312
-0.182645
-0.183371
-0.186906
-0.19365
-0.200281
-0.209646
-0.218729
-0.231818
-0.251672
-0.270851
-0.306604
-0.334039
-0.382575
-0.184344
-0.183369
-0.182251
-0.182308
-0.184315
-0.188735
-0.191927
-0.196711
-0.202744
-0.210168
-0.229035
-0.244536
-0.278661
-0.307333
-0.349839
-0.183524
-0.182719
-0.182059
-0.182055
-0.18315
-0.185371
-0.185333
-0.184986
-0.18738
-0.18901
-0.206505
-0.218665
-0.253387
-0.279064
-0.323759
-0.182863
-0.18227
-0.182031
-0.182356
-0.183126
-0.183522
-0.180624
-0.175177
-0.173405
-0.169407
-0.184679
-0.194822
-0.231223
-0.254744
-0.303245
-0.182222
-0.181892
-0.182117
-0.182906
-0.183715
-0.182887
-0.177533
-0.167996
-0.161124
-0.153286
-0.163191
-0.174719
-0.207604
-0.236192
-0.285571
-0.181471
-0.181456
-0.182167
-0.183456
-0.184376
-0.18295
-0.175562
-0.16357
-0.151042
-0.141057
-0.145045
-0.158617
-0.186839
-0.222738
-0.266953
-0.180516
-0.180842
-0.181987
-0.183685
-0.184715
-0.183114
-0.174348
-0.161251
-0.144102
-0.132377
-0.133501
-0.14779
-0.172652
-0.213119
-0.250777
-0.179306
-0.179964
-0.181425
-0.183413
-0.184481
-0.182904
-0.173601
-0.160039
-0.140704
-0.127416
-0.127505
-0.14268
-0.16491
-0.203988
-0.240338
-0.177861
-0.178806
-0.180427
-0.182546
-0.183653
-0.181956
-0.173126
-0.159448
-0.140585
-0.126946
-0.125831
-0.141043
-0.162355
-0.197097
-0.233168
-0.176278
-0.177417
-0.179037
-0.181124
-0.182165
-0.180575
-0.173001
-0.159917
-0.142867
-0.130554
-0.128505
-0.141862
-0.162821
-0.19312
-0.227286
-0.174743
-0.175975
-0.17745
-0.179235
-0.18033
-0.179349
-0.174148
-0.162942
-0.147083
-0.136771
-0.134398
-0.145084
-0.164651
-0.191115
-0.222214
-0.173489
-0.17473
-0.176015
-0.177674
-0.178839
-0.178867
-0.177045
-0.168541
-0.153197
-0.143806
-0.141515
-0.149857
-0.167015
-0.190114
-0.217722
-0.172708
-0.173911
-0.17507
-0.17667
-0.178099
-0.179255
-0.180866
-0.173769
-0.160081
-0.150608
-0.148373
-0.154916
-0.169505
-0.189447
-0.213575
-0.172483
-0.173621
-0.174713
-0.17632
-0.178088
-0.180239
-0.183164
-0.177967
-0.165977
-0.156763
-0.154402
-0.159559
-0.171752
-0.188712
-0.209656
-0.172766
-0.173806
-0.174858
-0.176446
-0.178347
-0.18149
-0.182346
-0.180293
-0.170306
-0.161917
-0.159436
-0.16339
-0.173483
-0.187765
-0.205837
-0.173423
-0.174324
-0.175292
-0.176737
-0.178525
-0.181999
-0.181116
-0.18047
-0.172929
-0.165868
-0.163381
-0.166318
-0.174601
-0.186492
-0.202034
-0.174295
-0.175014
-0.175801
-0.176912
-0.178869
-0.179957
-0.180506
-0.179615
-0.174121
-0.168558
-0.166239
-0.168351
-0.175046
-0.184863
-0.198201
-0.175249
-0.175757
-0.176256
-0.176859
-0.179403
-0.177294
-0.179591
-0.178496
-0.174331
-0.170092
-0.168036
-0.169523
-0.174856
-0.182878
-0.194286
-0.176205
-0.1765
-0.176563
-0.177087
-0.178358
-0.176578
-0.178267
-0.177174
-0.173927
-0.170671
-0.168879
-0.169907
-0.17406
-0.180542
-0.190269
-0.177135
-0.177238
-0.176706
-0.177952
-0.175154
-0.176702
-0.177146
-0.175811
-0.173121
-0.170504
-0.168901
-0.169561
-0.172708
-0.17789
-0.186123
-0.178067
-0.17793
-0.176984
-0.179008
-0.173356
-0.176181
-0.1761
-0.174481
-0.172046
-0.169768
-0.168242
-0.168577
-0.170853
-0.174929
-0.181831
-0.179061
-0.178537
-0.178106
-0.178019
-0.174878
-0.175716
-0.175033
-0.173172
-0.170774
-0.168593
-0.167028
-0.167029
-0.168539
-0.171685
-0.177381
-0.180183
-0.179111
-0.180293
-0.175042
-0.176619
-0.175756
-0.174076
-0.171845
-0.169327
-0.167068
-0.165357
-0.165002
-0.165825
-0.168166
-0.172755
-0.181428
-0.179919
-0.182642
-0.173538
-0.176836
-0.175678
-0.173243
-0.170517
-0.167728
-0.165254
-0.163309
-0.162563
-0.162755
-0.164389
-0.167946
-0.182763
-0.181548
-0.183341
-0.176386
-0.177049
-0.175391
-0.172411
-0.169155
-0.16598
-0.163187
-0.160936
-0.15977
-0.159378
-0.160369
-0.162951
-0.184223
-0.184472
-0.18192
-0.181033
-0.178348
-0.17515
-0.171495
-0.167707
-0.164086
-0.160895
-0.15828
-0.156667
-0.155724
-0.156121
-0.157786
-0.185798
-0.188475
-0.179284
-0.183481
-0.179766
-0.175105
-0.170567
-0.166165
-0.162035
-0.158392
-0.155363
-0.153283
-0.151819
-0.151658
-0.152471
-0.187667
-0.192266
-0.179004
-0.183557
-0.180457
-0.175073
-0.16965
-0.164536
-0.159832
-0.155684
-0.152204
-0.149642
-0.147677
-0.146989
-0.147035
-0.190182
-0.194665
-0.183182
-0.183716
-0.180495
-0.174805
-0.168666
-0.162813
-0.157472
-0.152773
-0.148809
-0.145753
-0.143309
-0.142125
-0.141499
-0.19369
-0.195305
-0.190242
-0.185656
-0.180565
-0.174273
-0.167503
-0.160943
-0.154938
-0.149655
-0.14518
-0.141624
-0.13872
-0.137073
-0.135869
-0.198515
-0.194742
-0.196659
-0.18904
-0.181226
-0.173657
-0.166123
-0.158867
-0.152198
-0.146314
-0.141311
-0.137256
-0.133911
-0.131838
-0.130136
-0.205013
-0.194421
-0.201207
-0.192653
-0.182422
-0.173124
-0.164554
-0.156541
-0.149209
-0.142727
-0.137193
-0.132645
-0.128882
-0.126416
-0.124281
-0.213013
-0.197464
-0.204189
-0.195697
-0.183729
-0.172653
-0.162829
-0.153953
-0.145938
-0.138864
-0.132808
-0.127782
-0.123626
-0.120798
-0.118278
-0.222035
-0.205011
-0.20684
-0.197848
-0.184688
-0.17206
-0.160922
-0.151091
-0.142361
-0.1347
-0.128137
-0.122657
-0.118132
-0.114968
-0.112101
-0.231063
-0.215906
-0.210232
-0.199215
-0.184996
-0.171106
-0.158744
-0.147934
-0.138461
-0.130214
-0.123161
-0.11725
-0.112384
-0.108912
-0.105736
-0.238807
-0.227104
-0.214457
-0.200103
-0.184561
-0.169606
-0.15618
-0.144435
-0.134219
-0.12539
-0.11786
-0.111543
-0.10636
-0.102611
-0.0991799
-0.244225
-0.235969
-0.218547
-0.20066
-0.183451
-0.167478
-0.153135
-0.140541
-0.129611
-0.120212
-0.11222
-0.105516
-0.100036
-0.0960471
-0.0924251
-0.24707
-0.24159
-0.221453
-0.20073
-0.181758
-0.164729
-0.149553
-0.1362
-0.124608
-0.114664
-0.106228
-0.0991515
-0.0933907
-0.0891915
-0.0854455
-0.247969
-0.244341
-0.222828
-0.200096
-0.179511
-0.161396
-0.145418
-0.131377
-0.11918
-0.108728
-0.0998697
-0.0924393
-0.0864093
-0.0820171
-0.0781811
-0.248009
-0.245063
-0.222743
-0.198623
-0.176673
-0.157498
-0.140731
-0.126048
-0.113303
-0.102385
-0.0931341
-0.0853747
-0.0790945
-0.074512
-0.0705278
-0.247962
-0.24454
-0.221426
-0.196272
-0.173193
-0.153028
-0.13549
-0.120201
-0.106955
-0.0956162
-0.0860079
-0.0779553
-0.0714624
-0.0667015
-0.0623617
-0.248199
-0.243294
-0.21911
-0.193062
-0.169024
-0.147958
-0.129686
-0.113824
-0.10012
-0.088404
-0.0784794
-0.0701787
-0.063533
-0.0586471
-0.0536028
-0.248753
-0.241585
-0.215972
-0.189026
-0.164132
-0.142254
-0.123296
-0.1069
-0.0927818
-0.080736
-0.070542
-0.0620456
-0.0553174
-0.0503956
-0.0443151
-0.249419
-0.239514
-0.212121
-0.184192
-0.158487
-0.135873
-0.116291
-0.0994099
-0.0849279
-0.0726068
-0.0621992
-0.0535704
-0.0468269
-0.0418861
-0.0347768
-0.249846
-0.237069
-0.207594
-0.178561
-0.152057
-0.128773
-0.108636
-0.0913333
-0.0765515
-0.0640198
-0.0534634
-0.0447812
-0.0380876
-0.0329271
-0.0253205
-0.249648
-0.234098
-0.202351
-0.172107
-0.144803
-0.120913
-0.100301
-0.0826546
-0.0676556
-0.0549855
-0.0443519
-0.0357071
-0.0290987
-0.0234936
-0.015958
-0.248513
-0.230256
-0.19628
-0.164781
-0.136689
-0.112261
-0.0912665
-0.0733727
-0.0582521
-0.0455127
-0.0348798
-0.0263326
-0.019772
-0.0137364
-0.00660117
-0.246133
-0.225238
-0.189233
-0.156517
-0.127679
-0.102802
-0.0815378
-0.0635042
-0.0483475
-0.0355904
-0.025035
-0.0166317
-0.0100717
-0.00377892
0.00282098
-0.242261
-0.218833
-0.181064
-0.147246
-0.117749
-0.0925418
-0.0711361
-0.0530732
-0.0378995
-0.0252136
-0.0148134
-0.00658448
-1.56017e-05
0.00632752
0.0123424
-0.2367
-0.21089
-0.171647
-0.13691
-0.1069
-0.0815089
-0.0600723
-0.0420221
-0.0269165
-0.0143895
-0.00421483
0.00381152
0.0103478
0.0165898
0.0219757
-0.229315
-0.201324
-0.160882
-0.125467
-0.0951584
-0.0697084
-0.048292
-0.0303474
-0.0154105
-0.00312957
0.00675506
0.0145455
0.0209854
0.0270275
0.0317269
-0.220025
-0.190121
-0.148693
-0.112911
-0.0825368
-0.0570785
-0.0357916
-0.0180585
-0.00339494
0.00855217
0.0180846
0.0256019
0.0318847
0.0376533
0.0415906
-0.208804
-0.177338
-0.135035
-0.0992684
-0.0689431
-0.0436227
-0.0225834
-0.00517213
0.00911395
0.0206402
0.0297607
0.0369664
0.0430351
0.0484584
0.0515376
-0.195659
-0.163058
-0.119932
-0.0844446
-0.0543788
-0.0293585
-0.00868983
0.00828971
0.0220969
0.0331194
0.0417734
0.0486287
0.0544132
0.0593866
0.0615158
-0.180629
-0.147274
-0.1035
-0.0684041
-0.0388555
-0.0143115
0.00586021
0.0222997
0.0355317
0.0459764
0.0541191
0.0605816
0.0659781
0.0703249
0.0714245
-0.163794
-0.129778
-0.0859118
-0.0512569
-0.0224072
0.00148771
0.021033
0.0368263
0.0493944
0.0591993
0.0667962
0.0728144
0.0776756
0.0811227
0.081
-0.145275
-0.110268
-0.0673926
-0.0331533
-0.00509624
0.0180011
0.0367913
0.0518351
0.0636595
0.0727755
0.0797969
0.0852977
0.0894362
0.091615
0.0897889
-0.125195
-0.0889981
-0.0477787
-0.0141995
0.0129952
0.0351782
0.0530935
0.0672896
0.0783003
0.0866865
0.0930934
0.0979699
0.10116
0.101663
0.0976457
-0.103577
-0.0663891
-0.0270202
0.00555309
0.031785
0.0529575
0.0698923
0.0831513
0.0932874
0.100903
0.10663
0.110735
0.112737
0.111347
0.10549
-0.0803595
-0.0429082
-0.0052183
0.026074
0.051203
0.0712721
0.0871348
0.099379
0.108586
0.115382
0.120332
0.12349
0.124126
0.121164
0.115165
-0.0556887
-0.0186919
0.0174671
0.0473098
0.0711845
0.0900536
0.104764
0.115926
0.124153
0.130068
0.134126
0.136183
0.135427
0.131391
0.128335
-0.0297831
0.00625841
0.0408869
0.0691737
0.0916607
0.109234
0.122718
0.132742
0.139937
0.144898
0.147957
0.148839
0.146851
0.142296
0.141225
-0.00285465
0.0319037
0.0649153
0.091561
0.112553
0.128742
0.140936
0.149768
0.155878
0.159813
0.161797
0.161518
0.158529
0.153843
0.1535
0.0249072
0.0581586
0.0894381
0.114363
0.133776
0.148505
0.15935
0.166943
0.171915
0.174761
0.175632
0.174245
0.170405
0.165618
0.165232
0.0533231
0.0849038
0.114342
0.137473
0.155237
0.168445
0.177891
0.184201
0.18799
0.189701
0.18945
0.187022
0.182445
0.177456
0.176556
0.0822229
0.112005
0.139512
0.160782
0.176843
0.188481
0.196487
0.201477
0.204044
0.204592
0.203224
0.199795
0.194498
0.189164
0.187604
0.11144
0.139322
0.164826
0.184185
0.1985
0.208531
0.215064
0.218705
0.220023
0.219395
0.216925
0.21253
0.206517
0.200707
0.198397
0.140811
0.166713
0.190165
0.207575
0.220111
0.22851
0.233547
0.235818
0.235871
0.234061
0.230497
0.225143
0.218394
0.212046
0.208967
0.170177
0.194038
0.215405
0.230844
0.241583
0.248333
0.251863
0.252753
0.251534
0.248546
0.243901
0.237603
0.2301
0.223146
0.219282
0.199381
0.221161
0.240426
0.253887
0.262821
0.267918
0.269936
0.269442
0.266953
0.262792
0.257074
0.249835
0.241576
0.234003
0.229336
0.22827
0.247948
0.265109
0.276598
0.283732
0.287181
0.287693
0.285824
0.282073
0.276753
0.269978
0.26181
0.252786
0.244563
0.239089
0.256695
0.274268
0.289339
0.298874
0.304224
0.306042
0.305063
0.301832
0.296834
0.290368
0.282551
0.273471
0.263699
0.254822
0.24852
0.284514
0.299997
0.313004
0.320615
0.324208
0.32442
0.321975
0.317405
0.311183
0.303595
0.294758
0.284783
0.274267
0.264724
0.257598
0.311587
0.325011
0.335994
0.341724
0.343599
0.342239
0.33836
0.332481
0.325062
0.316377
0.306546
0.295708
0.28447
0.274257
0.266295
0.337781
0.349196
0.358204
0.362107
0.362311
0.359424
0.354151
0.347001
0.33842
0.328671
0.317878
0.3062
0.294258
0.28338
0.274589
0.36297
0.372438
0.379537
0.381676
0.380266
0.375904
0.369285
0.360907
0.351203
0.340428
0.328712
0.316234
0.303611
0.292069
0.282452
0.387032
0.394633
0.399895
0.400344
0.397387
0.391611
0.383701
0.374146
0.363365
0.351606
0.339007
0.325764
0.312489
0.300295
0.289865
0.409854
0.415679
0.41919
0.418032
0.413601
0.406478
0.39734
0.386664
0.374858
0.362165
0.348731
0.334766
0.320864
0.308032
0.296808
0.431329
0.435484
0.437338
0.434663
0.42884
0.420447
0.410149
0.398413
0.385639
0.372064
0.357844
0.343203
0.328709
0.315258
0.303262
0.451357
0.453958
0.454259
0.450166
0.443042
0.433459
0.422075
0.409348
0.395667
0.38127
0.366318
0.351047
0.335994
0.321948
0.309212
0.469845
0.471023
0.469882
0.464477
0.456147
0.445462
0.433071
0.419425
0.404905
0.389746
0.374121
0.358271
0.342697
0.328085
0.314644
0.486707
0.486607
0.484141
0.477537
0.468102
0.456408
0.443095
0.428607
0.413318
0.397463
0.381226
0.364848
0.348795
0.333649
0.319546
0.501867
0.500645
0.49698
0.48929
0.478857
0.466251
0.452106
0.436858
0.420875
0.404393
0.387606
0.370755
0.354266
0.338625
0.323909
0.515259
0.51308
0.508344
0.499687
0.488368
0.474953
0.46007
0.444147
0.427547
0.410511
0.393239
0.375972
0.359091
0.342998
0.327725
0.526841
0.523848
0.518182
0.508685
0.496596
0.482478
0.466954
0.450445
0.433311
0.415795
0.398105
0.380479
0.363255
0.346758
0.330988
0.536578
0.532894
0.526451
0.516245
0.503507
0.488797
0.472732
0.455729
0.438145
0.420225
0.402185
0.384259
0.366742
0.349894
0.333697
0.544431
0.54018
0.533113
0.522335
0.509073
0.493884
0.477381
0.459979
0.442031
0.423785
0.405465
0.387296
0.369541
0.352401
0.335852
0.550365
0.545678
0.538141
0.526929
0.51327
0.497718
0.480884
0.463179
0.444956
0.426464
0.407931
0.38958
0.371641
0.354274
0.337456
0.554351
0.549368
0.541513
0.530009
0.516081
0.500284
0.483227
0.465318
0.446908
0.42825
0.409575
0.391101
0.373037
0.355513
0.338513
0.556373
0.551235
0.543217
0.531562
0.517496
0.501573
0.4844
0.466386
0.44788
0.429137
0.41039
0.391854
0.373725
0.356121
0.339027
0.556419
0.551272
0.543245
0.531581
0.517508
0.501578
0.484399
0.46638
0.44787
0.429123
0.410373
0.391834
0.373704
0.356097
0.339002
0.55449
0.549479
0.541597
0.530067
0.516117
0.500299
0.483224
0.465299
0.446876
0.428206
0.409523
0.391042
0.372971
0.355441
0.338436
0.550593
0.545863
0.538279
0.527025
0.513328
0.497742
0.480879
0.463148
0.444901
0.42639
0.407843
0.389479
0.371528
0.35415
0.337327
0.544748
0.540437
0.533304
0.522467
0.509152
0.493916
0.477372
0.459933
0.441954
0.423681
0.40534
0.387153
0.36938
0.352226
0.33567
0.536979
0.533219
0.526692
0.51641
0.503605
0.488835
0.472716
0.455667
0.438043
0.420089
0.402022
0.384072
0.366534
0.349668
0.333462
0.527322
0.524239
0.518469
0.508881
0.49671
0.482519
0.46693
0.450365
0.433183
0.415625
0.397902
0.380248
0.362998
0.346479
0.3307
0.515815
0.51353
0.508672
0.499909
0.488494
0.474993
0.460035
0.444046
0.42739
0.410306
0.392995
0.375695
0.358784
0.342667
0.327382
0.502495
0.501148
0.497344
0.489532
0.47899
0.466287
0.452057
0.436734
0.420686
0.40415
0.387318
0.37043
0.353907
0.338239
0.32351
0.487401
0.487154
0.484535
0.477795
0.468238
0.456435
0.443027
0.428456
0.413095
0.397179
0.380891
0.364472
0.348383
0.333207
0.31909
0.470595
0.471609
0.470298
0.464745
0.45628
0.445476
0.432981
0.419243
0.404643
0.389418
0.373738
0.357842
0.342229
0.327585
0.314129
0.452154
0.454575
0.454692
0.450436
0.443166
0.433454
0.421956
0.40913
0.395364
0.380894
0.365883
0.350562
0.335468
0.321388
0.308636
0.432163
0.436121
0.437778
0.434928
0.428949
0.420417
0.409997
0.398155
0.385289
0.371637
0.357353
0.34266
0.328121
0.314635
0.302624
0.410713
0.416328
0.41963
0.418284
0.413686
0.406417
0.397149
0.38636
0.374458
0.361683
0.348181
0.334161
0.320212
0.307344
0.296105
0.387903
0.395282
0.400323
0.400575
0.397442
0.391511
0.383465
0.373791
0.362909
0.351064
0.338394
0.325094
0.31177
0.29954
0.289095
0.36384
0.373076
0.379943
0.381876
0.380282
0.375758
0.368997
0.360496
0.350685
0.339821
0.328032
0.315494
0.302822
0.291243
0.281613
0.338635
0.349809
0.358578
0.362265
0.362278
0.359223
0.353803
0.346526
0.337836
0.327994
0.317125
0.305387
0.293396
0.282481
0.273677
0.31241
0.325587
0.336321
0.341829
0.343507
0.341975
0.337944
0.331935
0.324405
0.315626
0.305718
0.294818
0.283531
0.273282
0.26531
0.285289
0.30052
0.313273
0.320656
0.324048
0.324083
0.321484
0.316782
0.310447
0.302764
0.293848
0.283812
0.273247
0.263669
0.256535
0.257405
0.274723
0.289536
0.298838
0.303984
0.305623
0.304489
0.301124
0.296012
0.289451
0.281556
0.272414
0.262595
0.253684
0.247377
0.228896
0.248318
0.265219
0.276473
0.283401
0.28667
0.287026
0.285023
0.281158
0.275744
0.268891
0.260663
0.251592
0.243338
0.237863
0.199904
0.22143
0.240434
0.25366
0.262387
0.267305
0.269167
0.268541
0.265939
0.261685
0.255891
0.248594
0.24029
0.232689
0.228024
0.170576
0.194188
0.215295
0.230501
0.241035
0.247607
0.250983
0.251742
0.250413
0.247335
0.242617
0.236262
0.228717
0.221738
0.217881
0.141066
0.166725
0.189921
0.2071
0.219435
0.227659
0.232547
0.23469
0.234636
0.232739
0.229105
0.223698
0.21691
0.21054
0.207474
0.111527
0.139177
0.164431
0.183565
0.197683
0.207545
0.213932
0.217451
0.218666
0.217956
0.21542
0.210976
0.204928
0.1991
0.196808
0.0821201
0.111683
0.138948
0.16
0.175873
0.187348
0.195214
0.200088
0.202558
0.203029
0.201602
0.198127
0.192799
0.187452
0.185917
0.053006
0.0843832
0.113592
0.136514
0.154099
0.167153
0.176467
0.182669
0.186368
0.188008
0.187704
0.185237
0.180633
0.175634
0.174766
0.0243506
0.0574187
0.0884833
0.113212
0.132456
0.147042
0.157766
0.165258
0.170149
0.172932
0.173756
0.172336
0.168475
0.163681
0.163335
-0.00367743
0.0309243
0.0637386
0.0902011
0.111038
0.127097
0.139181
0.147922
0.15396
0.15784
0.159786
0.159483
0.156478
0.151787
0.151488
-0.0309006
0.0050224
0.0394705
0.0675877
0.0899364
0.107395
0.120783
0.130727
0.137859
0.142776
0.145806
0.146673
0.144677
0.140118
0.139085
-0.057133
-0.020196
0.0157916
0.0454799
0.0692379
0.08801
0.102638
0.113734
0.12191
0.127789
0.131828
0.13388
0.133129
0.129094
0.126057
-0.0821658
-0.0446831
-0.00717652
0.0239829
0.0490225
0.0690134
0.0848089
0.0970004
0.10617
0.112942
0.117882
0.121045
0.121698
0.11875
0.112742
-0.105784
-0.0684353
-0.029291
0.00318763
0.0293606
0.0504734
0.0673572
0.0805792
0.0906917
0.0982959
0.104024
0.108143
0.110175
0.108818
0.10297
-0.127813
-0.0913587
-0.0503939
-0.016846
0.010317
0.0324577
0.0503402
0.0645164
0.075519
0.0839074
0.0903267
0.0952282
0.0984599
0.0990168
0.0950363
-0.148304
-0.113016
-0.0703693
-0.0360842
-0.00803998
0.0150334
0.0338116
0.0488542
0.0606867
0.0698195
0.0768662
0.082403
0.0865949
0.0888454
0.0870735
-0.167253
-0.132979
-0.0892342
-0.05448
-0.0256311
-0.0017371
0.0178195
0.0336313
0.0462245
0.0560618
0.063698
0.0697643
0.0746901
0.0782208
0.0781623
-0.184545
-0.15099
-0.107121
-0.0719387
-0.0423741
-0.0178015
0.00240645
0.0188848
0.0321596
0.0426528
0.0508496
0.0573731
0.0628446
0.0672841
0.0684563
-0.200054
-0.167243
-0.123888
-0.0883215
-0.0582022
-0.0331198
-0.01239
0.00464948
0.0185181
0.0296057
0.0383288
0.0452584
0.0511288
0.056204
0.058415
-0.213692
-0.181955
-0.139366
-0.103514
-0.0730756
-0.0476614
-0.026536
-0.00904238
0.00532459
0.0169328
0.0261373
0.0334312
0.0395981
0.0451334
0.048304
-0.225417
-0.195168
-0.153436
-0.117516
-0.0869822
-0.0614017
-0.0400021
-0.0221627
-0.00739792
0.00464815
0.0142792
0.021899
0.0282943
0.0341866
0.0382242
-0.235215
-0.206815
-0.166042
-0.130411
-0.0999271
-0.0743222
-0.0527648
-0.0346886
-0.0196292
-0.00723245
0.00276519
0.0106726
0.0172411
0.0234195
0.0282278
-0.24311
-0.216839
-0.177216
-0.142198
-0.111979
-0.0864165
-0.0648104
-0.0466032
-0.0313521
-0.0186932
-0.00839085
-0.000233423
0.00644813
0.0128408
0.0183443
-0.249172
-0.225241
-0.187034
-0.152883
-0.123138
-0.0977268
-0.0761402
-0.0578965
-0.0425522
-0.0297204
-0.0191762
-0.0108026
-0.00407383
0.00243827
0.00857998
-0.253525
-0.232094
-0.19559
-0.1625
-0.133378
-0.108263
-0.0867927
-0.0685713
-0.0532178
-0.0403028
-0.0295838
-0.0210225
-0.014295
-0.00780686
-0.00106919
-0.256356
-0.237535
-0.203005
-0.171102
-0.142697
-0.118003
-0.0967727
-0.0786707
-0.0633434
-0.050431
-0.0396129
-0.0308923
-0.0241662
-0.0179055
-0.010612
-0.257899
-0.241759
-0.209417
-0.178754
-0.151116
-0.126935
-0.106062
-0.0881843
-0.0729695
-0.0601002
-0.0492675
-0.0404302
-0.0336636
-0.0278148
-0.0200766
-0.258451
-0.245053
-0.214975
-0.18552
-0.15867
-0.135074
-0.114653
-0.0970971
-0.0820843
-0.0693299
-0.0585559
-0.0496657
-0.0428116
-0.0374199
-0.0295293
-0.258312
-0.247766
-0.219797
-0.191454
-0.165393
-0.142449
-0.122561
-0.105407
-0.0906758
-0.0781135
-0.0674722
-0.0586209
-0.0516833
-0.0465628
-0.0390671
-0.257856
-0.250079
-0.223934
-0.196586
-0.171325
-0.149097
-0.129814
-0.113127
-0.098742
-0.08644
-0.0759988
-0.0672635
-0.0603116
-0.0551999
-0.0487294
-0.25744
-0.252017
-0.22736
-0.200918
-0.176497
-0.15506
-0.136445
-0.120276
-0.10629
-0.0943043
-0.0841199
-0.0755652
-0.0686729
-0.0635634
-0.0581925
-0.257293
-0.253498
-0.22998
-0.20443
-0.180941
-0.16038
-0.142485
-0.126875
-0.113332
-0.10171
-0.09183
-0.0835105
-0.0767544
-0.0717448
-0.067134
-0.257425
-0.254294
-0.231631
-0.207086
-0.184687
-0.165093
-0.147956
-0.13294
-0.119884
-0.10867
-0.0991345
-0.0910977
-0.0845434
-0.0796998
-0.0754647
-0.25753
-0.253944
-0.232095
-0.208866
-0.187779
-0.169227
-0.15287
-0.138483
-0.125961
-0.1152
-0.106045
-0.0983286
-0.092017
-0.0873555
-0.0832612
-0.256916
-0.251711
-0.23114
-0.209795
-0.190268
-0.172793
-0.157231
-0.143517
-0.131585
-0.121319
-0.112576
-0.105205
-0.0991552
-0.0946769
-0.0906549
-0.254577
-0.246776
-0.228666
-0.209985
-0.192193
-0.175777
-0.161036
-0.148063
-0.136779
-0.127046
-0.118739
-0.11173
-0.105953
-0.101673
-0.0977568
-0.249723
-0.238669
-0.224911
-0.209637
-0.193541
-0.178146
-0.1643
-0.152155
-0.141571
-0.1324
-0.124546
-0.117916
-0.112425
-0.108372
-0.104631
-0.24245
-0.227992
-0.220752
-0.208932
-0.194232
-0.179884
-0.167068
-0.15584
-0.145991
-0.137396
-0.13001
-0.123777
-0.118593
-0.114804
-0.111306
-0.233719
-0.217037
-0.217311
-0.207797
-0.194189
-0.181055
-0.169431
-0.159174
-0.150065
-0.142051
-0.135148
-0.129335
-0.124484
-0.120992
-0.117789
-0.224758
-0.208898
-0.214695
-0.205942
-0.193471
-0.181827
-0.171503
-0.162204
-0.153811
-0.146379
-0.139977
-0.134611
-0.13012
-0.126953
-0.124085
-0.216654
-0.205132
-0.21198
-0.203198
-0.192337
-0.182431
-0.173377
-0.164956
-0.157248
-0.150402
-0.144516
-0.139622
-0.135517
-0.132703
-0.130206
-0.20999
-0.20501
-0.207907
-0.1998
-0.19122
-0.183069
-0.175095
-0.167444
-0.160396
-0.154144
-0.148786
-0.14438
-0.140688
-0.138259
-0.136179
-0.204953
-0.2057
-0.201933
-0.196433
-0.190559
-0.183795
-0.17663
-0.169676
-0.163287
-0.157634
-0.152803
-0.148897
-0.145641
-0.143629
-0.142031
-0.201278
-0.205351
-0.194968
-0.194226
-0.190501
-0.184474
-0.177947
-0.17169
-0.16596
-0.160896
-0.15658
-0.153175
-0.150377
-0.148821
-0.147784
-0.198644
-0.203316
-0.190152
-0.193871
-0.190622
-0.184913
-0.179069
-0.173541
-0.168453
-0.163946
-0.160123
-0.157215
-0.154895
-0.153829
-0.153449
-0.19672
-0.199796
-0.189682
-0.194073
-0.190208
-0.185094
-0.1801
-0.175288
-0.170784
-0.16679
-0.16343
-0.161013
-0.159194
-0.15865
-0.159019
-0.195146
-0.19581
-0.19216
-0.192311
-0.189026
-0.185231
-0.181131
-0.176945
-0.172955
-0.169427
-0.166495
-0.164558
-0.163265
-0.163273
-0.164476
-0.193702
-0.192711
-0.193902
-0.188088
-0.187719
-0.18555
-0.18216
-0.178501
-0.174962
-0.171847
-0.169304
-0.167835
-0.167099
-0.167695
-0.169793
-0.19238
-0.190889
-0.193638
-0.184633
-0.187416
-0.185965
-0.183105
-0.179956
-0.176809
-0.174038
-0.171835
-0.170815
-0.170673
-0.171904
-0.174954
-0.191148
-0.190005
-0.191558
-0.185393
-0.187505
-0.18621
-0.184012
-0.181346
-0.178489
-0.175973
-0.174053
-0.173462
-0.173964
-0.175889
-0.179943
-0.190028
-0.189449
-0.189286
-0.188434
-0.186189
-0.186249
-0.185015
-0.182713
-0.179997
-0.177616
-0.175909
-0.175724
-0.176929
-0.179643
-0.184769
-0.189041
-0.188879
-0.187989
-0.189904
-0.184386
-0.186697
-0.18612
-0.184024
-0.181303
-0.178913
-0.177335
-0.177544
-0.17953
-0.183152
-0.189442
-0.18813
-0.188226
-0.187618
-0.189088
-0.18554
-0.187405
-0.187187
-0.185295
-0.182385
-0.179783
-0.178243
-0.178847
-0.18172
-0.186414
-0.193979
-0.187237
-0.187519
-0.187484
-0.188132
-0.18873
-0.187443
-0.1882
-0.186539
-0.18318
-0.18011
-0.178522
-0.179568
-0.183458
-0.189413
-0.198401
-0.18633
-0.186809
-0.187219
-0.187758
-0.190246
-0.187741
-0.189381
-0.187705
-0.183567
-0.179738
-0.178047
-0.179631
-0.184706
-0.192144
-0.202724
-0.18543
-0.186105
-0.186794
-0.187753
-0.189708
-0.189904
-0.190239
-0.18862
-0.183368
-0.178482
-0.176699
-0.178986
-0.185422
-0.194584
-0.20698
-0.184609
-0.18545
-0.186305
-0.187569
-0.18919
-0.192034
-0.190569
-0.189215
-0.182274
-0.176161
-0.174384
-0.177581
-0.185592
-0.196728
-0.21119
-0.183984
-0.184951
-0.185875
-0.187255
-0.188877
-0.191636
-0.191283
-0.188987
-0.179903
-0.172674
-0.171085
-0.175391
-0.185188
-0.198591
-0.215404
-0.183698
-0.184747
-0.185693
-0.187067
-0.188533
-0.190247
-0.191944
-0.18686
-0.175979
-0.16808
-0.16682
-0.172429
-0.184266
-0.200194
-0.219674
-0.18387
-0.184967
-0.185951
-0.187286
-0.188389
-0.189102
-0.19009
-0.182958
-0.17064
-0.16259
-0.161702
-0.16877
-0.182929
-0.201651
-0.224068
-0.184542
-0.185658
-0.186729
-0.188083
-0.188884
-0.188521
-0.186446
-0.178229
-0.16439
-0.156573
-0.155916
-0.164764
-0.181413
-0.203094
-0.228712
-0.185644
-0.186735
-0.187953
-0.189396
-0.190059
-0.188727
-0.18349
-0.172925
-0.158706
-0.150461
-0.149917
-0.161013
-0.180086
-0.204852
-0.233709
-0.187009
-0.188003
-0.189329
-0.19099
-0.191583
-0.18965
-0.182098
-0.169821
-0.154806
-0.145123
-0.14493
-0.158632
-0.179305
-0.207528
-0.239256
-0.188435
-0.189247
-0.190563
-0.192265
-0.192869
-0.190818