/*--------------------------------*- C++ -*----------------------------------*\
  =========                 |
  \\      /  F ield         | OpenFOAM: The Open Source CFD Toolbox
   \\    /   O peration     | Website:  https://openfoam.org
    \\  /    A nd           | Version:  7
     \\/     M anipulation  |
\*---------------------------------------------------------------------------*/
FoamFile
{
    version     2.0;
    format      ascii;
    class       surfaceScalarField;
    location    "32.0001";
    object      phi;
}
// * * * * * * * * * * * * * * * * * * * * * * * * * * * * * * * * * * * * * //

dimensions      [0 3 -1 0 0 0 0];

internalField   nonuniform List<scalar> 
37105
(
-1.00684e-05
1.12158e-05
-1.14748e-06
-2.37349e-05
1.61063e-05
-2.43974e-06
-3.79749e-05
1.79007e-05
-3.6607e-06
-5.28876e-05
1.99769e-05
-5.06427e-06
-6.85856e-05
2.22983e-05
-6.60025e-06
-8.51358e-05
2.47946e-05
-8.24435e-06
-0.000102591
2.7429e-05
-9.97383e-06
-0.000120974
3.01461e-05
-1.17635e-05
-0.000140297
3.29172e-05
-1.35942e-05
-0.000160561
3.57119e-05
-1.54471e-05
-0.000181771
3.85168e-05
-1.73067e-05
-0.000203915
4.12947e-05
-1.91507e-05
-0.000226956
4.39913e-05
-2.09503e-05
-0.000250866
4.65463e-05
-2.26366e-05
4.91038e-05
-2.41462e-05
-0.000275824
-9.91001e-06
2.11259e-05
-2.34241e-05
2.96204e-05
-3.75164e-05
3.19931e-05
-5.22674e-05
3.47279e-05
-6.77846e-05
3.78155e-05
-8.41264e-05
4.11364e-05
-0.000101335
4.4638e-05
-0.000119422
4.82327e-05
-0.000138384
5.18794e-05
-0.000158206
5.55334e-05
-0.00017887
5.91811e-05
-0.000200348
6.27727e-05
-0.000222603
6.62457e-05
-0.000245624
6.95674e-05
7.292e-05
-0.00026944
-9.60289e-06
3.07287e-05
-2.28205e-05
4.28379e-05
-3.66251e-05
4.57977e-05
-5.10616e-05
4.91643e-05
-6.62286e-05
5.29825e-05
-8.21702e-05
5.7078e-05
-9.89128e-05
6.13806e-05
-0.000116448
6.57684e-05
-0.000134754
7.01846e-05
-0.000153786
7.4566e-05
-0.000173503
7.88981e-05
-0.000193857
8.3127e-05
-0.00021481
8.71978e-05
-0.00023633
9.10876e-05
9.49933e-05
-0.000258403
-9.15174e-06
3.98805e-05
-2.19328e-05
5.5619e-05
-3.53146e-05
5.91794e-05
-4.92915e-05
6.31413e-05
-6.39497e-05
6.76407e-05
-7.9314e-05
7.24423e-05
-9.53904e-05
7.74569e-05
-0.000112149
8.25272e-05
-0.000129542
8.75772e-05
-0.000147498
9.25224e-05
-0.000165948
9.73479e-05
-0.000184828
0.000102007
-0.000204096
0.000106466
-0.000223709
0.000110701
0.00011488
-0.000243596
-8.5659e-06
4.84464e-05
-2.07741e-05
6.78272e-05
-3.36043e-05
7.20096e-05
-4.69881e-05
7.65251e-05
-6.0994e-05
8.16466e-05
-7.56244e-05
8.70727e-05
-9.08625e-05
9.26951e-05
-0.000106656
9.83204e-05
-0.000122932
0.000103853
-0.000139595
0.000109186
-0.000156552
0.000114305
-0.000173727
0.000119181
-0.000191078
0.000123817
-0.000208565
0.000128188
0.000132409
-0.000226094
-7.86981e-06
5.63162e-05
-1.93594e-05
7.93168e-05
-3.15188e-05
8.4169e-05
-4.41905e-05
8.91968e-05
-5.7419e-05
9.48751e-05
-7.11831e-05
0.000100837
-8.54429e-05
0.000106955
-0.000100124
0.000113002
-0.000115134
0.000118863
-0.000130359
0.000124411
-0.000145689
0.000129635
-0.00016104
0.000134532
-0.000176377
0.000139154
-0.000191677
0.000143488
0.000147592
-0.00020686
-7.0431e-06
6.33593e-05
-1.76971e-05
8.99708e-05
-2.90854e-05
9.55574e-05
-4.09434e-05
0.000101055
-5.32899e-05
0.000107222
-6.60809e-05
0.000113628
-7.9255e-05
0.000120129
-9.27198e-05
0.000126466
-0.000106367
0.000132511
-0.000120073
0.000138116
-0.000133717
0.000143279
-0.000147214
0.00014803
-0.000160539
0.000152479
-0.0001737
0.000156649
0.000160546
-0.000186655
-6.08514e-06
6.94444e-05
-1.58006e-05
9.96863e-05
-2.63338e-05
0.000106091
-3.72951e-05
0.000112016
-4.86757e-05
0.000118602
-6.0412e-05
0.000125364
-7.24241e-05
0.000132141
-8.46049e-05
0.000138647
-9.68371e-05
0.000144743
-0.000108992
0.000150271
-0.00012095
0.000155237
-0.000132626
0.000159706
-0.000144005
0.000163859
-0.000155131
0.000167774
0.000171424
-0.000166008
-5.01154e-06
7.4456e-05
-1.36886e-05
0.000108363
-2.32961e-05
0.000115698
-3.32955e-05
0.000122015
-4.36458e-05
0.000128953
-5.42691e-05
0.000135987
-6.50701e-05
0.000142942
-7.59314e-05
0.000149508
-8.67303e-05
0.000155542
-9.73408e-05
0.000160881
-0.000107649
0.000165546
-0.000117573
0.000169629
-0.000127102
0.000173388
-0.000136307
0.00017698
0.000180364
-0.000145247
-3.8329e-06
7.82889e-05
-1.13785e-05
0.000115909
-2.0007e-05
0.000124327
-2.89946e-05
0.000131003
-3.82684e-05
0.000138226
-4.7741e-05
0.00014546
-5.73052e-05
0.000152506
-6.68362e-05
0.000159039
-7.62098e-05
0.000164916
-8.5306e-05
0.000169977
-9.40211e-05
0.000174261
-0.000102277
0.000177885
-0.000110058
0.000181169
-0.000117446
0.000184368
0.000187466
-0.000124548
-2.55566e-06
8.08445e-05
-8.8966e-06
0.00012225
-1.65021e-05
0.000131932
-2.44411e-05
0.000138942
-3.26083e-05
0.000146394
-4.09101e-05
0.000153762
-4.92299e-05
0.000160826
-5.74385e-05
0.000167248
-6.54122e-05
0.000172889
-7.30381e-05
0.000177603
-8.02242e-05
0.000181447
-8.68973e-05
0.000184558
-9.30259e-05
0.000187298
-9.86721e-05
0.000190014
0.000192789
-0.000103995
-1.17266e-06
8.20172e-05
-6.27659e-06
0.000127354
-1.28171e-05
0.000138473
-1.96809e-05
0.000145806
-2.67262e-05
0.000153439
-3.38521e-05
0.000160888
-4.09342e-05
0.000167908
-4.78415e-05
0.000174155
-5.44519e-05
0.0001795
-6.06574e-05
0.000183809
-6.63762e-05
0.000187166
-7.1544e-05
0.000189726
-7.61072e-05
0.000191861
-8.00711e-05
0.000193978
0.000196354
-8.36361e-05
2.933e-07
8.17239e-05
-3.56018e-06
0.000131207
-8.98046e-06
0.000143893
-1.47576e-05
0.000151583
-2.06792e-05
0.000159361
-2.66357e-05
0.000166844
-3.24966e-05
0.000173769
-3.81318e-05
0.000179791
-4.34207e-05
0.000184788
-4.82588e-05
0.000188647
-5.25671e-05
0.000191474
-5.6291e-05
0.00019345
-5.93707e-05
0.000194941
-6.17131e-05
0.00019632
0.000198123
-6.34821e-05
1.60965e-06
8.01143e-05
-7.89899e-07
0.000133607
-5.02717e-06
0.00014813
-9.71439e-06
0.00015627
-1.45199e-05
0.000164166
-1.93229e-05
0.000171647
-2.39867e-05
0.000178433
-2.83846e-05
0.000184188
-3.2396e-05
0.0001888
-3.59189e-05
0.00019217
-3.88679e-05
0.000194423
-4.1189e-05
0.000195771
-4.28518e-05
0.000196603
-4.36953e-05
0.000197164
0.000197824
-4.3397e-05
3.01775e-06
7.70965e-05
2.10171e-06
0.000134523
-1.01357e-06
0.000151245
-4.59377e-06
0.00015985
-8.30067e-06
0.000167873
-1.19709e-05
0.000175317
-1.54668e-05
0.000181929
-1.86645e-05
0.000187386
-2.14399e-05
0.000191575
-2.36977e-05
0.000194428
-2.53385e-05
0.000196064
-2.62857e-05
0.000196718
-2.65272e-05
0.000196845
-2.59913e-05
0.000196628
0.000195678
-2.38446e-05
4.43852e-06
7.2658e-05
5.03544e-06
0.000133926
3.13607e-06
0.000153145
5.54551e-07
0.000162432
-2.08278e-06
0.00017051
-4.63756e-06
0.000177872
-6.9982e-06
0.000184289
-9.03357e-06
0.000189422
-1.06146e-05
0.000193156
-1.165e-05
0.000195463
-1.20258e-05
0.000196439
-1.16405e-05
0.000196333
-1.04291e-05
0.000195633
-8.36062e-06
0.000194559
0.000192442
-5.12531e-06
5.81666e-06
6.68413e-05
7.96707e-06
0.000131776
7.29821e-06
0.000153814
5.80078e-06
0.000163929
4.18531e-06
0.000172126
2.66186e-06
0.000179396
1.36023e-06
0.000185591
4.1691e-07
0.000190365
-4.6527e-08
0.00019362
1.30744e-07
0.000195286
1.02008e-06
0.00019555
2.70449e-06
0.000194649
5.27769e-06
0.00019306
8.84019e-06
0.000190997
0.00018773
1.35524e-05
7.0934e-06
5.97479e-05
1.08339e-05
0.000128035
1.14291e-05
0.000153218
1.09826e-05
0.000164376
1.03949e-05
0.000172713
9.91814e-06
0.000179872
9.69639e-06
0.000185813
9.85681e-06
0.000190204
1.05304e-05
0.000192946
1.18206e-05
0.000193996
1.38497e-05
0.000193521
1.67853e-05
0.000191713
2.07183e-05
0.000189127
2.54851e-05
0.00018623
0.000181362
3.18533e-05
8.19116e-06
5.15568e-05
1.35554e-05
0.000122671
1.54831e-05
0.000151291
1.6093e-05
0.000163766
1.64898e-05
0.000172317
1.70092e-05
0.000179353
1.78068e-05
0.000185015
1.90106e-05
0.000189001
2.07513e-05
0.000191205
2.31555e-05
0.000191591
2.63273e-05
0.000190349
3.04585e-05
0.000187582
3.57821e-05
0.000183804
4.18668e-05
0.000180145
0.000173534
4.96952e-05
9.00388e-06
4.25529e-05
1.60338e-05
0.000115641
1.93943e-05
0.00014793
2.10876e-05
0.000162073
2.24389e-05
0.000170965
2.39111e-05
0.000177881
2.56843e-05
0.000183242
2.78878e-05
0.000186797
3.06585e-05
0.000188435
3.41501e-05
0.0001881
3.84545e-05
0.000186045
4.37109e-05
0.000182325
5.04629e-05
0.000177052
5.79104e-05
0.000172698
0.000164399
6.70452e-05
9.39497e-06
3.31579e-05
1.81566e-05
0.000106879
2.30783e-05
0.000143009
2.59056e-05
0.000159245
2.81991e-05
0.000168672
3.0584e-05
0.000175496
3.32895e-05
0.000180537
3.64526e-05
0.000183634
4.02122e-05
0.000184675
4.47592e-05
0.000183553
5.02077e-05
0.000180596
5.65164e-05
0.000176017
6.46853e-05
0.000168883
7.35853e-05
0.000163798
0.000153937
8.40471e-05
9.22548e-06
2.39324e-05
1.98077e-05
9.6297e-05
2.64249e-05
0.000136391
3.04697e-05
0.0001552
3.37173e-05
0.000165424
3.69867e-05
0.000172227
4.05779e-05
0.000176945
4.4657e-05
0.000179555
4.93608e-05
0.000179971
5.49122e-05
0.000178001
6.15548e-05
0.000173954
6.88509e-05
0.00016872
7.83743e-05
0.000159359
8.87793e-05
0.000153393
0.000141925
0.000100791
8.4389e-06
1.54935e-05
2.08679e-05
8.3868e-05
2.92915e-05
0.000127968
3.46819e-05
0.00014981
3.89362e-05
0.00016117
4.30679e-05
0.000168095
4.74971e-05
0.000172516
5.24505e-05
0.000174602
5.80642e-05
0.000174358
6.45045e-05
0.000171561
7.24097e-05
0.000166049
8.06822e-05
0.000160448
9.14583e-05
0.000148583
0.000103415
0.000141436
0.00012801
0.000117329
7.148e-06
8.34553e-06
2.11891e-05
6.98269e-05
3.15056e-05
0.000117651
3.84263e-05
0.000142889
4.37786e-05
0.000155818
4.87773e-05
0.000163096
5.39903e-05
0.000167303
5.97542e-05
0.000168838
6.62801e-05
0.000167832
7.34824e-05
0.000164359
8.2695e-05
0.000156836
9.20008e-05
0.000151142
0.000103859
0.000136725
0.000117086
0.00012821
0.000111495
0.000133602
5.58855e-06
2.75698e-06
2.05942e-05
5.48213e-05
3.28824e-05
0.000105363
4.15614e-05
0.00013421
4.81485e-05
0.000149231
5.40314e-05
0.000157213
6.00022e-05
0.000161332
6.64859e-05
0.000162354
7.39561e-05
0.000160361
8.17718e-05
0.000156543
9.22119e-05
0.000146396
0.000102803
0.000140551
0.000115902
0.000123625
0.00012962
0.000114492
9.22261e-05
0.000148888
3.97481e-06
-1.21782e-06
1.89311e-05
3.98649e-05
3.32407e-05
9.10534e-05
4.39095e-05
0.000123542
5.18969e-05
0.000141243
5.87433e-05
0.000150367
6.54614e-05
0.000154614
7.25227e-05
0.000155293
8.09979e-05
0.000151886
8.94056e-05
0.000148135
0.000100737
0.000135065
0.000112606
0.000128681
0.00012778
0.000108451
0.000141652
0.00010062
7.06456e-05
0.000163233
2.46747e-06
-3.6853e-06
1.62345e-05
2.60979e-05
3.24226e-05
7.48653e-05
4.5228e-05
0.000110736
5.48311e-05
0.00013164
6.27363e-05
0.000142462
7.03199e-05
0.000147031
7.78157e-05
0.000147797
8.71808e-05
0.000142521
9.63443e-05
0.000138972
0.000108348
0.000123061
0.000120985
0.000116044
0.000138609
9.08281e-05
0.000153421
8.58084e-05
4.71667e-05
0.0001769
1.24637e-06
-4.93166e-06
1.28298e-05
1.45145e-05
3.02953e-05
5.73998e-05
4.52103e-05
9.58213e-05
5.66852e-05
0.000120165
6.58267e-05
0.00013332
7.4356e-05
0.000138501
8.2313e-05
0.00013984
9.23436e-05
0.00013249
0.00010245
0.000128865
0.000115011
0.000110501
0.000128174
0.000102881
0.000147334
7.1668e-05
0.000164055
6.90869e-05
2.20703e-05
0.000189151
4.67604e-07
-5.39927e-06
9.30246e-06
5.67962e-06
2.67039e-05
3.99984e-05
4.35279e-05
7.89972e-05
5.71297e-05
0.000106563
6.76788e-05
0.000122771
7.74229e-05
0.000128757
8.58623e-05
0.000131401
9.60911e-05
0.000122262
0.000107461
0.000117495
0.000120668
9.72933e-05
0.000134508
8.90416e-05
0.000153636
5.25396e-05
0.000173056
4.96675e-05
-4.40851e-06
0.000199535
8.49945e-08
-5.48426e-06
6.21289e-06
-4.48276e-07
2.17766e-05
2.44347e-05
3.99123e-05
6.08615e-05
5.5777e-05
9.06986e-05
6.79494e-05
0.000110599
7.88957e-05
0.000117811
8.86422e-05
0.000121654
9.83343e-05
0.00011257
0.000110472
0.000105358
0.000123884
8.38812e-05
0.000140265
7.26608e-05
0.000155525
3.72798e-05
0.000181723
2.34697e-05
-2.54306e-05
0.000202745
-5.52775e-08
-5.42898e-06
3.89994e-06
-4.4035e-06
1.63345e-05
1.20001e-05
3.43928e-05
4.28032e-05
5.21553e-05
7.29362e-05
6.62833e-05
9.64705e-05
7.83092e-05
0.000105785
8.93793e-05
0.000110584
9.97393e-05
0.00010221
0.000111815
9.32816e-05
0.000124948
7.07488e-05
0.000143367
5.42416e-05
0.000158033
2.2614e-05
0.000184482
-2.97921e-06
-4.14424e-05
0.000200493
8.95254e-09
-5.43794e-06
2.59629e-06
-6.99083e-06
1.15361e-05
3.06031e-06
2.75871e-05
2.67523e-05
4.60574e-05
5.44658e-05
6.2044e-05
8.04839e-05
7.53672e-05
9.24619e-05
8.76187e-05
9.83325e-05
9.84017e-05
9.14265e-05
0.000112873
7.88105e-05
0.000122241
6.1381e-05
0.000144589
3.18935e-05
0.000156716
1.0487e-05
0.000180936
-2.7199e-05
-6.21578e-05
0.000201651
2.00516e-07
-5.63845e-06
2.14564e-06
-8.93595e-06
8.15611e-06
-2.95016e-06
2.07787e-05
1.41296e-05
3.79585e-05
3.7286e-05
5.49483e-05
6.34941e-05
6.9176e-05
7.82343e-05
8.33168e-05
8.41916e-05
9.29729e-05
8.17705e-05
0.000110499
6.12843e-05
0.000118089
5.3791e-05
0.000142025
7.95779e-06
0.000150328
2.18375e-06
0.000179293
-5.61634e-05
-7.58278e-05
0.000192963
4.75801e-07
-6.11425e-06
2.16489e-06
-1.0625e-05
6.22908e-06
-7.01434e-06
1.5172e-05
5.18673e-06
2.91137e-05
2.33443e-05
4.54381e-05
4.71697e-05
5.97474e-05
6.39249e-05
7.48673e-05
6.90718e-05
8.50891e-05
7.15488e-05
0.000101268
4.51049e-05
0.000112664
4.23959e-05
0.000133705
-1.30838e-05
0.000142648
-6.75887e-06
0.00017482
-8.83359e-05
-7.54931e-05
0.000174486
7.14111e-07
-6.82837e-06
2.24418e-06
-1.21551e-05
5.08907e-06
-9.85924e-06
1.09725e-05
-6.967e-07
2.08763e-05
1.34406e-05
3.44971e-05
3.35488e-05
4.78969e-05
5.05252e-05
6.17965e-05
5.51721e-05
7.3541e-05
5.98043e-05
8.64019e-05
3.22439e-05
0.000100285
2.85125e-05
0.000113204
-2.60028e-05
0.000127892
-2.14468e-05
0.00015063
-0.000111074
-9.0442e-05
0.000165579
7.9277e-07
-7.62114e-06
2.01132e-06
-1.33737e-05
3.89805e-06
-1.1746e-05
7.45598e-06
-4.25463e-06
1.36356e-05
7.26097e-06
2.33241e-05
2.38603e-05
3.44778e-05
3.93715e-05
4.55101e-05
4.41398e-05
5.6836e-05
4.84785e-05
6.75515e-05
2.15283e-05
8.03221e-05
1.57419e-05
8.86842e-05
-3.43649e-05
0.000113098
-4.58603e-05
0.000133808
-0.000131784
-0.00014672
0.000190086
6.23706e-07
-8.24484e-06
1.22996e-06
-1.39799e-05
2.04627e-06
-1.25623e-05
3.71218e-06
-5.92054e-06
6.81385e-06
4.15931e-06
1.25616e-05
1.81125e-05
2.03193e-05
3.16138e-05
2.81662e-05
3.6293e-05
3.69452e-05
3.96994e-05
4.50634e-05
1.34101e-05
5.92594e-05
1.54591e-06
7.67054e-05
-5.18109e-05
0.000119227
-8.83821e-05
0.000163943
-0.0001765
-0.000216011
0.000233233
1.80802e-07
-8.42564e-06
-1.53346e-07
-1.36458e-05
-6.43475e-07
-1.20722e-05
-7.959e-07
-5.76811e-06
-4.00156e-07
3.76356e-06
2.01685e-06
1.56955e-05
5.74027e-06
2.78904e-05
1.03791e-05
3.16541e-05
1.6228e-05
3.38505e-05
2.46436e-05
4.99452e-06
5.10142e-05
-2.48247e-05
8.98652e-05
-9.06618e-05
0.000149066
-0.000147583
0.000199599
-0.000227033
-0.000267222
0.00025081
-4.90842e-07
-7.9348e-06
-1.96929e-06
-1.21673e-05
-3.90454e-06
-1.01369e-05
-5.89962e-06
-3.77304e-06
-7.74862e-06
5.61256e-06
-8.97602e-06
1.69229e-05
-9.01818e-06
2.79325e-05
-6.82854e-06
2.94645e-05
1.65893e-06
2.5363e-05
2.25956e-05
-1.59421e-05
6.8169e-05
-7.03981e-05
0.000121371
-0.000143864
0.000179415
-0.000205627
0.000218471
-0.000266088
-0.00030455
0.000255799
-1.28049e-06
-6.65431e-06
-3.98927e-06
-9.45854e-06
-7.39931e-06
-6.72685e-06
-1.1197e-05
2.46676e-08
-1.51421e-05
9.55764e-06
-1.90205e-05
2.08014e-05
-2.12942e-05
3.02063e-05
-1.73821e-05
2.55523e-05
3.5841e-06
4.39686e-06
4.41683e-05
-5.65264e-05
9.98754e-05
-0.000126105
0.000151071
-0.00019506
0.000195718
-0.000250274
0.000227593
-0.000297963
-0.000334216
0.00025726
-2.02204e-06
-4.63227e-06
-5.79912e-06
-5.68146e-06
-1.04436e-05
-2.08242e-06
-1.54767e-05
5.05785e-06
-2.06212e-05
1.4702e-05
-2.48763e-05
2.50565e-05
-2.54899e-05
3.08199e-05
-1.31845e-05
1.32469e-05
2.34694e-05
-3.2257e-05
7.50768e-05
-0.000108134
0.00012729
-0.000178318
0.000169608
-0.000237378
0.000204435
-0.000285101
0.000231102
-0.00032463
-0.000355918
0.000252804
-2.53498e-06
-2.0973e-06
-6.97481e-06
-1.24162e-06
-1.21861e-05
3.12891e-06
-1.75417e-05
1.04134e-05
-2.22052e-05
1.93655e-05
-2.41347e-05
2.69861e-05
-1.90916e-05
2.57768e-05
5.88298e-06
-1.17278e-05
5.25043e-05
-7.88784e-05
0.000102129
-0.000157759
0.000145749
-0.000221938
0.000180749
-0.000272379
0.00020822
-0.000312572
0.000228929
-0.000345339
-0.000374566
0.000247576
-2.70548e-06
6.08183e-07
-7.25918e-06
3.31208e-06
-1.22954e-05
8.16518e-06
-1.68515e-05
1.49695e-05
-1.95891e-05
2.21031e-05
-1.77226e-05
2.51195e-05
-4.51068e-06
1.25649e-05
3.11291e-05
-4.73676e-05
7.92403e-05
-0.00012699
0.000122477
-0.000200995
0.000158183
-0.000257644
0.000186141
-0.000300336
0.000207553
-0.000333984
0.000225215
-0.000363001
-0.000390245
0.000240895
-2.52966e-06
3.13785e-06
-6.69682e-06
7.47924e-06
-1.09339e-05
1.24023e-05
-1.394e-05
1.79756e-05
-1.39735e-05
2.21366e-05
-8.55538e-06
1.97014e-05
1.38587e-05
-9.84916e-06
5.60006e-05
-8.95095e-05
9.98581e-05
-0.000170847
0.000136643
-0.000237781
0.000165169
-0.000286169
0.000187293
-0.000322461
0.000204988
-0.00035168
0.000219575
-0.000377587
-0.000403867
0.000233197
-2.09567e-06
5.23351e-06
-5.53034e-06
1.09139e-05
-8.62612e-06
1.5498e-05
-9.89274e-06
1.92422e-05
-7.43592e-06
1.96798e-05
2.5164e-06
9.74909e-06
3.39079e-05
-4.12407e-05
7.66881e-05
-0.00013229
0.000115243
-0.000209402
0.000145493
-0.000268031
0.000168235
-0.000308911
0.000186064
-0.00034029
0.000200396
-0.000366011
0.000213203
-0.000390395
-0.000416536
0.000225873
-1.5358e-06
6.76931e-06
-4.08736e-06
1.34655e-05
-5.98601e-06
1.73967e-05
-5.67067e-06
1.89269e-05
-1.88023e-06
1.58893e-05
1.48758e-05
-7.00698e-06
5.37712e-05
-8.0136e-05
9.31619e-05
-0.00017168
0.000125706
-0.000241945
0.000150171
-0.000292496
0.000168341
-0.000327081
0.000182703
-0.000354652
0.000195024
-0.000378332
0.00020656
-0.00040193
-0.000427637
0.000217661
-9.79294e-07
7.7486e-06
-2.66495e-06
1.51511e-05
-3.5175e-06
1.82492e-05
-1.97221e-06
1.73816e-05
3.70787e-06
1.02093e-05
2.87747e-05
-3.20738e-05
7.04327e-05
-0.000121794
0.000105419
-0.000206667
0.000132182
-0.000268708
0.000151698
-0.000312012
0.00016629
-0.000341673
0.000178394
-0.000366756
0.000189036
-0.000388974
0.000199339
-0.000412234
-0.000438156
0.000209858
-5.2364e-07
8.27224e-06
-1.47765e-06
1.61051e-05
-1.44455e-06
1.82161e-05
4.02457e-07
1.55346e-05
1.09657e-05
-3.53985e-07
4.43947e-05
-6.55028e-05
8.32995e-05
-0.000160699
0.000113654
-0.000237021
0.000135386
-0.00029044
0.000150918
-0.000327545
0.000162897
-0.000353652
0.000173149
-0.000377008
0.0001826
-0.000398425
0.00019226
-0.000421894
-0.000447625
0.000201729
-2.25136e-07
8.49738e-06
-6.36723e-07
1.65167e-05
2.6345e-08
1.75531e-05
2.37108e-06
1.31899e-05
2.0011e-05
-1.79939e-05
5.89443e-05
-0.000104436
9.3197e-05
-0.000194952
0.000118488
-0.000262312
0.00013605
-0.000308003
0.000148544
-0.000340038
0.000158493
-0.000363601
0.000167491
-0.000386007
0.000176087
-0.000407021
0.000184838
-0.000430645
-0.000456384
0.000193597
-1.00962e-07
8.59834e-06
-7.26628e-08
1.64884e-05
7.37746e-07
1.67427e-05
5.51253e-06
8.41507e-06
3.17778e-05
-4.42592e-05
6.99717e-05
-0.00014263
9.98686e-05
-0.000224848
0.000120644
-0.000283087
0.000134802
-0.000322161
0.000144986
-0.000350221
0.000153522
-0.000372138
0.00016149
-0.000393974
0.000169275
-0.000414806
0.000177483
-0.000438853
-0.000464464
0.000185563
-1.17811e-07
8.71615e-06
1.62603e-07
1.6208e-05
7.35779e-07
1.61695e-05
1.10852e-05
-1.93435e-06
4.45385e-05
-7.77125e-05
7.841e-05
-0.000176502
0.000103741
-0.00025018
0.000120706
-0.000300052
0.000132173
-0.000333628
0.000140674
-0.000358723
0.000148106
-0.00037957
0.00015527
-0.000401138
0.000162497
-0.000422033
0.000170013
-0.000446369
-0.000471764
0.000177312
-2.16618e-07
8.93277e-06
1.4277e-07
1.58486e-05
1.11683e-06
1.51954e-05
1.81908e-05
-1.90084e-05
5.50343e-05
-0.000114556
8.45395e-05
-0.000206007
0.000105389
-0.000271029
0.000119163
-0.000313826
0.000128571
-0.000343037
0.000135802
-0.000365953
0.000142431
-0.000386199
0.000148941
-0.000407648
0.000155542
-0.000428634
0.000162478
-0.000453305
-0.000478556
0.00016927
-2.77976e-07
9.21075e-06
-7.88309e-08
1.56495e-05
3.30788e-06
1.18087e-05
2.78347e-05
-4.35351e-05
6.22844e-05
-0.000149006
8.82098e-05
-0.000231932
0.000105359
-0.000288178
0.000116496
-0.000324962
0.000124295
-0.000350836
0.000130595
-0.000372253
0.000136564
-0.000392168
0.000142479
-0.000413562
0.000148602
-0.000434758
0.000154955
-0.000459658
-0.000484631
0.000161031
-3.15066e-07
9.52581e-06
-4.43521e-07
1.57779e-05
7.55762e-06
3.80755e-06
3.79468e-05
-7.39243e-05
6.791e-05
-0.000178969
8.97983e-05
-0.00025382
0.000103898
-0.000302278
0.000112989
-0.000334053
0.000119575
-0.000357422
0.000125139
-0.000377817
0.000130565
-0.000397594
0.000135986
-0.000418984
0.000141581
-0.000440353
0.000147333
-0.00046541
-0.000490234
0.000152935
-3.66789e-07
9.8926e-06
-6.26831e-07
1.6038e-05
1.253e-05
-9.34924e-06
4.58598e-05
-0.000107254
7.18462e-05
-0.000204955
8.98783e-05
-0.000271853
0.000101397
-0.000313796
0.00010891
-0.000341567
0.000114558
-0.000363069
0.00011954
-0.0003828
0.000124486
-0.00040254
0.000129416
-0.000423914
0.000134552
-0.000445489
0.000139776
-0.000470634
-0.000495217
0.00014476
-2.70042e-07
1.01626e-05
2.66502e-07
1.55014e-05
1.90046e-05
-2.80873e-05
5.07556e-05
-0.000139005
7.40219e-05
-0.000228222
8.88814e-05
-0.000286712
9.81789e-05
-0.000323093
0.00010442
-0.000347808
0.000109345
-0.000367994
0.000113835
-0.00038729
0.000118337
-0.000407041
0.000122836
-0.000428414
0.000127499
-0.000450151
0.000132145
-0.00047528
-0.00049972
0.000136647
-2.36868e-07
1.03995e-05
2.57899e-06
1.26856e-05
2.62931e-05
-5.18014e-05
5.43532e-05
-0.000167065
7.45173e-05
-0.000248386
8.68777e-05
-0.000299072
9.44429e-05
-0.000330659
9.96831e-05
-0.000353048
0.000104011
-0.000372322
0.000108071
-0.00039135
0.000112158
-0.000411129
0.000116216
-0.000432472
0.000120422
-0.000454357
0.000124578
-0.000479436
-0.000503703
0.000128561
-2.75684e-07
1.06752e-05
5.64012e-06
6.76978e-06
3.27905e-05
-7.89518e-05
5.69532e-05
-0.000191228
7.38114e-05
-0.000265244
8.40553e-05
-0.000309316
9.03153e-05
-0.000336919
9.47753e-05
-0.000357508
9.86059e-05
-0.000376153
0.000102266
-0.00039501
0.000105946
-0.000414808
0.000109593
-0.000436119
0.000113348
-0.000458111
0.000116973
-0.000483061
-0.000507225
0.000120495
-3.0648e-07
1.09817e-05
8.86712e-06
-2.40383e-06
3.73665e-05
-0.000107451
5.84842e-05
-0.000212346
7.23198e-05
-0.000279079
8.06791e-05
-0.000317676
8.59034e-05
-0.000342143
8.97637e-05
-0.000361369
9.31645e-05
-0.000379553
9.64446e-05
-0.00039829
9.97314e-05
-0.000418095
0.000102959
-0.000439347
0.000106259
-0.000461411
0.000109419
-0.000486222
-0.000510314
0.000112508
-2.86495e-07
1.12682e-05
1.2381e-05
-1.50713e-05
3.97941e-05
-0.000134864
5.88642e-05
-0.000231416
7.02554e-05
-0.000290471
7.69827e-05
-0.000324403
8.13291e-05
-0.00034649
8.46839e-05
-0.000364723
8.77022e-05
-0.000382572
9.06176e-05
-0.000401206
9.351e-05
-0.000420987
9.63333e-05
-0.00044217
9.91926e-05
-0.00046427
0.000101869
-0.000488898
-0.000512972
0.000104526
-2.80062e-07
1.15482e-05
1.65179e-05
-3.18693e-05
4.1013e-05
-0.000159359
5.80254e-05
-0.000248428
6.7649e-05
-0.000300094
7.30816e-05
-0.000329836
7.66791e-05
-0.000350087
7.95836e-05
-0.000367628
8.224e-05
-0.000385228
8.47952e-05
-0.000403761
8.73023e-05
-0.000423495
8.97172e-05
-0.000444585
9.21305e-05
-0.000466683
9.43646e-05
-0.000491132
-0.00051522
9.66127e-05
2.28328e-07
1.13199e-05
2.00474e-05
-5.16884e-05
4.18081e-05
-0.00018112
5.6408e-05
-0.000263028
6.45418e-05
-0.000308228
6.90208e-05
-0.000334315
7.20089e-05
-0.000353075
7.44915e-05
-0.00037011
7.67895e-05
-0.000387526
7.89871e-05
-0.000405958
8.11071e-05
-0.000425615
8.31201e-05
-0.000446598
8.51038e-05
-0.000468667
8.68906e-05
-0.000492918
-0.000517022
8.86921e-05
9.89606e-07
1.03303e-05
2.28939e-05
-7.35927e-05
4.19888e-05
-0.000200215
5.43248e-05
-0.000275364
6.10955e-05
-0.000314999
6.48265e-05
-0.000338046
6.73314e-05
-0.00035558
6.9429e-05
-0.000372208
7.13691e-05
-0.000389466
7.32024e-05
-0.000407792
7.49387e-05
-0.000427351
7.65491e-05
-0.000448208
7.80966e-05
-0.000470214
7.94537e-05
-0.000494276
-0.000518408
8.08397e-05
2.19501e-06
8.13529e-06
2.4886e-05
-9.62837e-05
4.1705e-05
-0.000217034
5.19493e-05
-0.000285608
5.74705e-05
-0.00032052
6.05586e-05
-0.000341134
6.26573e-05
-0.000357679
6.4399e-05
-0.00037395
6.5983e-05
-0.00039105
6.74501e-05
-0.000409259
6.87993e-05
-0.0004287
7.0009e-05
-0.000449418
7.11311e-05
-0.000471337
7.20469e-05
-0.000495191
-0.000519315
7.29538e-05
3.8742e-06
4.26109e-06
2.60173e-05
-0.000118427
4.09979e-05
-0.000232015
4.93885e-05
-0.000293999
5.37791e-05
-0.00032491
5.6272e-05
-0.000343627
5.79974e-05
-0.000359404
5.94044e-05
-0.000375357
6.06393e-05
-0.000392285
6.17371e-05
-0.000410357
6.26994e-05
-0.000429662
6.35079e-05
-0.000450227
6.41982e-05
-0.000472027
6.46732e-05
-0.000495666
-0.000519759
6.51179e-05
5.87289e-06
-1.6118e-06
2.62804e-05
-0.000138834
3.98066e-05
-0.000245541
4.66898e-05
-0.000300882
5.00811e-05
-0.000328302
5.20132e-05
-0.000345559
5.33717e-05
-0.000360763
5.44482e-05
-0.000376433
5.53372e-05
-0.000393174
5.6068e-05
-0.000411088
5.66423e-05
-0.000430237
5.70482e-05
-0.000450633
5.73135e-05
-0.000472292
5.73468e-05
-0.0004957
-0.00051972
5.7307e-05
8.0518e-06
-9.6636e-06
2.6175e-05
-0.000156957
3.81133e-05
-0.000257479
4.3827e-05
-0.000306596
4.63949e-05
-0.00033087
4.78077e-05
-0.000346972
4.87946e-05
-0.000361749
4.9538e-05
-0.000377177
5.00839e-05
-0.00039372
5.04485e-05
-0.000411452
5.0635e-05
-0.000430423
5.06365e-05
-0.000450634
5.04724e-05
-0.000472128
5.0069e-05
-0.000495296
-0.000519209
4.95583e-05
9.99601e-06
-1.96596e-05
2.60338e-05
-0.000172995
3.6139e-05
-0.000267584
4.0788e-05
-0.000311245
4.27036e-05
-0.000332785
4.36601e-05
-0.000347928
4.42794e-05
-0.000362369
4.46823e-05
-0.00037758
4.48822e-05
-0.00039392
4.48827e-05
-0.000411453
4.46824e-05
-0.000430223
4.42765e-05
-0.000450228
4.36846e-05
-0.000471536
4.28506e-05
-0.000494462
-0.000518215
4.1857e-05
1.13028e-05
-3.09624e-05
2.55576e-05
-0.00018725
3.3969e-05
-0.000275996
3.76221e-05
-0.000314898
3.89957e-05
-0.000334159
3.9563e-05
-0.000348495
3.98296e-05
-0.000362635
3.98891e-05
-0.000377639
3.97411e-05
-0.000393772
3.93778e-05
-0.000411089
3.87924e-05
-0.000429637
3.79783e-05
-0.000449414
3.69511e-05
-0.000470509
3.56848e-05
-0.000493196
-0.000516756
3.42248e-05
1.20049e-05
-4.29674e-05
2.47102e-05
-0.000199955
3.16485e-05
-0.000282934
3.4405e-05
-0.000317655
3.52972e-05
-0.000335051
3.55159e-05
-0.000348714
3.5447e-05
-0.000362566
3.51637e-05
-0.000377356
3.46649e-05
-0.000393273
3.39383e-05
-0.000410363
3.29718e-05
-0.000428671
3.17537e-05
-0.000448196
3.02914e-05
-0.000469047
2.85747e-05
-0.000491479
-0.000514831
2.66504e-05
1.21921e-05
-5.51595e-05
2.35396e-05
-0.000211303
2.92087e-05
-0.000288603
3.11822e-05
-0.000319628
3.16341e-05
-0.000335503
3.15241e-05
-0.000348604
3.11313e-05
-0.000362174
3.05098e-05
-0.000376734
2.96606e-05
-0.000392424
2.85709e-05
-0.000409273
2.72266e-05
-0.000427327
2.56157e-05
-0.000446585
2.37291e-05
-0.00046716
2.15223e-05
-0.000489272
-0.000512446
1.91369e-05
1.20003e-05
-6.71597e-05
2.21092e-05
-0.000221412
2.66867e-05
-0.00029318
2.79838e-05
-0.000320925
2.80275e-05
-0.000335547
2.75971e-05
-0.000348174
2.68861e-05
-0.000361463
2.59299e-05
-0.000375778
2.47313e-05
-0.000391225
2.32793e-05
-0.000407821
2.15595e-05
-0.000425607
1.95648e-05
-0.00044459
1.72858e-05
-0.000464881
1.45734e-05
-0.00048656
-0.000509542
1.16691e-05
1.15478e-05
-7.87075e-05
2.04927e-05
-0.000230357
2.4116e-05
-0.000296804
2.48263e-05
-0.000321636
2.4491e-05
-0.000335211
2.37435e-05
-0.000347426
2.27155e-05
-0.000360435
2.14274e-05
-0.00037449
1.98826e-05
-0.00038968
1.80695e-05
-0.000406008
1.59744e-05
-0.000423512
1.3596e-05
-0.000442212
1.09395e-05
-0.000462225
7.81514e-06
-0.000483436
-0.000505927
4.201e-06
1.09143e-05
-8.96218e-05
1.87504e-05
-0.000238193
2.15316e-05
-0.000299585
2.1727e-05
-0.000321831
2.10352e-05
-0.000334519
1.9971e-05
-0.000346362
1.86249e-05
-0.000359088
1.70059e-05
-0.000372871
1.51164e-05
-0.000387791
1.29438e-05
-0.000403835
1.04769e-05
-0.000421045
7.71402e-06
-0.000439449
4.62973e-06
-0.00045914
1.412e-06
-0.000480218
-0.00050152
-2.99546e-06
1.01447e-05
-9.97665e-05
1.69331e-05
-0.000244981
1.89659e-05
-0.000301618
1.86999e-05
-0.000321565
1.7667e-05
-0.000333487
1.6285e-05
-0.00034498
1.46183e-05
-0.000357422
1.26688e-05
-0.000370921
1.04351e-05
-0.000385557
7.90373e-06
-0.000401304
5.07227e-06
-0.000418213
1.90738e-06
-0.000436284
-1.59781e-06
-0.000455635
-5.29284e-06
-0.000476523
-0.000497082
-9.73108e-06
9.22586e-06
-0.000108992
1.50848e-05
-0.00025084
1.64488e-05
-0.000302982
1.57591e-05
-0.000320875
1.43916e-05
-0.000332119
1.26894e-05
-0.000343278
1.06986e-05
-0.000355431
8.41807e-06
-0.000368641
5.83552e-06
-0.000382975
2.94541e-06
-0.000398414
-2.54631e-07
-0.000415013
-3.74113e-06
-0.000432798
-7.49104e-06
-0.000451885
-1.18436e-05
-0.00047217
-0.000492478
-1.64471e-05
8.34769e-06
-0.00011734
1.3253e-05
-0.000255745
1.39962e-05
-0.000303725
1.29083e-05
-0.000319787
1.12108e-05
-0.000330422
9.1863e-06
-0.000341253
6.86575e-06
-0.00035311
4.24986e-06
-0.000366025
1.30431e-06
-0.000380029
-1.90794e-06
-0.000395202
-5.42651e-06
-0.000411495
-9.25434e-06
-0.00042897
-1.33976e-05
-0.000447742
-1.81844e-05
-0.000467383
-0.00048757
-2.30931e-05
7.49451e-06
-0.000124835
1.14693e-05
-0.00025972
1.16202e-05
-0.000303876
1.01473e-05
-0.000318315
8.12516e-06
-0.000328399
5.77455e-06
-0.000338903
3.11549e-06
-0.000350451
1.18178e-07
-0.000363028
-3.08814e-06
-0.000376823
-6.63877e-06
-0.000391651
-1.05079e-05
-0.000407626
-1.46873e-05
-0.00042479
-1.925e-05
-0.000443179
-2.43701e-05
-0.000462263
-0.000482299
-2.96405e-05
6.65448e-06
-0.000131489
9.74741e-06
-0.000262813
9.32959e-06
-0.000303458
7.4804e-06
-0.000316465
5.1328e-06
-0.000326052
2.44394e-06
-0.000336214
-5.59811e-07
-0.000347448
-3.79362e-06
-0.000359794
-7.37744e-06
-0.000373239
-1.1276e-05
-0.000387752
-1.54895e-05
-0.000403412
-2.00362e-05
-0.000420244
-2.50281e-05
-0.000438187
-3.04322e-05
-0.000456859
-0.00047666
-3.60717e-05
5.83528e-06
-0.000137324