/*--------------------------------*- C++ -*----------------------------------*\
  =========                 |
  \\      /  F ield         | OpenFOAM: The Open Source CFD Toolbox
   \\    /   O peration     | Website:  https://openfoam.org
    \\  /    A nd           | Version:  7
     \\/     M anipulation  |
\*---------------------------------------------------------------------------*/
FoamFile
{
    version     2.0;
    format      ascii;
    class       volVectorField;
    location    "32.0001";
    object      U;
}
// * * * * * * * * * * * * * * * * * * * * * * * * * * * * * * * * * * * * * //

dimensions      [0 1 -1 0 0 0 0];

internalField   nonuniform List<vector> 
18750
(
(-0.0337701 0.0263953 -5.723e-21)
(-0.120271 0.0367198 2.03553e-21)
(-0.215155 0.0395479 2.34709e-20)
(-0.298554 0.0429207 5.57351e-21)
(-0.381576 0.0464414 -1.39943e-20)
(-0.45983 0.0499512 -3.43952e-20)
(-0.536291 0.0532877 3.63662e-20)
(-0.609075 0.0563425 2.44606e-20)
(-0.679465 0.05904 -1.85942e-20)
(-0.74642 0.0613455 -5.0552e-20)
(-0.810675 0.0632366 1.95009e-19)
(-0.871391 0.0646741 -1.62685e-19)
(-0.928773 0.0655852 9.78049e-20)
(-0.982036 0.065912 -1.94067e-19)
(-1.0314 0.0658483 4.52653e-20)
(-0.0353212 0.0688711 3.37826e-21)
(-0.121642 0.0897044 6.40756e-21)
(-0.215654 0.0896202 3.66917e-21)
(-0.298235 0.0906439 3.80741e-20)
(-0.380423 0.0921078 7.99756e-20)
(-0.457809 0.0937629 1.08943e-19)
(-0.533303 0.0953048 -9.46057e-20)
(-0.60498 0.0965742 1.57526e-19)
(-0.674059 0.0974412 1.49006e-19)
(-0.739458 0.0978765 -4.93867e-20)
(-0.801892 0.0978571 -2.07156e-19)
(-0.860518 0.0973525 9.5187e-21)
(-0.915503 0.0962983 4.73007e-20)
(-0.965919 0.094752 1.26144e-19)
(-1.01181 0.093092 -1.95472e-19)
(-0.0382854 0.110305 1.13557e-20)
(-0.124169 0.141795 1.87138e-20)
(-0.216379 0.138973 -5.92748e-20)
(-0.297252 0.137712 4.93477e-21)
(-0.377699 0.137166 -1.48268e-19)
(-0.453295 0.136983 4.97524e-20)
(-0.526838 0.136722 -1.44162e-19)
(-0.596344 0.13617 -1.6146e-20)
(-0.66294 0.135141 -1.13885e-19)
(-0.725496 0.133606 3.49537e-19)
(-0.784706 0.131543 4.7092e-19)
(-0.839731 0.128941 4.21164e-19)
(-0.890683 0.125766 2.50423e-19)
(-0.936467 0.122178 1.70997e-19)
(-0.976984 0.118664 -3.2144e-19)
(-0.0425523 0.150045 -6.4392e-20)
(-0.127771 0.192428 7.79855e-20)
(-0.217301 0.187154 -5.95059e-20)
(-0.295614 0.183721 -1.27281e-19)
(-0.373467 0.181251 2.24605e-19)
(-0.446412 0.179275 -2.11475e-19)
(-0.5171 0.177224 3.1932e-19)
(-0.583481 0.174842 -2.74916e-19)
(-0.646573 0.17189 1.97762e-19)
(-0.7052 0.168343 -4.89742e-19)
(-0.760043 0.164192 -7.13814e-19)
(-0.8103 0.159471 4.06456e-20)
(-0.856043 0.154198 -1.38085e-19)
(-0.896022 0.1486 -3.05893e-19)
(-0.930022 0.143194 1.17987e-18)
(-0.0479634 0.187473 -5.14141e-20)
(-0.132332 0.241054 1.16886e-19)
(-0.218378 0.233733 2.59435e-20)
(-0.293339 0.228292 9.98842e-20)
(-0.367819 0.224021 -1.37081e-19)
(-0.437343 0.220321 5.95775e-20)
(-0.504381 0.216516 7.59173e-19)
(-0.56683 0.21231 1.21131e-19)
(-0.625587 0.207423 2.18371e-19)
(-0.679446 0.20184 -7.90009e-20)
(-0.729092 0.195576 6.50929e-20)
(-0.773797 0.188742 -2.84779e-20)
(-0.813653 0.181425 -7.94541e-19)
(-0.847303 0.173892 -4.49603e-19)
(-0.874421 0.166622 -1.3383e-18)
(-0.0543395 0.222043 1.16069e-19)
(-0.137715 0.287143 4.1654e-20)
(-0.21955 0.278306 -5.64837e-20)
(-0.290443 0.271084 -4.18919e-20)
(-0.360868 0.265173 4.78285e-20)
(-0.426308 0.259848 -6.39373e-19)
(-0.489037 0.254347 -8.1915e-20)
(-0.54691 0.248345 4.07225e-20)
(-0.600714 0.241533 -3.20335e-19)
(-0.649227 0.233912 -4.47001e-19)
(-0.693152 0.225535 3.31665e-19)
(-0.731883 0.216608 -3.3235e-19)
(-0.7656 0.207318 1.04511e-18)
(-0.792918 0.197971 -8.27377e-19)
(-0.813394 0.188968 1.82834e-18)
(-0.061476 0.253227 -1.0654e-19)
(-0.143741 0.33018 -1.80139e-19)
(-0.220722 0.320522 7.39974e-20)
(-0.286938 0.311798 5.62458e-19)
(-0.352738 0.304444 5.77719e-19)
(-0.413551 0.297625 -2.05581e-19)
(-0.47145 0.290517 1.06478e-19)
(-0.524271 0.282779 7.10267e-20)
(-0.572707 0.274089 6.96736e-19)
(-0.615536 0.26447 9.76635e-19)
(-0.653491 0.254022 -4.78392e-19)
(-0.686119 0.243064 -9.369e-19)
(-0.713759 0.231899 -1.76284e-18)
(-0.73508 0.220898 3.07791e-19)
(-0.749522 0.210376 -2.24109e-18)
(-0.0691275 0.280481 -9.65163e-20)
(-0.150204 0.369728 -1.1345e-19)
(-0.221775 0.36009 -8.19196e-19)
(-0.282832 0.350188 2.95897e-19)
(-0.343554 0.34162 -3.44449e-19)
(-0.399321 0.333473 2.40491e-19)
(-0.452006 0.324881 2.63722e-19)
(-0.499455 0.315504 -1.15298e-18)
(-0.542282 0.305021 -7.81099e-19)
(-0.579291 0.293492 -1.34005e-18)
(-0.611243 0.28107 -2.21988e-19)
(-0.637852 0.268186 9.95643e-19)
(-0.659667 0.25528 3.95032e-18)
(-0.67549 0.242815 -6.13243e-19)
(-0.68464 0.231031 1.09848e-18)
(-0.0769864 0.30328 5.18291e-19)
(-0.156858 0.405411 2.08985e-19)
(-0.222584 0.396778 9.0239e-19)
(-0.278127 0.38606 -6.64397e-19)
(-0.333436 0.376532 3.19941e-19)
(-0.383853 0.367255 -5.40735e-19)
(-0.431067 0.357338 -1.26165e-18)
(-0.472957 0.346453 1.13436e-18)
(-0.510081 0.334305 1.3902e-19)
(-0.541287 0.320999 2.0081e-18)
(-0.567357 0.306748 -6.63385e-19)
(-0.588165 0.292088 -3.04797e-18)
(-0.604484 0.2776 -1.88123e-18)
(-0.615321 0.263866 1.98921e-19)
(-0.619887 0.251084 -9.31576e-19)
(-0.084693 0.321186 -4.33745e-19)
(-0.163421 0.436925 -2.46069e-19)
(-0.223022 0.430412 3.20146e-19)
(-0.272821 0.419268 4.97934e-20)
(-0.322488 0.409054 -1.25842e-19)
(-0.367365 0.398878 -1.46985e-19)
(-0.408963 0.387829 5.7464e-19)
(-0.445221 0.375606 -6.98412e-19)
(-0.476657 0.361954 6.96215e-19)
(-0.502181 0.347041 8.87883e-19)
(-0.522585 0.331142 -1.59092e-18)
(-0.537874 0.314889 3.0479e-18)
(-0.549026 0.298991 3.5991e-19)
(-0.555309 0.28418 5.01046e-19)
(-0.555867 0.270656 1.15688e-18)
(-0.0918338 0.333788 8.22191e-19)
(-0.169563 0.463968 -2.69917e-19)
(-0.222947 0.460866 -1.19543e-18)
(-0.266908 0.449709 4.77551e-19)
(-0.310806 0.439104 -2.76428e-19)
(-0.350045 0.428285 3.25392e-19)
(-0.385979 0.416324 2.46744e-18)
(-0.41662 0.40296 1.21003e-18)
(-0.442459 0.387996 8.14454e-19)
(-0.462487 0.371674 -2.75582e-18)
(-0.477493 0.354339 3.05455e-18)
(-0.487566 0.3367 1.13855e-18)
(-0.493841 0.319576 -1.84697e-18)
(-0.495863 0.303858 2.25184e-18)
(-0.492799 0.289796 -7.98224e-20)
(-0.0979604 0.340814 1.73085e-19)
(-0.174956 0.486425 4.11724e-20)
(-0.222234 0.488037 -8.45268e-20)
(-0.260378 0.477319 -8.54108e-19)
(-0.29846 0.466635 1.7156e-18)
(-0.332055 0.455453 -8.81556e-19)
(-0.362361 0.442826 -2.61927e-18)
(-0.387471 0.428546 8.23189e-19)
(-0.407858 0.412486 -1.32031e-18)
(-0.422603 0.394974 2.07486e-18)
(-0.432485 0.376427 -3.78766e-18)
(-0.43764 0.357623 3.01863e-19)
(-0.439273 0.339454 1.65063e-18)
(-0.437173 0.32295 -3.49253e-18)
(-0.430711 0.308492 -8.26076e-19)
(-0.102491 0.341841 -5.47554e-19)
(-0.179224 0.504071 1.56497e-19)
(-0.220747 0.511827 4.8598e-19)
(-0.253205 0.502062 -2.34757e-20)
(-0.285513 0.491639 -2.34764e-18)
(-0.313529 0.480387 2.25158e-19)
(-0.338307 0.46735 8.53982e-19)
(-0.358021 0.452394 -2.34938e-18)
(-0.373129 0.435469 1.79875e-18)
(-0.382811 0.416991 -1.67417e-18)
(-0.387837 0.397463 4.63759e-18)
(-0.388351 0.377722 -1.94443e-18)
(-0.385539 0.358695 2.40138e-18)
(-0.379348 0.34151 4.91031e-18)
(-0.369516 0.326713 2.13995e-18)
(-0.104962 0.337219 -2.19443e-19)
(-0.182068 0.516983 -6.30823e-21)
(-0.218423 0.532095 -1.7496e-20)
(-0.245365 0.523949 -5.61872e-20)
(-0.271999 0.514137 -1.15515e-18)
(-0.294578 0.503108 -5.18342e-19)
(-0.313982 0.48993 8.41771e-19)
(-0.328475 0.474555 5.20787e-19)
(-0.338501 0.457007 -3.03381e-18)
(-0.343336 0.437798 -1.70707e-19)
(-0.343728 0.41751 -9.10003e-19)
(-0.339839 0.39705 1.87681e-18)
(-0.332779 0.377365 -2.65225e-18)
(-0.322452 0.359571 -3.79312e-19)
(-0.309025 0.344294 -2.42125e-18)
(-0.105077 0.327107 9.8431e-19)
(-0.183101 0.524738 -8.78947e-19)
(-0.215108 0.548772 -1.18812e-18)
(-0.236787 0.543006 2.12021e-18)
(-0.257966 0.534176 1.87368e-18)
(-0.275293 0.523658 2.41996e-18)
(-0.289518 0.510604 1.06809e-19)
(-0.298987 0.495064 1.69503e-18)
(-0.304127 0.477137 2.29847e-18)
(-0.304312 0.457422 3.48412e-18)
(-0.300268 0.436583 -1.63709e-18)
(-0.292159 0.415609 3.48095e-18)
(-0.281048 0.395469 -1.47245e-20)
(-0.26666 0.377171 -1.7927e-18)
(-0.248971 0.361222 -4.50134e-18)
(-0.10264 0.311499 -6.27053e-19)
(-0.182043 0.527105 9.70391e-19)
(-0.210675 0.561854 6.47431e-19)
(-0.227459 0.559308 -2.00389e-18)
(-0.243426 0.551821 -9.35997e-19)
(-0.255753 0.542076 -1.73499e-19)
(-0.265021 0.529418 -1.29332e-18)
(-0.269687 0.513977 -2.23878e-18)
(-0.270147 0.49591 -3.87671e-18)
(-0.26588 0.475922 -1.70815e-18)
(-0.257548 0.45473 2.4293e-18)
(-0.245317 0.433407 -5.126e-18)
(-0.230316 0.412996 1.80089e-19)
(-0.212178 0.39434 3.32859e-18)
(-0.189085 0.377734 4.8315e-18)
(-0.0974934 0.290432 -1.51728e-18)
(-0.178711 0.523966 1.1726e-18)
(-0.204968 0.571256 -2.0186e-18)
(-0.217395 0.572956 -9.75022e-19)
(-0.228448 0.567155 -5.4397e-20)
(-0.236026 0.558429 1.35111e-18)
(-0.24059 0.546421 2.21161e-18)
(-0.240672 0.531311 7.44841e-19)
(-0.236644 0.513334 1.09649e-18)
(-0.22808 0.493276 -3.10869e-18)
(-0.215607 0.471906 8.89952e-20)
(-0.199324 0.450406 -2.46616e-18)
(-0.180442 0.429849 -1.83976e-18)
(-0.159005 0.41097 -5.32328e-18)
(-0.130133 0.39427 -6.54034e-20)
(-0.0896059 0.264135 1.33511e-18)
(-0.17301 0.515192 2.12171e-19)
(-0.197907 0.576826 3.10276e-19)
(-0.206575 0.583933 2.41333e-18)
(-0.213086 0.580255 1.02399e-18)
(-0.216201 0.572798 -1.26098e-18)
(-0.216311 0.561681 1.00054e-18)
(-0.212056 0.547127 -5.89637e-19)
(-0.203736 0.529455 -1.19877e-18)
(-0.191016 0.509496 1.36646e-18)
(-0.174504 0.488144 -4.69512e-18)
(-0.154203 0.466618 -1.96625e-19)
(-0.131387 0.446039 -2.73185e-18)
(-0.106988 0.427062 4.25072e-18)
(-0.071983 0.410966 3.92021e-19)
(-0.0791899 0.233063 -5.13962e-19)
(-0.16494 0.500571 -1.43426e-18)
(-0.189481 0.578311 3.74299e-19)
(-0.195012 0.592178 -2.7893e-18)
(-0.197379 0.591147 -1.90472e-18)
(-0.196334 0.585212 -1.08052e-18)
(-0.192266 0.575181 -1.90891e-18)
(-0.183889 0.561389 1.85906e-18)
(-0.171491 0.54424 2.65786e-18)
(-0.154744 0.524583 5.25522e-18)
(-0.1343 0.503432 -2.45297e-19)
(-0.110019 0.482021 6.07585e-18)
(-0.0830114 0.4615 2.41805e-18)
(-0.0563122 0.442579 1.91755e-18)
(-0.0138991 0.427988 -4.26218e-18)
(-0.0668359 0.197899 8.8685e-19)
(-0.154619 0.479764 2.18452e-18)
(-0.17972 0.575297 1.49189e-18)
(-0.182761 0.597551 1.9454e-18)
(-0.181389 0.599846 5.97221e-21)
(-0.17651 0.595686 7.70849e-19)
(-0.168513 0.586935 1.74699e-20)
(-0.156272 0.574093 -1.44355e-18)
(-0.139954 0.557639 2.27693e-18)
(-0.119318 0.538488 -8.02912e-18)
(-0.0950394 0.517748 2.38569e-18)
(-0.0668774 0.496599 -1.58957e-18)
(-0.0351331 0.476248 3.1724e-19)
(-0.0071293 0.457319 -2.42762e-18)
(0.0442914 0.445265 -2.76347e-18)
(-0.0536639 0.159598 -1.44695e-18)
(-0.142293 0.452276 1.92091e-18)
(-0.168656 0.567178 -4.76834e-19)
(-0.169882 0.59979 -8.26502e-19)
(-0.165211 0.606314 1.72895e-18)
(-0.156801 0.604245 1.8508e-19)
(-0.14518 0.596929 -5.18549e-19)
(-0.129254 0.585211 -6.09795e-20)
(-0.109242 0.569647 -1.47201e-18)
(-0.0847657 0.551152 3.85421e-18)
(-0.0566974 0.530939 2.39162e-18)
(-0.0250212 0.5103 1.27568e-18)
(0.0125199 0.490151 -1.22394e-19)
(0.0402628 0.470811 3.12112e-18)
(0.102891 0.463455 -2.85512e-19)
(-0.0412813 0.119658 4.2345e-19)
(-0.128311 0.41746 -4.58075e-19)
(-0.156295 0.553177 3.59681e-19)
(-0.156431 0.598463 1.53042e-18)
(-0.148942 0.610423 -9.7882e-19)
(-0.137346 0.61085 -6.41285e-19)
(-0.12232 0.605184 -1.21146e-18)
(-0.103003 0.594715 9.63256e-19)
(-0.079408 0.580143 -1.01344e-18)
(-0.0512294 0.562453 -1.17899e-18)
(-0.0191782 0.542916 -2.06445e-18)
(0.015284 0.52301 -1.20943e-18)
(0.060176 0.503458 4.47971e-18)
(0.0857086 0.482229 -6.20659e-18)
(0.161908 0.482181 -1.71235e-19)
(-0.0310074 0.0805067 1.81109e-18)
(-0.11304 0.374617 -7.01588e-19)
(-0.142607 0.532413 -1.81739e-18)
(-0.142442 0.59292 -4.85105e-19)
(-0.132698 0.611874 2.56802e-18)
(-0.118222 0.615445 -5.36393e-20)
(-0.100143 0.611611 1.26055e-18)
(-0.0775287 0.602545 -6.93517e-19)
(-0.0506704 0.589116 -2.74511e-18)
(-0.0188526 0.572285 6.42867e-18)
(0.0176945 0.553335 -4.78338e-18)
(0.0535963 0.534432 1.43623e-18)
(0.108181 0.516365 -6.37313e-18)
(0.128752 0.491129 2.25827e-18)
(0.221696 0.501336 1.87152e-18)
(-0.0227115 0.0453322 -6.46187e-19)
(-0.0967095 0.323319 -2.06854e-18)
(-0.127533 0.503996 9.35186e-19)
(-0.127941 0.582239 1.65534e-19)
(-0.116561 0.610164 -2.3108e-18)
(-0.0996201 0.617808 1.4347e-18)
(-0.0786716 0.616221 7.66024e-20)
(-0.0531508 0.60858 -3.52514e-19)
(-0.0229524 0.596287 -2.80142e-18)
(0.0118155 0.580587 -3.23687e-19)
(0.0542526 0.562187 3.81777e-18)
(0.089553 0.543955 3.22188e-19)
(0.156835 0.529683 9.20998e-19)
(0.169076 0.496082 2.671e-18)
(0.281211 0.519057 -6.87182e-18)
(-0.0149324 0.017038 -9.79324e-19)
(-0.079601 0.264106 3.09626e-20)
(-0.111053 0.467063 -1.18543e-18)
(-0.112942 0.565182 9.61019e-19)
(-0.100642 0.604501 1.30773e-18)
(-0.0815956 0.617649 -9.83884e-19)
(-0.0582769 0.618735 -1.71268e-19)
(-0.0298134 0.612808 -8.34255e-19)
(0.00349186 0.601611 2.0945e-18)
(0.0404425 0.58702 4.00957e-19)
(0.090521 0.569125 -5.52377e-18)
(0.122498 0.550493 1.51138e-18)
(0.206855 0.544527 9.54833e-19)
(0.207358 0.499501 -4.31253e-18)
(0.339593 0.530829 9.96079e-19)
(-0.00662388 -0.00278242 2.21088e-19)
(-0.0625871 0.199595 5.94335e-19)
(-0.0933964 0.42072 1.10861e-18)
(-0.0974679 0.54024 -9.382e-19)
(-0.0850182 0.59379 -3.82097e-20)
(-0.0644204 0.614359 2.37832e-18)
(-0.0388635 0.619084 -1.12175e-19)
(-0.00836793 0.614841 -6.48092e-21)
(0.0292809 0.604639 3.40006e-18)
(0.065926 0.591617 -1.95875e-18)
(0.127191 0.574941 1.42309e-18)
(0.151365 0.55143 -4.03527e-18)
(0.257121 0.559141 3.51751e-19)
(0.245876 0.505607 -1.09183e-18)
(0.396333 0.538569 1.88572e-18)
(0.00142442 -0.0141922 -1.65757e-19)
(-0.0466066 0.135551 7.4064e-19)
(-0.0751811 0.364265 -9.85295e-19)
(-0.0816036 0.505687 2.07175e-18)
(-0.069822 0.576585 -1.74412e-18)
(-0.0482183 0.607066 -1.56399e-18)
(-0.0209659 0.616486 -9.75e-19)
(0.0113219 0.614966 -2.11682e-18)
(0.0536942 0.605139 -4.14013e-18)
(0.088396 0.592635 6.37319e-19)
(0.163477 0.581138 3.30746e-18)
(0.177295 0.547524 2.67495e-18)
(0.305454 0.567092 4.66158e-19)
(0.284234 0.514185 -2.27121e-18)
(0.452562 0.543708 -1.16433e-18)
(0.00769902 -0.0191993 3.96333e-19)
(-0.0313606 0.0797581 6.94108e-19)
(-0.0570592 0.297873 -2.96227e-18)
(-0.0655786 0.459998 -2.04773e-18)
(-0.0552351 0.550996 -6.05527e-20)
(-0.0334724 0.594427 1.64066e-18)
(-0.00420355 0.61037 -6.06376e-19)
(0.0273756 0.611758 4.70768e-18)
(0.0781963 0.603798 3.96556e-19)
(0.105894 0.589206 -2.67742e-18)
(0.199946 0.586747 -2.54286e-18)
(0.199661 0.541968 -4.10412e-18)
(0.351649 0.567171 4.54389e-18)
(0.320828 0.518013 3.05612e-18)
(0.505872 0.545983 -7.26596e-21)
(0.0117002 -0.0205203 -1.10386e-18)
(-0.0160299 0.0378458 -2.04427e-18)
(-0.0397589 0.223658 1.47419e-18)
(-0.049839 0.402051 1.8042e-18)
(-0.0414372 0.514875 1.12312e-18)
(-0.0207349 0.574343 -1.14401e-18)
(0.0107613 0.599199 2.92715e-18)
(0.0407663 0.605466 -4.19949e-18)
(0.0994062 0.599324 4.69661e-18)
(0.121399 0.579165 3.03555e-18)
(0.231398 0.590859 -9.50689e-19)
(0.224866 0.536882 -1.34949e-18)
(0.386358 0.560541 -1.81751e-18)
(0.364343 0.519172 -3.66831e-18)
(0.546407 0.535656 4.44013e-18)
(0.0137834 -0.0201214 3.10714e-18)
(-0.00152465 0.0101803 2.38279e-18)
(-0.024202 0.149196 5.40786e-19)
(-0.0352137 0.332094 -3.16266e-20)
(-0.0287958 0.465752 -3.90241e-19)
(-0.0106148 0.544616 -4.58461e-19)
(0.0236916 0.580724 -2.28702e-18)
(0.0490968 0.592324 3.99133e-18)
(0.120616 0.596627 -3.13653e-18)
(0.129974 0.560764 -3.09284e-20)
(0.257241 0.583005 3.06853e-18)
(0.25192 0.537933 2.18277e-18)
(0.407643 0.538025 2.18615e-18)
(0.405126 0.526813 -2.77151e-20)
(0.586914 0.508464 -2.64317e-18)
(0.0147733 -0.0190622 -1.86447e-18)
(0.0104509 -0.00610075 -1.93361e-18)
(-0.00969497 0.0869251 5.99405e-19)
(-0.0223775 0.253672 -9.70249e-19)
(-0.0175276 0.402095 -4.58955e-19)
(-0.00414351 0.501763 1.65324e-18)
(0.033915 0.554095 -4.368e-19)
(0.0534258 0.568559 -4.09284e-19)
(0.131665 0.586135 -1.25958e-18)
(0.150832 0.552863 -2.93297e-18)
(0.251721 0.550255 1.36459e-18)
(0.305545 0.543908 -1.63044e-18)
(0.387861 0.505514 -2.53021e-18)
(0.494607 0.531967 -1.15723e-18)
(0.537346 0.468415 4.69949e-18)
(0.0157052 -0.0177601 2.10094e-18)
(0.0199096 -0.0146412 -1.65015e-18)
(0.00497731 0.0440149 -2.71157e-18)
(-0.0107683 0.175877 2.77941e-19)
(-0.00792902 0.325535 6.51316e-19)
(-0.00108635 0.443074 -4.60375e-19)
(0.0380976 0.514598 1.2537e-18)
(0.0567803 0.537196 2.63242e-19)
(0.12964 0.557917 -1.80469e-19)
(0.168585 0.540438 1.04024e-19)
(0.253756 0.531051 -1.41313e-18)
(0.317797 0.508017 1.87408e-19)
(0.418739 0.51024 8.18361e-19)
(0.484794 0.477421 -6.47525e-19)
(0.593479 0.476727 4.36128e-18)
(0.0172889 -0.0165575 4.40645e-19)
(0.0281508 -0.0186443 -9.46064e-19)
(0.0191705 0.0186344 2.6375e-18)
(0.00111921 0.111446 2.04019e-18)
(-7.23448e-05 0.243821 -2.04678e-18)
(-0.000930384 0.369473 -1.38685e-19)
(0.0353268 0.458515 -9.4332e-19)
(0.0548566 0.491947 -3.65525e-19)
(0.121734 0.522685 2.60289e-18)
(0.171298 0.496464 1.33634e-18)
(0.254857 0.521554 1.83323e-18)
(0.326355 0.452188 -1.45895e-18)
(0.43035 0.509108 9.93077e-19)
(0.474386 0.411347 -5.7347e-19)
(0.649032 0.494765 -5.56158e-18)
(0.0198135 -0.0158293 3.51783e-19)
(0.0359255 -0.0205041 5.64758e-19)
(0.0314586 0.00473905 -1.45229e-18)
(0.0134202 0.0671599 -1.65585e-18)
(0.00601742 0.169654 -1.52073e-18)
(-0.00269622 0.287246 1.30069e-19)
(0.0251543 0.387578 1.10106e-18)
(0.04793 0.427299 -1.99825e-18)
(0.0998682 0.473452 -1.05082e-18)
(0.17792 0.443939 5.72635e-19)
(0.218054 0.468437 -1.67732e-18)
(0.372671 0.430903 1.77652e-19)
(0.367356 0.438312 1.17518e-18)
(0.551764 0.401727 -1.58614e-18)
(0.588578 0.437154 1.29438e-18)
(0.0231925 -0.0158481 -7.91984e-19)
(0.0430229 -0.0220104 1.79679e-18)
(0.0407832 -0.00374564 1.18806e-18)
(0.0236245 0.0393837 7.96106e-19)
(0.00981663 0.111802 1.30063e-18)
(-0.00608281 0.207353 -1.30913e-19)
(0.00876044 0.306805 -1.01841e-18)
(0.0349473 0.348972 2.24606e-19)
(0.0672486 0.399507 1.38164e-18)
(0.170323 0.386122 -2.15987e-18)
(0.174363 0.38125 -1.01428e-18)
(0.377361 0.391518 9.27157e-20)
(0.283383 0.318451 -3.30888e-19)
(0.60826 0.387276 1.87086e-18)
(0.434341 0.292679 -1.83697e-18)
(0.0268937 -0.016604 8.64286e-19)
(0.0484323 -0.0242546 5.77117e-19)
(0.0460285 -0.0112471 -6.85782e-20)
(0.0286617 0.019623 -5.16601e-19)
(0.00956778 0.0690781 1.15508e-19)
(-0.0132329 0.138199 -1.52503e-18)
(-0.0103697 0.224416 3.36313e-19)
(0.00998976 0.262415 -6.60789e-19)
(0.035958 0.313106 -6.63117e-19)
(0.12966 0.297306 1.47094e-18)
(0.150581 0.298027 2.14248e-18)
(0.309335 0.292509 9.97617e-19)
(0.265358 0.235175 1.06723e-18)
(0.581979 0.326214 -1.39257e-18)
(0.46098 0.242792 -1.49594e-18)
(0.0300172 -0.0178001 7.14845e-19)
(0.0507698 -0.0275473 -1.35952e-18)
(0.045873 -0.0200457 -6.56738e-19)
(0.0264431 0.00135668 -1.4707e-18)
(0.00262066 0.0346503 6.62422e-19)
(-0.0261813 0.0804493 1.60883e-18)
(-0.0327673 0.146613 -1.83554e-18)
(-0.0250671 0.17315 6.39436e-19)
(0.00148657 0.222105 1.19817e-18)
(0.0760655 0.190285 3.15909e-19)
(0.115117 0.206085 -1.35178e-18)
(0.256887 0.19486 -5.74516e-19)
(0.337726 0.220361 -3.9348e-21)
(0.62992 0.305539 8.28899e-19)
(0.754271 0.363734 3.3467e-18)
(0.0315116 -0.0189478 -1.15792e-18)
(0.0488213 -0.0315114 -1.16056e-18)
(0.0394489 -0.0304362 6.4948e-19)
(0.0161479 -0.0180272 2.61402e-18)
(-0.0128201 0.00267467 -1.70124e-18)
(-0.0459516 0.0296219 4.78593e-19)
(-0.0620984 0.074301 7.14165e-19)
(-0.0651385 0.086355 -5.98156e-20)
(-0.041579 0.127324 1.54154e-19)
(0.0234227 0.0887732 6.39455e-19)
(0.0986614 0.118047 -5.72198e-19)
(0.313405 0.166007 -1.21716e-18)
(0.50803 0.256163 -1.15385e-18)
(0.796815 0.358561 9.71553e-19)
(0.947455 0.438362 3.26614e-19)
(0.030457 -0.0194858 -2.85215e-19)
(0.0419998 -0.0353329 2.29762e-18)
(0.026848 -0.0414933 4.82389e-19)
(-0.00143284 -0.0383208 6.89387e-19)
(-0.0362164 -0.0292496 6.29832e-19)
(-0.0738057 -0.0171459 6.0508e-19)
(-0.0998876 0.00714395 -2.15527e-19)
(-0.108135 0.0061127 3.90177e-19)
(-0.084438 0.037611 1.87346e-19)
(0.0196749 0.0272636 8.09154e-19)
(0.200089 0.101314 4.08727e-20)
(0.477469 0.208039 8.44011e-19)
(0.717083 0.320401 -7.36606e-19)
(0.931331 0.406001 -7.67759e-19)
(1.02725 0.454302 5.44623e-19)
(0.0263136 -0.0189143 1.02792e-18)
(0.030457 -0.0379259 -9.43684e-19)
(0.00910391 -0.0513826 9.58436e-20)
(-0.0243492 -0.0572485 -1.40565e-18)
(-0.0652175 -0.0584713 -1.16939e-18)
(-0.108224 -0.0575986 2.02027e-18)
(-0.140437 -0.0500825 5.78202e-19)
(-0.138331 -0.0559057 -8.21304e-19)
(-0.077064 -0.0198326 2.28542e-19)
(0.128518 0.0401459 -2.20583e-18)
(0.398945 0.15718 7.52167e-19)
(0.667947 0.273855 -9.23697e-19)
(0.866597 0.367568 1.16347e-18)
(1.00412 0.422932 -1.13892e-19)
(1.09322 0.46781 -7.87518e-19)
(0.0191581 -0.0168781 -1.60347e-18)
(0.0151881 -0.0380785 -1.63281e-18)
(-0.0118379 -0.0576323 -1.67981e-18)
(-0.0496565 -0.0703073 -1.26372e-18)
(-0.0940183 -0.078425 8.52971e-19)
(-0.13778 -0.0834807 -3.46239e-18)
(-0.162729 -0.0825305 3.15202e-19)
(-0.120697 -0.0788328 3.10036e-19)
(0.0267219 -0.0160844 1.62095e-19)
(0.322859 0.10448 1.0322e-18)
(0.599324 0.225978 -8.55939e-19)
(0.814856 0.323566 2.04709e-18)
(0.959932 0.390804 -4.51505e-19)
(1.06637 0.437916 -9.28024e-19)
(1.12532 0.467946 5.31525e-19)
(0.00975366 -0.0133171 2.82679e-19)
(-0.00195694 -0.034845 1.323e-18)
(-0.0327458 -0.0576683 1.88826e-18)
(-0.0721155 -0.0735003 3.13434e-19)
(-0.114091 -0.0832985 1.5156e-18)
(-0.148074 -0.086175 8.49848e-19)
(-0.149429 -0.0802574 2.66011e-19)
(-0.040332 -0.0551586 -1.3378e-18)
(0.209605 0.0506659 -8.04545e-20)
(0.517911 0.17717 5.69704e-19)
(0.75458 0.280111 2.12038e-18)
(0.919439 0.356093 -2.62945e-19)
(1.0316 0.409882 7.77897e-19)
(1.09905 0.441464 7.59268e-19)
(1.14022 0.461445 1.29035e-18)
(-0.000655549 -0.00856577 5.18664e-19)
(-0.0188511 -0.0281652 -1.73693e-18)
(-0.0505425 -0.0511184 -3.77894e-19)
(-0.0868037 -0.0662095 2.16022e-20)
(-0.119892 -0.0723538 -2.82371e-18)
(-0.134432 -0.0671736 7.37408e-19)
(-0.100667 -0.0540867 -3.78773e-19)
(0.0982338 0.00721849 4.48109e-19)
(0.406106 0.132434 1.46489e-18)
(0.680145 0.238505 -4.92431e-19)
(0.872391 0.321484 -1.67003e-18)
(0.998804 0.381424 -2.28512e-19)
(1.07312 0.41766 -2.65666e-19)
(1.12021 0.4408 -5.84211e-19)
(1.15437 0.457046 -1.38348e-18)
(-0.010742 -0.00328706 1.08296e-19)
(-0.0337939 -0.0189901 4.70212e-19)
(-0.0634765 -0.0393964 -1.2159e-18)
(-0.0925271 -0.0508132 5.12042e-19)
(-0.11179 -0.0506705 1.1694e-18)
(-0.102858 -0.0371436 -5.05393e-19)
(-0.021411 -0.0194108 -1.04168e-19)
(0.270611 0.0849076 -1.20165e-18)
(0.576441 0.199552 2.46937e-19)
(0.810167 0.28692 -8.47499e-19)
(0.960876 0.35354 8.12849e-19)
(1.04934 0.395758 -6.79964e-19)
(1.10211 0.422085 1.23009e-18)
(1.13483 0.439501 -4.87487e-19)
(1.15597 0.448056 -1.03505e-18)
(-0.0194493 0.00175181 5.53266e-19)
(-0.0458101 -0.0088143 3.46588e-19)
(-0.0713142 -0.0250298 3.13477e-19)
(-0.090487 -0.0316508 7.77748e-20)
(-0.0934546 -0.0250874 5.33016e-19)
(-0.0614909 -0.00939283 -1.30557e-18)
(0.092534 0.0311386 7.35071e-19)
(0.437902 0.153555 1.73629e-18)
(0.719315 0.255446 -1.7137e-19)
(0.910673 0.325772 1.28508e-18)
(1.02189 0.375917 7.82154e-19)
(1.08555 0.405904 1.26953e-19)
(1.11991 0.423664 2.67572e-19)
(1.14025 0.434795 5.15741e-19)
(1.16029 0.441535 1.21511e-18)
(-0.0261763 0.00590973 8.4144e-19)
(-0.0546372 0.000809426 1.20063e-18)
(-0.0747366 -0.01069 -1.08341e-18)
(-0.0829186 -0.0128212 9.87117e-19)
(-0.0701675 -0.00190986 -2.28892e-18)
(-0.00819059 0.00697908 5.6739e-19)
(0.245371 0.0959652 -2.00532e-19)
(0.589032 0.213157 -1.08106e-18)
(0.833979 0.300667 -1.91848e-18)
(0.984258 0.354406 -7.25212e-19)
(1.06551 0.392205 -1.80086e-18)
(1.10761 0.410973 1.13349e-18)
(1.12963 0.422755 -1.55976e-18)
(1.14608 0.431542 1.09399e-18)
(1.1605 0.434582 7.70835e-19)
(-0.030794 0.00881001 -1.99388e-18)
(-0.0605281 0.00866943 6.91888e-20)
(-0.0748565 0.00157812 1.43227e-19)
(-0.0720506 0.00338228 2.75171e-19)
(-0.0466723 0.0128861 1.54583e-19)
(0.070268 0.0290451 1.10376e-18)
(0.408398 0.157301 6.10721e-19)
(0.720007 0.263164 -1.73391e-19)
(0.922414 0.335502 8.63754e-19)
(1.03751 0.375976 5.57962e-19)
(1.09332 0.402803 2.60069e-19)
(1.12176 0.413657 -6.43963e-19)
(1.13673 0.422236 2.15977e-18)
(1.14715 0.426951 3.86979e-19)
(1.15961 0.427807 -8.16547e-19)
(-0.0335654 0.010367 1.83423e-18)
(-0.0640377 0.0140612 -1.31296e-18)
(-0.0727372 0.0105572 4.1978e-19)
(-0.0604591 0.0158124 -4.35563e-20)
(-0.0176448 0.0151486 2.1822e-18)
(0.192931 0.0776151 -1.77982e-19)
(0.555611 0.211785 -7.36078e-19)
(0.826294 0.30407 1.81339e-18)
(0.988447 0.362203 1.70529e-19)
(1.07343 0.390975 7.38965e-19)
(1.11184 0.409882 -1.47655e-18)
(1.13051 0.414756 3.18259e-20)
(1.13909 0.420344 -6.83755e-19)
(1.1484 0.42296 -1.44838e-19)
(1.15958 0.422715 -4.866e-19)
(-0.0350191 0.0107235 -4.90506e-19)
(-0.065826 0.0167403 1.37064e-18)
(-0.0690995 0.0163082 8.29095e-19)
(-0.0505159 0.0216354 6.61118e-19)
(0.0303435 0.0146328 -3.61187e-19)
(0.346957 0.137182 -1.43364e-19)
(0.684908 0.258647 9.55698e-19)
(0.910872 0.336479 -7.68066e-19)
(1.03632 0.381588 2.37035e-19)
(1.09794 0.401636 -1.24091e-18)
(1.12284 0.414207 8.51674e-20)
(1.13486 0.414642 1.93743e-19)
(1.14114 0.419245 -2.85717e-19)
(1.14833 0.419133 -1.7279e-18)
(1.15669 0.417054 7.38726e-19)
(-0.0358053 0.0101266 -8.63735e-19)
(-0.0663729 0.0168543 -1.08135e-18)
(-0.0650339 0.0196348 5.67954e-19)
(-0.0393702 0.0184355 -7.36701e-20)
(0.114307 0.0406745 -8.89192e-19)
(0.492557 0.191145 -3.87767e-20)
(0.791797 0.29771 -6.70992e-19)
(0.974859 0.361599 -1.34244e-18)
(1.06992 0.395816 -5.52122e-19)
(1.11302 0.408754 5.1253e-19)
(1.12913 0.416677 4.73292e-19)
(1.13754 0.414389 -4.75164e-20)
(1.1409 0.417635 -7.68876e-19)
(1.14724 0.415134 1.42124e-18)
(1.15554 0.413128 4.52243e-19)
(-0.036551 0.00877808 8.50037e-19)
(-0.065986 0.0152157 1.86854e-21)
(-0.0621308 0.0205956 -1.39282e-18)
(-0.0159669 0.00684977 -3.00416e-20)
(0.244155 0.0959107 2.11916e-19)
(0.620834 0.238465 3.91366e-19)
(0.877919 0.329685 -7.09838e-19)
(1.02302 0.380876 3.71491e-19)
(1.09287 0.405702 -1.63923e-20)
(1.1225 0.413541 4.18847e-19)
(1.13245 0.418059 -3.78354e-19)
(1.13783 0.413635 -1.07188e-18)
(1.14037 0.416401 -5.3453e-20)
(1.1464 0.411883 -6.901e-19)
(1.15218 0.409062 -6.07568e-19)
(-0.0376578 0.00689571 3.46335e-19)
(-0.064995 0.013418 -7.07165e-19)
(-0.0601421 0.017224 7.08102e-19)
(0.032992 0.00288365 -2.2624e-19)
(0.392128 0.153 -1.21763e-19)
(0.732009 0.278212 -3.5394e-19)
(0.94545 0.355106 5.57518e-19)
(1.05753 0.395251 3.65906e-19)
(1.10783 0.412733 -2.19929e-19)
(1.12745 0.416717 -6.29589e-19)
(1.13336 0.418583 -2.29611e-19)
(1.1376 0.413123 1.09913e-18)
(1.13898 0.415119 6.78293e-19)
(1.14415 0.408335 6.77694e-19)
(1.14963 0.406018 -2.1299e-19)
(-0.0391129 0.00476777 -2.17396e-19)
(-0.064076 0.0125971 7.81057e-20)
(-0.0544117 0.00902059 -2.93474e-19)
(0.114307 0.0313173 -2.03534e-21)
(0.522021 0.202087 -2.27324e-19)
(0.822885 0.312187 -3.43881e-19)
(0.996934 0.375506 1.21226e-19)
(1.08207 0.40608 -7.26261e-19)
(1.11723 0.417561 6.525e-19)
(1.12987 0.418796 8.38662e-19)
(1.13333 0.418822 1.09271e-19)
(1.13615 0.412493 -9.56383e-19)
(1.13704 0.413858 -9.40827e-19)
(1.14239 0.405567 -7.1943e-19)
(1.14614 0.403383 2.94952e-19)
(-0.0406907 0.00299753 -7.02259e-19)
(-0.0642813 0.0117752 1.92653e-19)
(-0.0359959 -0.00361313 -1.42134e-19)
(0.233052 0.0873851 3.16791e-22)
(0.635553 0.245243 -5.65965e-20)
(0.896952 0.340298 -1.31744e-19)
(1.03601 0.39147 2.44944e-19)
(1.09872 0.41398 -1.42533e-19)
(1.12255 0.420988 -1.87466e-19)
(1.13029 0.420286 -3.63882e-19)
(1.13199 0.418757 -3.24126e-19)
(1.13437 0.412101 -1.50107e-19)
(1.13489 0.412745 5.8412e-19)
(1.13947 0.40272 -2.35923e-20)
(1.14245 0.401132 4.71331e-19)
(-0.0422233 0.0026806 2.91802e-19)
(-0.0655682 0.00875282 4.84039e-19)
(0.00410871 -0.0114409 8.36246e-20)
(0.369776 0.143477 2.99274e-19)
(0.735061 0.281311 6.62287e-19)
(0.955255 0.363105 2.46556e-19)
(1.06422 0.404004 9.12457e-19)
(1.10961 0.420006 4.84464e-19)
(1.12518 0.42351 3.09605e-19)
(1.12958 0.421352 7.14255e-19)
(1.13038 0.418732 2.225e-19)
(1.13201 0.411767 4.0974e-19)
(1.13211 0.411537 2.04373e-19)
(1.13677 0.400496 9.74472e-20)
(1.13869 0.399518 3.25808e-19)
(-0.0434217 0.00476513 4.07584e-19)
(-0.0658527 0.00324301 -6.90047e-19)
(0.0670291 0.00182465 -1.34723e-19)
(0.492996 0.19069 3.15757e-19)
(0.818395 0.313173 -6.68749e-19)
(1.00071 0.382053 -2.75576e-19)
(1.08461 0.413836 -5.6418e-19)
(1.11634 0.424523 -1.94657e-20)
(1.12588 0.425457 -1.53762e-19)
(1.128 0.422296 -6.01924e-19)
(1.12799 0.418677 4.60114e-19)
(1.12928 0.411591 3.51621e-20)
(1.12931 0.410544 -1.98109e-20)
(1.13333 0.39844 1.71566e-19)
(1.13425 0.397941 -3.99595e-19)
(-0.0443042 0.00878706 -2.94928e-20)
(-0.0605098 -0.00488906 3.03574e-19)
(0.153418 0.0417605 8.56684e-20)
(0.597623 0.232373 -4.45273e-19)
(0.887113 0.340901 2.97154e-19)
(1.03572 0.397675 9.57471e-20)
(1.09853 0.421598 -2.51647e-19)
(1.11995 0.42816 -1.19965e-19)
(1.1253 0.427158 -3.6622e-19)
(1.12585 0.423149 6.55321e-20)
(1.12548 0.418773 -4.45911e-19)
(1.12628 0.411541 -3.18234e-19)
(1.12594 0.409497 8.59063e-20)
(1.12981 0.396832 8.99222e-20)
(1.1301 0.396933 -1.56798e-19)
(-0.0453831 0.0120329 -1.51378e-19)
(-0.0437955 -0.0134238 -9.62336e-20)
(0.261134 0.0944361 2.0648e-19)
(0.689068 0.267981 3.83851e-19)
(0.942377 0.36423 7.4798e-20)
(1.06187 0.410598 -2.06192e-19)
(1.10792 0.427935 2.60728e-19)
(1.12153 0.431182 2.28387e-19)
(1.12382 0.428711 1.19299e-19)
(1.12329 0.424072 2.28913e-20)
(1.12244 0.418964 1.43688e-19)
(1.12287 0.411593 6.39104e-20)
(1.12252 0.408679 -4.54553e-20)
(1.12586 0.395516 -5.7501e-20)
(1.12526 0.395812 5.15404e-20)
(-0.0469264 0.0113032 -7.04326e-20)
(-0.0130316 -0.0166736 -8.2706e-20)
(0.377155 0.144964 6.791e-20)
(0.768855 0.298952 -9.03948e-20)
(0.986145 0.383639 -1.94777e-19)
(1.08099 0.421183 1.47895e-20)
(1.11367 0.433212 1.20484e-19)
(1.12151 0.433934 -1.09239e-19)
(1.12168 0.430329 7.25783e-20)
(1.12034 0.425064 1.47038e-19)