/*--------------------------------*- C++ -*----------------------------------*\
  =========                 |
  \\      /  F ield         | OpenFOAM: The Open Source CFD Toolbox
   \\    /   O peration     | Website:  https://openfoam.org
    \\  /    A nd           | Version:  7
     \\/     M anipulation  |
\*---------------------------------------------------------------------------*/
FoamFile
{
    version     2.0;
    format      ascii;
    class       volScalarField;
    location    "34.9998";
    object      p;
}
// * * * * * * * * * * * * * * * * * * * * * * * * * * * * * * * * * * * * * //

dimensions      [0 2 -2 0 0 0 0];

internalField   nonuniform List<scalar> 
18750
(
-0.0337759
-0.0408715
-0.0539139
-0.0739506
-0.0997439
-0.130817
-0.16646
-0.206086
-0.249042
-0.294725
-0.342477
-0.391679
-0.441662
-0.491781
-0.54142
-0.0245307
-0.032032
-0.0453431
-0.0654915
-0.0912751
-0.122248
-0.157734
-0.197174
-0.239944
-0.285465
-0.33303
-0.382032
-0.43184
-0.481955
-0.531889
-0.0183741
-0.026078
-0.0394623
-0.059551
-0.0851823
-0.115939
-0.151171
-0.190341
-0.232842
-0.278077
-0.325443
-0.374215
-0.423811
-0.473836
-0.52387
-0.0153464
-0.0230458
-0.0363115
-0.0561736
-0.0815183
-0.111948
-0.146834
-0.185661
-0.227835
-0.272775
-0.319848
-0.368352
-0.417691
-0.467504
-0.5174
-0.0153802
-0.0228703
-0.0358327
-0.0553088
-0.0802318
-0.110228
-0.144689
-0.18311
-0.224902
-0.269492
-0.316237
-0.364448
-0.413498
-0.462976
-0.512488
-0.0182655
-0.025365
-0.0378599
-0.0568083
-0.0811914
-0.110657
-0.144616
-0.18257
-0.223926
-0.268108
-0.314481
-0.362364
-0.411087
-0.460141
-0.509097
-0.0237127
-0.0302633
-0.042146
-0.0604421
-0.0841819
-0.113029
-0.146414
-0.183838
-0.224701
-0.268417
-0.314356
-0.361851
-0.410192
-0.458757
-0.507058
-0.0313389
-0.0372167
-0.0483697
-0.0659123
-0.0889218
-0.117075
-0.149819
-0.186651
-0.22696
-0.270145
-0.315573
-0.362594
-0.410478
-0.458504
-0.506111
-0.0406949
-0.0458141
-0.0561519
-0.0728689
-0.095082
-0.122479
-0.154519
-0.190699
-0.230393
-0.272977
-0.317811
-0.364256
-0.411589
-0.459028
-0.505941
-0.0512923
-0.0555978
-0.0650757
-0.0809295
-0.102303
-0.128896
-0.160178
-0.195648
-0.234665
-0.276581
-0.320739
-0.366505
-0.413182
-0.459983
-0.506224
-0.0626378
-0.0660795
-0.0747081
-0.0896983
-0.110214
-0.13597
-0.166453
-0.201158
-0.239438
-0.280625
-0.324034
-0.369027
-0.414943
-0.461047
-0.506652
-0.074225
-0.0767883
-0.0846274
-0.0987856
-0.118447
-0.143352
-0.173003
-0.206898
-0.244387
-0.284786
-0.327388
-0.371539
-0.4166
-0.461937
-0.506944
-0.0855623
-0.0872925
-0.0944427
-0.107824
-0.126655
-0.15071
-0.17951
-0.212559
-0.249209
-0.288769
-0.33052
-0.373786
-0.417926
-0.462414
-0.506842
-0.0961992
-0.0972124
-0.103808
-0.116481
-0.134519
-0.157741
-0.185683
-0.21786
-0.253632
-0.29231
-0.333173
-0.37554
-0.418738
-0.462287
-0.506092
-0.105766
-0.106264
-0.112427
-0.124465
-0.141765
-0.16418
-0.191266
-0.222554
-0.25742
-0.29518
-0.335122
-0.376587
-0.418881
-0.461438
-0.50442
-0.113909
-0.114281
-0.120046
-0.131532
-0.148161
-0.169806
-0.196044
-0.226433
-0.260369
-0.297184
-0.336177
-0.376727
-0.418193
-0.459827
-0.501626
-0.120611
-0.120959
-0.126451
-0.137492
-0.153526
-0.174439
-0.199842
-0.229325
-0.262312
-0.298164
-0.336186
-0.375789
-0.416466
-0.457404
-0.497694
-0.125857
-0.126194
-0.131542
-0.14221
-0.157732
-0.177947
-0.202527
-0.231096
-0.263115
-0.297984
-0.335024
-0.37365
-0.413493
-0.45399
-0.49287
-0.129698
-0.130011
-0.135272
-0.145659
-0.160689
-0.180242
-0.204009
-0.231653
-0.262677
-0.296535
-0.332585
-0.370226
-0.40917
-0.449203
-0.487207
-0.132285
-0.13251
-0.137652
-0.147799
-0.162392
-0.181295
-0.204246
-0.230941
-0.260934
-0.29373
-0.328768
-0.365441
-0.403466
-0.442954
-0.480428
-0.133844
-0.133827
-0.138755
-0.14866
-0.162835
-0.181088
-0.203202
-0.228916
-0.257836
-0.289527
-0.323526
-0.359242
-0.396281
-0.43535
-0.472142
-0.134606
-0.134104
-0.138699
-0.148321
-0.162061
-0.179644
-0.200888
-0.225577
-0.253373
-0.283894
-0.316806
-0.351605
-0.387519
-0.426344
-0.462301
-0.134741
-0.133463
-0.137634
-0.146904
-0.160152
-0.177027
-0.197355
-0.220956
-0.247563
-0.276835
-0.308552
-0.34252
-0.377129
-0.415814
-0.450924
-0.134317
-0.132012
-0.135752
-0.144559
-0.157223
-0.173332
-0.192684
-0.215114
-0.240446
-0.268387
-0.298716
-0.331974
-0.365107
-0.4037
-0.438003
-0.133321
-0.129917
-0.133287
-0.141457
-0.153408
-0.168678
-0.186984
-0.208136
-0.232065
-0.258648
-0.28728
-0.319935
-0.351487
-0.39
-0.423565
-0.131747
-0.127498
-0.130492
-0.137793
-0.148879
-0.163217
-0.180384
-0.200143
-0.222466
-0.247708
-0.274307
-0.306357
-0.336313
-0.37472
-0.40776
-0.129681
-0.125195
-0.127596
-0.133784
-0.143847
-0.157133
-0.173031
-0.191288
-0.211711
-0.235642
-0.259931
-0.291195
-0.319689
-0.357706
-0.390902
-0.127319
-0.123337
-0.124769
-0.129695
-0.138579
-0.150653
-0.16508
-0.181762
-0.199919
-0.222433
-0.244425
-0.274343
-0.30193
-0.338704
-0.373132
-0.124952
-0.121935
-0.122175
-0.125841
-0.133381
-0.144049
-0.156722
-0.171708
-0.187341
-0.208047
-0.228025
-0.255726
-0.283379
-0.317714
-0.354661
-0.122896
-0.120788
-0.120037
-0.122551
-0.128572
-0.137633
-0.148207
-0.161276
-0.174263
-0.192446
-0.211181
-0.23505
-0.264513
-0.293881
-0.337914
-0.121237
-0.119748
-0.118555
-0.120048
-0.124453
-0.131737
-0.139884
-0.150554
-0.161174
-0.175604
-0.194191
-0.212801
-0.244919
-0.268477
-0.313571
-0.119969
-0.118815
-0.117713
-0.118381
-0.121274
-0.126657
-0.132224
-0.139743
-0.148254
-0.158222
-0.176402
-0.191403
-0.22195
-0.246329
-0.28364
-0.119024
-0.118078
-0.117272
-0.117476
-0.119184
-0.122627
-0.12563
-0.129409
-0.135478
-0.141118
-0.157956
-0.170568
-0.199719
-0.223474
-0.260249
-0.118312
-0.11755
-0.117053
-0.117188
-0.11815
-0.119807
-0.120332
-0.120184
-0.123243
-0.124645
-0.14002
-0.150292
-0.180502
-0.201332
-0.241203
-0.11773
-0.117172
-0.116999
-0.117315
-0.117926
-0.118174
-0.116353
-0.112647
-0.112084
-0.109794
-0.122419
-0.132047
-0.162533
-0.183123
-0.225663
-0.117171
-0.116847
-0.117019
-0.117624
-0.118133
-0.117461
-0.113501
-0.107173
-0.102259
-0.0975836
-0.105256
-0.116391
-0.143243
-0.169396
-0.210595
-0.116533
-0.116476
-0.116995
-0.11792
-0.118397
-0.117223
-0.111509
-0.103603
-0.0943746
-0.0880691
-0.0919493
-0.104253
-0.12729
-0.159995
-0.194623
-0.115744
-0.115969
-0.116781
-0.117957
-0.118423
-0.116995
-0.110147
-0.101333
-0.0889994
-0.0811118
-0.0835
-0.0966075
-0.116642
-0.151923
-0.182825
-0.114774
-0.11527
-0.116278
-0.1176
-0.118026
-0.116461
-0.109142
-0.0997172
-0.0861665
-0.077082
-0.0785395
-0.0928346
-0.111335
-0.144218
-0.175432
-0.113653
-0.114378
-0.115466
-0.116806
-0.11719
-0.115387
-0.108441
-0.0985044
-0.0855148
-0.0765966
-0.0769741
-0.0911557
-0.109787
-0.138768
-0.169873
-0.112477
-0.113358
-0.114412
-0.115638
-0.115944
-0.114152
-0.108189
-0.0984326
-0.0864127
-0.0788531
-0.0789472
-0.0914159
-0.110081
-0.135653
-0.165016
-0.111402
-0.112366
-0.11332
-0.114373
-0.114661
-0.113278
-0.109078
-0.100473
-0.0887847
-0.082814
-0.0831945
-0.0936628
-0.111163
-0.133889
-0.160688
-0.110601
-0.111588
-0.112407
-0.113418
-0.113816
-0.113088
-0.11119
-0.10418
-0.0927584
-0.0873253
-0.0881651
-0.0970083
-0.112603
-0.132786
-0.156722
-0.110204
-0.111179
-0.111956
-0.112969
-0.113611
-0.113577
-0.113596
-0.107285
-0.0973513
-0.0919835
-0.0929612
-0.100561
-0.114157
-0.131835
-0.152989
-0.110244
-0.111177
-0.111947
-0.113011
-0.113929
-0.114584
-0.114295
-0.109886
-0.101513
-0.096479
-0.097307
-0.103814
-0.115507
-0.13081
-0.149416
-0.110666
-0.111524
-0.112286
-0.113365
-0.114419
-0.115838
-0.113607
-0.111358
-0.104765
-0.100439
-0.101027
-0.106482
-0.116482
-0.129614
-0.145897
-0.111359
-0.112107
-0.112811
-0.113811
-0.115022
-0.115964
-0.113535
-0.111761
-0.106957
-0.103596
-0.104
-0.108514
-0.116985
-0.128154
-0.142392
-0.112201
-0.112808
-0.113368
-0.114147
-0.115952
-0.114359
-0.113809
-0.111839
-0.108275
-0.105849
-0.106173
-0.109874
-0.116976
-0.126428
-0.138851
-0.113096
-0.113546
-0.11385
-0.11448
-0.116457
-0.113552
-0.113628
-0.111723
-0.108964
-0.107253
-0.107534
-0.110581
-0.116478
-0.124416
-0.135237
-0.113988
-0.11428
-0.11417
-0.115245
-0.114682
-0.114006
-0.113325
-0.111436
-0.1092
-0.10793
-0.108157
-0.110663
-0.115494
-0.122132
-0.131532
-0.114866
-0.11498
-0.114421
-0.116363
-0.112403
-0.11404
-0.11302
-0.111045
-0.109078
-0.108014
-0.108129
-0.110163
-0.114067
-0.119588
-0.127705
-0.115764
-0.115575
-0.115069
-0.116474
-0.112463
-0.113587
-0.112515
-0.110539
-0.108668
-0.107617
-0.107551
-0.109142
-0.112219
-0.116786
-0.123743
-0.116736
-0.116084
-0.116563
-0.114387
-0.114044
-0.113468
-0.111929
-0.109891
-0.107994
-0.106822
-0.106509
-0.107655
-0.109995
-0.11374
-0.119622
-0.117813
-0.116628
-0.118687
-0.111896
-0.11458
-0.113458
-0.111367
-0.109115
-0.107076
-0.105685
-0.105073
-0.105767
-0.107432
-0.110449
-0.115331
-0.118966
-0.117687
-0.119897
-0.112601
-0.114415
-0.113241
-0.110807
-0.108236
-0.105935
-0.104248
-0.103294
-0.103523
-0.104566
-0.106929
-0.110862
-0.120203
-0.119795
-0.119211
-0.116401
-0.11508
-0.11298
-0.110153
-0.107221
-0.104584
-0.102541
-0.10121
-0.100965
-0.101431
-0.103187
-0.106221
-0.121558
-0.122969
-0.117093
-0.119336
-0.116359
-0.112893
-0.109436
-0.10607
-0.103034
-0.100585
-0.0988468
-0.0981208
-0.0980461
-0.099237
-0.101428
-0.123121
-0.126508
-0.115658
-0.120025
-0.117245
-0.112929
-0.10872
-0.104796
-0.10129
-0.0983932
-0.0962222
-0.0950119
-0.0944271
-0.0950847
-0.096507
-0.125177
-0.1292
-0.117815
-0.119944
-0.117495
-0.112844
-0.107966
-0.103411
-0.0993637
-0.0959757
-0.0933477
-0.0916504
-0.0905805
-0.0907383
-0.0914811
-0.128068
-0.13045
-0.12343
-0.121068
-0.117538
-0.112522
-0.107079
-0.101886
-0.0972504
-0.0933346
-0.0902274
-0.0880435
-0.0865134
-0.086204
-0.0863561
-0.132078
-0.130454
-0.129549
-0.123783
-0.117989
-0.112053
-0.105986
-0.100169
-0.0949312
-0.0904644
-0.0868623
-0.0841945
-0.0822267
-0.0814856
-0.0811276
-0.137513
-0.130043
-0.134419
-0.127111
-0.118982
-0.111604
-0.104694
-0.0982154
-0.0923713
-0.0873485
-0.0832454
-0.0801017
-0.0777209
-0.0765824
-0.0757778
-0.144366
-0.131736
-0.137758
-0.130187
-0.120228
-0.111219
-0.103231
-0.0960015
-0.0895389
-0.0839643
-0.0793658
-0.0757607
-0.0729905
-0.0714859
-0.070287
-0.152321
-0.137154
-0.140366
-0.13255
-0.121305
-0.110778
-0.101594
-0.0935186
-0.0864086
-0.0802878
-0.075207
-0.0711613
-0.0680277
-0.0661841
-0.0646301
-0.160621
-0.146046
-0.143281
-0.134141
-0.121877
-0.110077
-0.0997227
-0.0907496
-0.0829639
-0.076299
-0.070752
-0.0662901
-0.0628187
-0.0606632
-0.0587953
-0.168182
-0.156239
-0.146934
-0.135179
-0.121784
-0.108921
-0.0975187
-0.0876612
-0.0791877
-0.0719812
-0.0659836
-0.0611297
-0.0573462
-0.0549102
-0.052778
-0.173988
-0.165105
-0.150846
-0.13587
-0.121032
-0.107197
-0.0948842
-0.0842054
-0.07506
-0.0673208
-0.0608874
-0.0556625
-0.0515891
-0.0489079
-0.0465734
-0.177592
-0.171292
-0.153952
-0.13615
-0.119695
-0.104877
-0.0917523
-0.0803338
-0.0705554
-0.0623033
-0.0554506
-0.0498722
-0.0455269
-0.0426336
-0.0401616
-0.179201
-0.174793
-0.155735
-0.135821
-0.117813
-0.101983
-0.088092
-0.0760061
-0.0656473
-0.0569133
-0.0496623
-0.0437487
-0.0391453
-0.0360609
-0.0334927
-0.179704
-0.176224
-0.156149
-0.134729
-0.115364
-0.0985313
-0.0838957
-0.071196
-0.0603104
-0.0511334
-0.0435116
-0.0372864
-0.0324435
-0.0291749
-0.0264769
-0.179847
-0.176262
-0.155336
-0.132803
-0.1123
-0.0945205
-0.07916
-0.0658862
-0.0545236
-0.0449459
-0.0369866
-0.0304831
-0.0254344
-0.0219907
-0.0189977
-0.180047
-0.175423
-0.153495
-0.130039
-0.108576
-0.0899288
-0.0738763
-0.0600639
-0.0482688
-0.0383342
-0.0300757
-0.0233355
-0.0181359
-0.0145622
-0.0109681
-0.180415
-0.173989
-0.150786
-0.126458
-0.104152
-0.0847244
-0.0680265
-0.0537142
-0.0415306
-0.0312855
-0.022772
-0.0158438
-0.0105587
-0.00694021
-0.00242245
-0.180824
-0.17209
-0.147319
-0.122081
-0.0990002
-0.07887
-0.0615845
-0.0468194
-0.0342965
-0.0237931
-0.0150773
-0.00802021
-0.00271256
0.000914875
0.00640107
-0.180998
-0.169748
-0.143143
-0.116912
-0.0930875
-0.0723258
-0.0545194
-0.0393613
-0.0265594
-0.0158591
-0.00700259
0.000107852
0.00537555
0.00917321
0.0151726
-0.180598
-0.166869
-0.138242
-0.110934
-0.0863798
-0.0650533
-0.0468023
-0.0313265
-0.0183217
-0.00749315
0.00143561
0.0085121
0.0136924
0.017888
0.0238587
-0.179336
-0.163178
-0.132531
-0.104105
-0.0788414
-0.057021
-0.0384154
-0.0227138
-0.00959503
0.0012951
0.0102199
0.0172032
0.0223258
0.026921
0.0325363
-0.176931
-0.158396
-0.125887
-0.0963713
-0.0704404
-0.0482131
-0.0293611
-0.0135377
-0.000387032
0.0105126
0.0193613
0.026204
0.0313134
0.036152
0.0412726
-0.173149
-0.152321
-0.118185
-0.0876742
-0.0611544
-0.0386361
-0.0196601
-0.00381855
0.00933759
0.0201646
0.0288623
0.035533
0.0406399
0.0455278
0.0501016
-0.1678
-0.144806
-0.109308
-0.0779651
-0.050983
-0.0283154
-0.00932601
0.00649473
0.0195729
0.0302437
0.0387225
0.0451929
0.0502595
0.0550516
0.0590366
-0.160752
-0.135768
-0.0991638
-0.0672099
-0.0399552
-0.0172584
0.00169194
0.0174022
0.0303079
0.0407386
0.0489362
0.0551738
0.0601393
0.0647402
0.0680839
-0.151924
-0.125185
-0.0876765
-0.0554014
-0.0280933
-0.00541034
0.0133966
0.0288932
0.0415287
0.0516355
0.0594925
0.0654612
0.070267
0.0746053
0.077241
-0.141285
-0.113111
-0.0747982
-0.0425591
-0.0153154
0.00722222
0.0257748
0.0409513
0.0532182
0.0629184
0.0703779
0.0760416
0.0806341
0.0846416
0.0864852
-0.12884
-0.0996243
-0.0605492
-0.0285964
-0.00162248
0.0206192
0.0388031
0.0535547
0.0653562
0.0745706
0.0815805
0.0869035
0.0912203
0.0948026
0.0957696
-0.114622
-0.0847247
-0.0450382
-0.013482
0.0129776
0.0347549
0.0524521
0.066676
0.0779199
0.0865767
0.0930928
0.0980359
0.101986
0.104987
0.105001
-0.0987025
-0.0682161
-0.0284339
0.002679
0.0284526
0.0495998
0.066688
0.0802838
0.0908846
0.0989225
0.104909
0.109422
0.11287
0.115049
0.113941
-0.0811937
-0.0498111
-0.0109583
0.0197433
0.0447428
0.0651171
0.0814742
0.0943439
0.104225
0.111594
0.117017
0.121026
0.123793
0.124816
0.122187
-0.062211
-0.0297533
0.00754367
0.0376089
0.0617684
0.081258
0.0967698
0.10882
0.117913
0.124572
0.12939
0.132787
0.134648
0.134133
0.129599
-0.0417759
-0.00844177
0.0271158
0.0562242
0.0794498
0.0979628
0.112529
0.123675
0.131921
0.137828
0.141978
0.144618
0.145338
0.143059
0.136953
-0.0198317
0.013682
0.0476611
0.075556
0.0977179
0.115166
0.128699
0.138867
0.146214
0.151323
0.154712
0.156432
0.155843
0.152064
0.14579
0.00346129
0.0365072
0.0690302
0.0955504
0.116509
0.132802
0.145225
0.154351
0.16075
0.165003
0.167526
0.168187
0.166271
0.161436
0.157646
0.0278982
0.0600249
0.0910822
0.116123
0.135754
0.150803
0.162048
0.170077
0.17548
0.17881
0.180369
0.179906
0.176812
0.171447
0.169308
0.0532778
0.0841876
0.113696
0.137174
0.155376
0.169099
0.179105
0.185988
0.190345
0.192686
0.193214
0.191642
0.187584
0.18205
0.18048
0.07942
0.108907
0.136759
0.158598
0.175292
0.187618
0.19633
0.202024
0.205288
0.206582
0.206043
0.203411
0.198536
0.192872
0.191215
0.106152
0.134064
0.16016
0.18029
0.195412
0.206284
0.213657
0.218121
0.220249
0.220455
0.218843
0.215215
0.209627
0.203745
0.201598
0.133309
0.159527
0.183785
0.202145
0.215645
0.225018
0.231014
0.234214
0.235173
0.234266
0.231585
0.226999
0.220721
0.214498
0.211727
0.16073
0.185159
0.207515
0.22406
0.235897
0.243739
0.248329
0.25024
0.250004
0.247973
0.244239
0.238729
0.231765
0.225081
0.221608
0.188254
0.210821
0.231232
0.245929
0.256076
0.262363
0.265529
0.266132
0.264689
0.26153
0.25675
0.250327
0.242661
0.23546
0.231263
0.215727
0.236379
0.254816
0.267648
0.276088
0.28081
0.28254
0.281828
0.279173
0.27489
0.26908
0.261756
0.253374
0.245595
0.240656
0.242996
0.261698
0.278149
0.289111
0.295842
0.298995
0.299289
0.297262
0.293398
0.287998
0.281166
0.272951
0.263852
0.25548
0.249778
0.26991
0.286646
0.301115
0.310216
0.315246
0.316839
0.315706
0.312372
0.307309
0.300807
0.292971
0.283875
0.274054
0.265062
0.258591
0.296326
0.311098
0.3236
0.330862
0.33421
0.334261
0.331717
0.327094
0.320849
0.31326
0.304437
0.294479
0.283951
0.274333
0.267073
0.3221
0.334929
0.345495
0.350952
0.352646
0.351183
0.347255
0.341367
0.333964
0.325313
0.315525
0.304724
0.293496
0.283243
0.275195
0.3471
0.358021
0.366692
0.370389
0.370471
0.367531
0.362252
0.35513
0.346597
0.336911
0.326188
0.314574
0.302666
0.291775
0.282931
0.371193
0.380259
0.38709
0.389082
0.387601
0.38323
0.376643
0.368326
0.3587
0.348011
0.336384
0.323985
0.311416
0.299892
0.290257
0.394256
0.401533
0.406591
0.406944
0.403959
0.398211
0.390365
0.380898
0.370218
0.358568
0.346076
0.332929
0.319722
0.307568
0.297149
0.41617
0.421742
0.425102
0.423891
0.419469
0.412406
0.403358
0.392792
0.381107
0.368537
0.355222
0.341365
0.327549
0.314778
0.303587
0.436823
0.440785
0.442535
0.439844
0.434062
0.425753
0.415565
0.403958
0.391319
0.377882
0.363791
0.349265
0.334867
0.321494
0.309553
0.456112
0.458573
0.458808
0.45473
0.44767
0.438191
0.426933
0.414347
0.400813
0.38656
0.371745
0.356596
0.341649
0.327695
0.315028
0.473938
0.475018
0.473844
0.468478
0.460232
0.449665
0.437412
0.423916
0.409549
0.39454
0.379054
0.363329
0.347869
0.333359
0.319999
0.490209
0.490046
0.487574
0.481027
0.471689
0.460123
0.446955
0.432622
0.41749
0.401786
0.385689
0.369438
0.353502
0.338466
0.324453
0.504844
0.503587
0.499935
0.492316
0.48199
0.469517
0.455521
0.440429
0.424602
0.40827
0.391621
0.374897
0.358526
0.343
0.328378
0.51777
0.515577
0.51087
0.502294
0.491086
0.477806
0.46307
0.4473
0.430855
0.413965
0.396827
0.379684
0.362922
0.346945
0.331766
0.52894
0.525947
0.520322
0.51091
0.498934
0.484949
0.469567
0.453207
0.436221
0.418845
0.401284
0.383778
0.366671
0.350289
0.334609
0.538311
0.534637
0.528242
0.518122
0.505495
0.490912
0.474984
0.458122
0.440678
0.42289
0.404972
0.38716
0.369756
0.353018
0.336904
0.545837
0.541603
0.534588
0.523894
0.510737
0.495668
0.479293
0.462022
0.444203
0.42608
0.407873
0.389811
0.372161
0.355125
0.338653
0.551476
0.546812
0.539326
0.528194
0.514632
0.499191
0.482474
0.464888
0.446781
0.4284
0.409971
0.391718
0.373878
0.356607
0.339859
0.555195
0.550235
0.542431
0.531
0.51716
0.501461
0.484508
0.466704
0.448398
0.429839
0.411258
0.392875
0.374905
0.357471
0.34053
0.556968
0.551854
0.543883
0.532293
0.518304
0.502466
0.485383
0.46746
0.449044
0.430388
0.411725
0.393272
0.37523
0.357705
0.340652
0.556778
0.551655
0.54367
0.532062
0.518054
0.502195
0.485092
0.467148
0.448713
0.43004
0.411362
0.392896
0.374833
0.357277
0.340205
0.554618
0.549631
0.541786
0.530302
0.516405
0.500644
0.483629
0.465764
0.4474
0.42879
0.410167
0.391745
0.37372
0.356209
0.339213
0.550491
0.545783
0.538231
0.527013
0.513357
0.497814
0.480995
0.463309
0.445107
0.426642
0.408143
0.389827
0.371907
0.354529
0.337698
0.544406
0.540117
0.533012
0.522203
0.508917
0.49371
0.477196
0.459787
0.441838
0.423598
0.405293
0.387144
0.36939
0.352224
0.335648
0.536384
0.532648
0.526145
0.515883
0.503096
0.488343
0.472241
0.455208
0.437599
0.419665
0.401624
0.383701
0.366173
0.349286
0.333048
0.526453
0.523395
0.517649
0.508075
0.495913
0.481729
0.466144
0.449582
0.432403
0.414853
0.397145
0.379509
0.362261
0.345714
0.329892
0.514643
0.512389
0.507556
0.498803
0.487391
0.473888
0.458923
0.442926
0.426262
0.409175
0.391869
0.374578
0.357664
0.341514
0.32618
0.500986
0.499678
0.495904
0.488102
0.477558
0.464846
0.450601
0.43526
0.419195
0.402646
0.38581
0.368924
0.352393
0.336691
0.32191
0.485513
0.48532
0.482738
0.47601
0.46645
0.454634
0.441205
0.42661
0.411224
0.395287
0.378988
0.362564
0.346464
0.331255
0.317086
0.46828
0.469367
0.468106
0.46257
0.454105
0.443287
0.430768
0.417002
0.402373
0.387121
0.371423
0.355518
0.339894
0.325219
0.311714
0.449359
0.451876
0.45206
0.447833
0.440568
0.430845
0.419324
0.406468
0.392671
0.378171
0.36314
0.347807
0.332702
0.318597
0.305802
0.428827
0.432914
0.43466
0.431853
0.42589
0.417353
0.406914
0.395046
0.38215
0.368469
0.354162
0.339455
0.324909
0.311406
0.299361
0.406771
0.412553
0.415971
0.41469
0.410123
0.40286
0.393582
0.382773
0.370844
0.358042
0.344518
0.330488
0.316539
0.303665
0.292403
0.383284
0.390876
0.396069
0.39641
0.393328
0.387419
0.379376
0.369692
0.358792
0.346927
0.334241
0.320934
0.307616
0.295393
0.284943
0.358468
0.367972
0.375031
0.377085
0.375569
0.371089
0.364347
0.355851
0.346035
0.335159
0.323359
0.310821
0.298167
0.286614
0.276998
0.332429
0.343935
0.352943
0.356791
0.356914
0.353929
0.348551
0.341296
0.332616
0.322778
0.311913
0.300186
0.288224
0.277351
0.268586
0.305284
0.318867
0.329897
0.33561
0.337437
0.336007
0.332046
0.326084
0.318585
0.309826
0.299934
0.289053
0.27781
0.267632
0.259728
0.277154
0.292875
0.305987
0.313629
0.317215
0.317391
0.314894
0.310266
0.303986
0.296345
0.287464
0.27747
0.266971
0.257487
0.250446
0.248169
0.266071
0.281316
0.290936
0.296329
0.298153
0.29716
0.293903
0.288877
0.282385
0.274546
0.265461
0.255723
0.246936
0.240766
0.218461
0.238575
0.255988
0.267628
0.274862
0.278369
0.27891
0.277053
0.273306
0.267987
0.261216
0.253073
0.244119
0.236026
0.230715
0.188172
0.210507
0.230113
0.243803
0.252904
0.258116
0.260215
0.259779
0.257334
0.25321
0.24753
0.240344
0.232177
0.224766
0.220317
0.157447
0.181997
0.203806
0.219561
0.230543
0.237476
0.241145
0.242145
0.241013
0.238098
0.23352
0.227307
0.219946
0.213217
0.209611
0.126436
0.153176
0.177182
0.195006
0.207872
0.216529
0.221774
0.224214
0.224405
0.22271
0.219251
0.214023
0.207457
0.201376
0.198613
0.0952936
0.124179
0.150363
0.170246
0.184986
0.195359
0.202174
0.206051
0.207565
0.207095
0.204759
0.200516
0.194742
0.1893
0.187369
0.064179
0.0951454
0.123471
0.145387
0.16198
0.174052
0.182422
0.187723
0.190551
0.191309
0.190111
0.186865
0.181864
0.176991
0.175878
0.0332541
0.0662162
0.0966288
0.120537
0.138949
0.152692
0.162591
0.169294
0.173419
0.175399
0.175345
0.173101
0.168844
0.164473
0.164172
0.00268425
0.037535
0.0699595
0.0958058
0.11599
0.131365
0.14276
0.150831
0.156224
0.15941
0.160517
0.159312
0.155798
0.151782
0.152201
-0.0273611
0.0092447
0.0435843
0.0713002
0.0931989
0.110155
0.123
0.132401
0.13902
0.143383
0.145654
0.145529
0.14277
0.138935
0.139919
-0.0567081
-0.0185187
0.0176205
0.0471286
0.0706709
0.0891428
0.103387
0.114071
0.121867
0.127357
0.130784
0.13181
0.129924
0.126145
0.127131
-0.0851733
-0.0456357
-0.0078183
0.0234008
0.048499
0.068408
0.0839906
0.0959074
0.104824
0.111374
0.115913
0.118147
0.117292
0.113582
0.113615
-0.112561
-0.0720226
-0.0326171
0.000228269
0.0267713
0.048025
0.0648772
0.077973
0.0879547
0.0954852
0.101054
0.104508
0.104931
0.1017
0.0993209
-0.138651
-0.0976467
-0.0566477
-0.022281
0.00556747
0.0280649
0.0461114
0.0603266
0.0713198
0.0797547
0.0862379
0.0908257
0.0926971
0.0905395
0.0847287
-0.163217
-0.122513
-0.0797556
-0.044037
-0.0150432
0.00859709
0.0277547
0.0430209
0.0549734
0.0642487
0.0715233
0.0770783
0.0803668
0.0798591
0.07421
-0.186116
-0.146476
-0.101772
-0.0649857
-0.034996
-0.0103092
0.00986556
0.0261028
0.0389596
0.0490262
0.0569912
0.063332
0.0678532
0.0693851
0.0659022
-0.207413
-0.169055
-0.122588
-0.0850999
-0.0542207
-0.0285852
-0.00750182
0.00961456
0.0233138
0.0341328
0.0427253
0.0497056
0.0552219
0.0585821
0.0576062
-0.227087
-0.189808
-0.142252
-0.104331
-0.0726334
-0.0461675
-0.0242991
-0.00640488
0.00806607
0.0195991
0.0287854
0.0363024
0.0425889
0.0473368
0.0482524
-0.245013
-0.208456
-0.160943
-0.122573
-0.090149
-0.0630039
-0.0404839
-0.0219185
-0.0067566
0.0054432
0.0151981
0.0231808
0.0300417
0.0357691
0.0380053
-0.261061
-0.2253
-0.178438
-0.13967
-0.106701
-0.0790553
-0.0560186
-0.0368914
-0.021129
-0.00832397
0.00196721
0.0103624
0.0176365
0.0240373
0.0273788
-0.275144
-0.240567
-0.194556
-0.155506
-0.122253
-0.0942912
-0.0708693
-0.0512917
-0.0350276
-0.0216931
-0.0109112
-0.00214906
0.00542193
0.012299
0.016667
-0.287217
-0.254278
-0.209176
-0.170105
-0.136792
-0.108687
-0.0850067
-0.0650918
-0.0484308
-0.0346528
-0.0234371
-0.0143498
-0.00655879
0.000681289
0.00597724
-0.297265
-0.266347
-0.222265
-0.183561
-0.150321
-0.122224
-0.0984084
-0.0782695
-0.0613197
-0.047189
-0.0356018
-0.0262294
-0.0182776
-0.010749
-0.00463363
-0.305311
-0.276709
-0.233864
-0.195857
-0.16293
-0.134902
-0.111062
-0.0908082
-0.0736784
-0.0592867
-0.0473919
-0.0377716
-0.0297209
-0.0219791
-0.0151299
-0.311429
-0.285368
-0.244051
-0.207005
-0.174614
-0.146777
-0.122972
-0.102699
-0.0854933
-0.0709316
-0.0587947
-0.048959
-0.0408751
-0.0330228
-0.0255025
-0.315751
-0.292404
-0.252927
-0.217045
-0.185347
-0.157853
-0.13419
-0.113947
-0.0967523
-0.0821118
-0.0698037
-0.0597792
-0.0517064
-0.0439025
-0.0357564
-0.318473
-0.297964
-0.260621
-0.226039
-0.195131
-0.168104
-0.144712
-0.12461
-0.107445
-0.0928185
-0.0804191
-0.0702339
-0.0621648
-0.0546279
-0.0459012
-0.319845
-0.302259
-0.267288
-0.234061
-0.203991
-0.177521
-0.154517
-0.134664
-0.117621
-0.103054
-0.0906453
-0.0803445
-0.0722302
-0.0651495
-0.0559665
-0.320185
-0.305596
-0.273092
-0.241185
-0.211964
-0.18612
-0.163601
-0.144095
-0.12727
-0.112834
-0.100493
-0.0901416
-0.0819349
-0.0753416
-0.0660211
-0.319817
-0.308372
-0.278174
-0.247471
-0.219089
-0.193931
-0.171978
-0.152902
-0.13638
-0.122151
-0.109952
-0.0996453
-0.091362
-0.0850385
-0.0761653
-0.319151
-0.310805
-0.2826
-0.252955
-0.225407
-0.200997
-0.179681
-0.1611
-0.144948
-0.130994
-0.119006
-0.108824
-0.100533
-0.0942161
-0.0864273
-0.318594
-0.312946
-0.28635
-0.25764
-0.230951
-0.207361
-0.186745
-0.168712
-0.15298
-0.139358
-0.127639
-0.117647
-0.109422
-0.103105
-0.0964724
-0.318427
-0.314729
-0.28933
-0.261502
-0.235751
-0.213067
-0.193205
-0.175759
-0.16049
-0.147246
-0.135844
-0.126097
-0.118013
-0.111796
-0.105969
-0.318706
-0.31593
-0.291362
-0.264498
-0.239838
-0.218154
-0.199086
-0.182259
-0.167493
-0.154671
-0.143626
-0.134172
-0.126294
-0.120247
-0.114822
-0.319146
-0.316079
-0.292204
-0.266592
-0.243254
-0.222653
-0.204401
-0.188223
-0.174005
-0.161648
-0.150997
-0.141873
-0.134244
-0.128382
-0.123109
-0.319029
-0.314365
-0.291571
-0.267786
-0.24605
-0.226581
-0.209152
-0.193662
-0.180047
-0.168199
-0.157972
-0.149203
-0.141841
-0.136163
-0.130965
-0.317259
-0.309828
-0.289289
-0.26818
-0.248274
-0.229923
-0.213335
-0.198595
-0.185641
-0.174341
-0.164562
-0.156166
-0.14908
-0.143599
-0.138505
-0.312718
-0.30178
-0.285498
-0.267972
-0.249922
-0.23264
-0.216954
-0.203053
-0.190818
-0.180096
-0.170782
-0.162771
-0.155974
-0.150719
-0.1458
-0.305388
-0.290551
-0.281
-0.267392
-0.250913
-0.234699
-0.220048
-0.207085
-0.195608
-0.185479
-0.176643
-0.169036
-0.162548
-0.157555
-0.152878
-0.296181
-0.278327
-0.277182
-0.266433
-0.251138
-0.236141
-0.222705
-0.210748
-0.20004
-0.190507
-0.182162
-0.174981
-0.168827
-0.16413
-0.159751
-0.286466
-0.268647
-0.274418
-0.264774
-0.250612
-0.237127
-0.225047
-0.214098
-0.204133
-0.195195
-0.187355
-0.180626
-0.174834
-0.170463
-0.16642
-0.277525
-0.263765
-0.271854
-0.262151
-0.249574
-0.237905
-0.227185
-0.217167
-0.207907
-0.199562
-0.192243
-0.18599
-0.180588
-0.176569
-0.172897
-0.270049
-0.263314
-0.267996
-0.258709
-0.24847
-0.238716
-0.22918
-0.219969
-0.211378
-0.203631
-0.196845
-0.191087
-0.186102
-0.182466
-0.17921
-0.264405
-0.264457
-0.261964
-0.255101
-0.247809
-0.239663
-0.231013
-0.22251
-0.214577
-0.207431
-0.201178
-0.195927
-0.191382
-0.188166
-0.185389
-0.260349
-0.264571
-0.254474
-0.2525
-0.247859
-0.240632
-0.232637
-0.224821
-0.217544
-0.210988
-0.205256
-0.200513
-0.196432
-0.193673
-0.191457
-0.257455
-0.262841
-0.248356
-0.251987
-0.248288
-0.241393
-0.234055
-0.226959
-0.22032
-0.21432
-0.209083
-0.204845
-0.20125
-0.198986
-0.197429
-0.255377
-0.259355
-0.246875
-0.252614
-0.248268
-0.241865
-0.235366
-0.228987
-0.222923
-0.21743
-0.212657
-0.208919
-0.205833
-0.204097
-0.203297
-0.253728
-0.255041
-0.249429
-0.251601
-0.247355
-0.242235
-0.236686
-0.230931
-0.225355
-0.220314
-0.215971
-0.212722
-0.210171
-0.208998
-0.209047
-0.252229
-0.251435
-0.25195
-0.247534
-0.246033
-0.242803
-0.238033
-0.232768
-0.227604
-0.22296
-0.219009
-0.216239
-0.214255
-0.213681
-0.214652
-0.250841
-0.249205
-0.252428
-0.242941
-0.245672
-0.243564
-0.239312
-0.234485
-0.229664
-0.22535
-0.221745
-0.219438
-0.218062
-0.218136
-0.22009
-0.249505
-0.248131
-0.25066
-0.24273
-0.246219
-0.244188
-0.240496
-0.236093
-0.231524
-0.227454
-0.224143
-0.222283
-0.221563
-0.222347
-0.225349
-0.248221
-0.247528
-0.247979
-0.246206
-0.245456
-0.244494
-0.241729
-0.237633
-0.233166
-0.229231
-0.226147
-0.224714
-0.224718
-0.226307
-0.230427
-0.247037
-0.246887
-0.246205
-0.248522
-0.243274
-0.245001
-0.243016
-0.239059
-0.234556
-0.230622
-0.227689
-0.22667
-0.227475
-0.229999
-0.235339
-0.245912
-0.246116
-0.245491
-0.248102
-0.243418
-0.245928
-0.244195
-0.240349
-0.235658
-0.231541
-0.228667
-0.228067
-0.229791
-0.233418
-0.240098
-0.244779
-0.245181
-0.245185
-0.2466
-0.246536
-0.246045
-0.245112
-0.241529
-0.236417
-0.231864
-0.228965
-0.228826
-0.23161
-0.236552
-0.244731
-0.243595
-0.244183
-0.24472
-0.245631
-0.248704
-0.245502
-0.246066
-0.242569
-0.236704
-0.231421
-0.228434
-0.228866
-0.232897
-0.239389
-0.249254
-0.242373
-0.243154
-0.244018
-0.245226
-0.248014
-0.246692
-0.246836
-0.243319
-0.236343
-0.230008
-0.22694
-0.228114
-0.233604
-0.241923
-0.2537
-0.241184
-0.242137
-0.243191
-0.244742
-0.246807
-0.249008
-0.246777
-0.243669
-0.235052
-0.227412
-0.224361
-0.226529
-0.233712
-0.244133
-0.258104
-0.24016
-0.241245
-0.242375
-0.244056
-0.245966
-0.248971
-0.246793
-0.243463
-0.232438
-0.2235
-0.220662
-0.224064
-0.233203
-0.246044
-0.262504
-0.239475
-0.240648
-0.241781
-0.24345
-0.245216
-0.247143
-0.24752
-0.241508
-0.228161
-0.218298
-0.215877
-0.220741
-0.232096
-0.247678
-0.266979
-0.239305
-0.240534
-0.241671
-0.243262
-0.244625
-0.245491
-0.246561
-0.237425
-0.22231
-0.21206
-0.2101
-0.216599
-0.230505
-0.249125
-0.271591
-0.239768
-0.241031
-0.242234
-0.243801
-0.244793
-0.244542
-0.242745
-0.232407
-0.215368
-0.205185
-0.203562
-0.211899
-0.22861
-0.250545
-0.276465
-0.240852
-0.242125
-0.243494
-0.245142
-0.245974
-0.244634
-0.239208
-0.226445
-0.208626
-0.198193
-0.196589
-0.207201
-0.226795
-0.252167
-0.281738
-0.24241
-0.243637
-0.245194
-0.247155
-0.247964
-0.245854
-0.237548
-0.222563
-0.203991