/*--------------------------------*- C++ -*----------------------------------*\
  =========                 |
  \\      /  F ield         | OpenFOAM: The Open Source CFD Toolbox
   \\    /   O peration     | Website:  https://openfoam.org
    \\  /    A nd           | Version:  7
     \\/     M anipulation  |
\*---------------------------------------------------------------------------*/
FoamFile
{
    version     2.0;
    format      ascii;
    class       surfaceScalarField;
    location    "34.9998";
    object      phi;
}
// * * * * * * * * * * * * * * * * * * * * * * * * * * * * * * * * * * * * * //

dimensions      [0 3 -1 0 0 0 0];

internalField   nonuniform List<scalar> 
37105
(
-9.58624e-06
-2.61492e-05
3.57355e-05
-2.27468e-05
-3.3837e-05
4.69976e-05
-3.64865e-05
-3.30862e-05
4.68259e-05
-5.08646e-05
-3.20864e-05
4.64645e-05
-6.59881e-05
-3.0885e-05
4.60085e-05
-8.19172e-05
-2.93744e-05
4.53034e-05
-9.86977e-05
-2.75232e-05
4.43037e-05
-0.000116351
-2.52799e-05
4.2933e-05
-0.000134895
-2.26267e-05
4.11711e-05
-0.000154339
-1.95576e-05
3.90019e-05
-0.000174696
-1.60661e-05
3.64233e-05
-0.00019598
-1.20892e-05
3.33728e-05
-0.000218207
-7.54063e-06
2.97674e-05
-0.000241409
-2.39537e-06
2.55977e-05
3.02498e-06
2.11006e-05
-0.000265535
-9.72404e-06
-1.64252e-05
-2.30033e-05
-2.05577e-05
-3.68588e-05
-1.92306e-05
-5.13693e-05
-1.7576e-05
-6.66451e-05
-1.56093e-05
-8.27558e-05
-1.32636e-05
-9.9752e-05
-1.05271e-05
-0.00011766
-7.37197e-06
-0.000136506
-3.78079e-06
-0.000156301
2.37811e-07
-0.000177063
4.69542e-06
-0.000198799
9.64713e-06
-0.000221488
1.51479e-05
-0.000245092
2.12091e-05
2.76737e-05
-0.000269741
-9.7177e-06
-6.70749e-06
-2.29756e-05
-7.29978e-06
-3.68106e-05
-5.3957e-06
-5.13055e-05
-3.08099e-06
-6.65676e-05
-3.4719e-07
-8.26737e-05
2.8425e-06
-9.96686e-05
6.46784e-06
-0.00011758
1.05391e-05
-0.000136422
1.50611e-05
-0.000156208
2.00242e-05
-0.000176951
2.54386e-05
-0.000198633
3.13291e-05
-0.000221209
3.77242e-05
-0.000244639
4.46391e-05
5.20676e-05
-0.000269033
-9.56673e-06
2.85923e-06
-2.2663e-05
5.79651e-06
-3.63405e-05
8.2818e-06
-5.06686e-05
1.1247e-05
-6.57624e-05
1.47466e-05
-8.16694e-05
1.87495e-05
-9.84448e-05
2.32432e-05
-0.000116103
2.81971e-05
-0.000134647
3.36048e-05
-0.000154071
3.94484e-05
-0.000174367
4.5735e-05
-0.000195496
5.24581e-05
-0.000217392
5.96199e-05
-0.000239993
6.72398e-05
7.54281e-05
-0.000263353
-9.27473e-06
1.2134e-05
-2.20711e-05
1.85929e-05
-3.54589e-05
2.16695e-05
-4.94772e-05
2.52654e-05
-6.42311e-05
2.95005e-05
-7.97634e-05
3.42819e-05
-9.6111e-05
3.95908e-05
-0.000113274
4.53603e-05
-0.000131238
5.15686e-05
-0.00014997
5.81807e-05
-0.000169433
6.51973e-05
-0.000189563
7.25881e-05
-0.000210277
8.03341e-05
-0.000231488
8.84512e-05
9.71189e-05
-0.000253179
-8.84369e-06
2.09776e-05
-2.12061e-05
3.09553e-05
-3.41767e-05
3.46401e-05
-4.77472e-05
3.88359e-05
-6.20108e-05
4.37641e-05
-7.69982e-05
4.92692e-05
-9.27265e-05
5.53191e-05
-0.000109177
6.18106e-05
-0.000126311
6.87028e-05
-0.000144067
7.5937e-05
-0.000162374
8.35042e-05
-0.000181145
9.13591e-05
-0.000200284
9.94729e-05
-0.000219686
0.000107853
0.000116702
-0.000239268
-8.28009e-06
2.92577e-05
-2.00799e-05
4.27551e-05
-3.2513e-05
4.70733e-05
-4.55079e-05
5.18308e-05
-5.91437e-05
5.73998e-05
-7.34338e-05
6.35593e-05
-8.83745e-05
7.02598e-05
-0.000103925
7.73613e-05
-0.000120023
8.48006e-05
-0.000136577
9.24914e-05
-0.000153486
0.000100413
-0.000170639
0.000108513
-0.000187934
0.000116768
-0.000205257
0.000125176
0.000133925
-0.00022248
-7.59231e-06
3.685e-05
-1.87077e-05
5.38705e-05
-3.04919e-05
5.88574e-05
-4.27963e-05
6.41352e-05
-5.56823e-05
7.02859e-05
-6.91441e-05
7.70211e-05
-8.31561e-05
8.42718e-05
-9.76561e-05
9.18613e-05
-0.000112558
9.97024e-05
-0.000127746
0.000107679
-0.000143092
0.000115759
-0.000158468
0.000123889
-0.00017377
0.000132069
-0.000188888
0.000140294
0.00014871
-0.000203674
-6.79322e-06
4.36433e-05
-1.71072e-05
6.41845e-05
-2.81407e-05
6.9891e-05
-3.96542e-05
7.56488e-05
-5.16864e-05
8.2318e-05
-6.42112e-05
8.95459e-05
-7.71817e-05
9.72423e-05
-9.05155e-05
0.000105195
-0.000104107
0.000113294
-0.000117821
0.000121394
-0.000131513
0.00012945
-0.00014504
0.000137417
-0.000158299
0.000145327
-0.000171199
0.000153195
0.000161112
-0.000183601
-5.90416e-06
4.95474e-05
-1.52955e-05
7.35758e-05
-2.54892e-05
8.00847e-05
-3.61276e-05
8.62871e-05
-4.72199e-05
9.34104e-05
-5.87212e-05
0.000101047
-7.05649e-05
0.000109086
-8.26512e-05
0.000117281
-9.48587e-05
0.000125501
-0.000107042
0.000133578
-0.000119046
0.000141454
-0.000130721
0.000149091
-0.00014196
0.000156566
-0.000152702
0.000163937
0.000171254
-0.000162843
-4.90508e-06
5.44525e-05
-1.32847e-05
8.19554e-05
-2.25681e-05
8.93682e-05
-3.2264e-05
9.5983e-05
-4.23487e-05
0.000103495
-5.27612e-05
0.00011146
-6.3418e-05
0.000119743
-7.42053e-05
0.000128069
-8.49904e-05
0.000136286
-9.56229e-05
0.00014421
-0.000105947
0.000151778
-0.00011581
0.000158955
-0.000125099
0.000165854
-0.000133777
0.000172615
0.000179279
-0.000141802
-3.808e-06
5.82605e-05
-1.10931e-05
8.92404e-05
-1.94097e-05
9.76847e-05
-2.81119e-05
0.000104685
-3.71384e-05
0.000112522
-4.64161e-05
0.000120737
-5.58477e-05
0.000129174
-6.53091e-05
0.00013753
-7.46603e-05
0.000145638
-8.37494e-05
0.000153299
-9.24276e-05
0.000160457
-0.00010055
0.000167077
-0.000107986
0.00017329
-0.000114694
0.000179323
0.000185318
-0.000120733
-2.6274e-06
6.08879e-05
-8.74209e-06
9.53551e-05
-1.60474e-05
0.00010499
-2.37193e-05
0.000112357
-3.16528e-05
0.000120455
-3.97669e-05
0.000128852
-4.79533e-05
0.000137361
-5.60816e-05
0.000145658
-6.40078e-05
0.000153564
-7.15803e-05
0.000160872
-7.86582e-05
0.000167535
-8.51156e-05
0.000173534
-9.08104e-05
0.000178985
-9.56329e-05
0.000184146
0.000189443
-9.97575e-05
-1.36884e-06
6.22567e-05
-6.25647e-06
0.000100243
-1.25179e-05
0.000111251
-1.91334e-05
0.000118973
-2.59534e-05
0.000127275
-3.289e-05
0.000135788
-3.98265e-05
0.000144297
-4.66285e-05
0.00015246
-5.31518e-05
0.000160087
-5.92467e-05
0.000166966
-6.47746e-05
0.000173062
-6.96337e-05
0.000178393
-7.3714e-05
0.000183065
-7.67653e-05
0.000187197
0.000191539
-7.8861e-05
2.00139e-08
6.22367e-05
-3.68196e-06
0.000103945
-8.85483e-06
0.000116424
-1.43999e-05
0.000124518
-2.0099e-05
0.000132974
-2.58569e-05
0.000141546
-3.15501e-05
0.00014999
-3.70432e-05
0.000157954
-4.21938e-05
0.000165238
-4.68568e-05
0.000171629
-5.08907e-05
0.000177096
-5.41959e-05
0.000181699
-5.67465e-05
0.000185616
-5.82682e-05
0.000188719
0.000191565
-5.82943e-05
1.20452e-06
6.10322e-05
-1.07478e-06
0.000106224
-5.09846e-06
0.000120448
-9.56409e-06
0.000128983
-1.41461e-05
0.000137556
-1.87348e-05
0.000146135
-2.32007e-05
0.000154456
-2.74098e-05
0.000162163
-3.12216e-05
0.000169049
-3.4498e-05
0.000174906
-3.70972e-05
0.000179695
-3.88921e-05
0.000183494
-3.98846e-05
0.000186608
-4.00461e-05
0.00018888
0.000189679
-3.81606e-05
2.4663e-06
5.85659e-05
1.58709e-06
0.000107103
-1.30284e-06
0.000123338
-4.67169e-06
0.000132352
-8.15115e-06
0.000141036
-1.1587e-05
0.000149571
-1.48485e-05
0.000157718
-1.78042e-05
0.000165118
-2.03132e-05
0.000171558
-2.22443e-05
0.000176837
-2.34628e-05
0.000180914
-2.38138e-05
0.000183845
-2.31941e-05
0.000185989
-2.19486e-05
0.000187635
0.000186353
-1.86226e-05
3.70129e-06
5.48646e-05
4.26178e-06
0.000106543
2.56666e-06
0.000125033
2.15293e-07
0.000134704
-2.17733e-06
0.000143428
-4.4783e-06
0.000151872
-6.56538e-06
0.000159805
-8.3013e-06
0.000166854
-9.54665e-06
0.000172804
-1.01697e-05
0.00017746
-1.00439e-05
0.000180788
-9.02092e-06
0.000182822
-6.98882e-06
0.000183957
-3.79622e-06
0.000184442
0.000182805
-2.47531e-07
4.85284e-06
5.00118e-05
6.889e-06
0.000104507
6.422e-06
0.0001255
5.15342e-06
0.000135972
3.79396e-06
0.000144788
2.5628e-06
0.000153103
1.59269e-06
0.000160775
1.02322e-06
0.000167424
9.9696e-07
0.00017283
1.65524e-06
0.000176802
3.11516e-06
0.000179328
5.51789e-06
0.000180419
8.96331e-06
0.000180511
1.33619e-05
0.000180044
0.000176979
1.91875e-05
5.85844e-06
4.41533e-05
9.39859e-06
0.000100966
1.02006e-05
0.000124698
9.99019e-06
0.000136183
9.66469e-06
0.000145113
9.50168e-06
0.000153266
9.64748e-06
0.000160629
1.02334e-05
0.000166838
1.13994e-05
0.000171664
1.32808e-05
0.00017492
1.59822e-05
0.000176627
1.96848e-05
0.000176716
2.46287e-05
0.000175567
3.02992e-05
0.000174373
0.000169614
3.7664e-05
6.63931e-06
3.7514e-05
1.1711e-05
9.58948e-05
1.38497e-05
0.000122559
1.47081e-05
0.000135324
1.53764e-05
0.000144445
1.62303e-05
0.000152412
1.74347e-05
0.000159425
1.91185e-05
0.000165154
2.14248e-05
0.000169358
2.45082e-05
0.000171837
2.84581e-05
0.000172677
3.33934e-05
0.000171781
3.98539e-05
0.000169107
4.69714e-05
0.000167256
0.000160904
5.56821e-05
7.10125e-06
3.04128e-05
1.37356e-05
8.92604e-05
1.72948e-05
0.000119
1.92515e-05
0.000133368
2.08885e-05
0.000142808
2.27126e-05
0.000150588
2.4921e-05
0.000157216
2.76548e-05
0.00016242
3.10511e-05
0.000165961
3.53013e-05
0.000167587
4.05086e-05
0.00016747
4.65894e-05
0.0001657
5.46046e-05
0.000161091
6.32439e-05
0.000158616
0.00015078
7.33678e-05
7.15363e-06
2.32592e-05
1.5371e-05
8.1043e-05
2.04406e-05
0.000113931
2.3552e-05
0.000130256
2.6151e-05
0.000140209
2.88982e-05
0.000147841
3.20572e-05
0.000154057
3.57857e-05
0.000158692
4.02142e-05
0.000161533
4.55594e-05
0.000162242
5.20799e-05
0.000160949
5.92364e-05
0.000158544
6.87308e-05
0.000151597
7.89972e-05
0.00014835
0.000139006
9.07709e-05
6.75546e-06
1.65037e-05
1.65047e-05
7.12938e-05
2.31691e-05
0.000107266
2.75266e-05
0.000125899
3.11058e-05
0.00013663
3.47394e-05
0.000144207
3.87777e-05
0.000150019
4.34462e-05
0.000154023
4.88675e-05
0.000156112
5.51658e-05
0.000155943
6.30522e-05
0.000153063
7.12526e-05
0.000150343
8.21451e-05
0.000140705
9.40376e-05
0.000136457
0.000125083
0.00010796
5.96026e-06
1.05434e-05
1.70108e-05
6.02433e-05
2.53402e-05
9.89366e-05
3.10749e-05
0.000120164
3.56846e-05
0.00013202
4.01751e-05
0.000139716
4.50361e-05
0.000145158
5.05508e-05
0.000148509
5.69505e-05
0.000149712
6.40486e-05
0.000148845
7.33448e-05
0.000143767
8.26257e-05
0.000141062
9.4671e-05
0.000128659
0.000107993
0.000123135
0.000108369
0.000124708
4.90095e-06
5.64248e-06
1.67594e-05
4.83849e-05
2.68002e-05
8.88959e-05
3.40718e-05
0.000112892
3.97974e-05
0.000126294
4.51437e-05
0.00013437
5.07578e-05
0.000139544
5.70123e-05
0.000142254
6.44166e-05
0.000142308
7.21503e-05
0.000141111
8.26702e-05
0.000133247
9.33446e-05
0.000130388
0.000106591
0.000115413
0.000120441
0.000109286
8.84184e-05
0.000140391
3.72283e-06
1.91965e-06
1.56537e-05
3.6454e-05
2.73905e-05
7.7159e-05
3.63576e-05
0.000103925
4.33211e-05
0.000119331
4.95474e-05
0.000128144
5.59242e-05
0.000133167
6.27114e-05
0.000135467
7.11126e-05
0.000133906
7.95087e-05
0.000132715
9.08715e-05
0.000121884
0.000102914
0.000118345
0.000118173
0.000100153
0.000132115
9.53441e-05
6.5927e-05
0.000154606
2.5638e-06
-6.4415e-07
1.3726e-05
2.52918e-05
2.69597e-05
6.39254e-05
3.77195e-05
9.31655e-05
4.60911e-05
0.000110959
5.32597e-05
0.000120975
6.04159e-05
0.000126011
6.76882e-05
0.000128195
7.68698e-05
0.000124725
8.60382e-05
0.000123547
9.779e-05
0.000110132
0.000110986
0.000105149
0.0001283
8.28394e-05
0.000143478
8.01668e-05
4.18519e-05
0.000167553
1.5785e-06
-2.22265e-06
1.11983e-05
1.56721e-05
2.53788e-05
4.97448e-05
3.7902e-05
8.06423e-05
4.78774e-05
0.000100984
5.61037e-05
0.000112749
6.41376e-05
0.000117977
7.1743e-05
0.000120589
8.15099e-05
0.000114958
9.19129e-05
0.000113144
0.000103555
9.849e-05
0.000117391
9.13131e-05
0.00013597
6.42609e-05
0.000153922
6.22147e-05
1.69783e-05
0.000178795
8.72456e-07
-3.09511e-06
8.48877e-06
8.05575e-06
2.25672e-05
3.56664e-05
3.66327e-05
6.65768e-05
4.83961e-05
8.92205e-05
5.78092e-05
0.000103336
6.68268e-05
0.000108959
7.51567e-05
0.000112259
8.43364e-05
0.000105778
9.6427e-05
0.000101053
0.000108282
8.66348e-05
0.000123255
7.63402e-05
0.000138753
4.87631e-05
0.000163092
3.78751e-05
-3.04719e-06
0.000183118
4.49958e-07
-3.54506e-06
6.02892e-06
2.47679e-06
1.87163e-05
2.29791e-05
3.37125e-05
5.15806e-05
4.72806e-05
7.56524e-05
5.81328e-05
9.24835e-05
6.79547e-05
9.91375e-05
7.75655e-05
0.000102649
8.64362e-05
9.69075e-05
9.83556e-05
8.9134e-05
0.000111493
7.34978e-05
0.000127216
6.06171e-05
0.000142104
3.38749e-05
0.000167612
1.23667e-05
-1.77918e-05
0.000182357
2.49628e-07
-3.79469e-06
4.12353e-06
-1.39711e-06
1.44674e-05
1.26352e-05
2.92239e-05
3.68241e-05
4.41476e-05
6.07287e-05
5.66699e-05
7.99613e-05
6.73246e-05
8.84827e-05
7.78902e-05
9.2083e-05
8.76469e-05
8.71509e-05
9.94311e-05
7.73497e-05
0.000110967
6.19622e-05
0.000130185
4.13985e-05
0.000143144
2.09161e-05
0.000165843
-1.03325e-05
-3.75471e-05
0.000185599
2.25943e-07
-4.02063e-06
2.94975e-06
-4.12092e-06
1.06693e-05
4.91565e-06
2.37507e-05
2.37427e-05
3.89328e-05
4.55466e-05
5.28566e-05
6.60375e-05
6.45132e-05
7.68261e-05
7.6081e-05
8.05153e-05
8.56869e-05
7.7545e-05
0.000100306
6.27309e-05
0.000107961
5.43073e-05
0.000129903
1.94565e-05
0.000139925
1.08932e-05
0.000163454
-3.38609e-05
-5.75246e-05
0.000183431
3.38076e-07
-4.35871e-06
2.41879e-06
-6.20164e-06
7.88855e-06
-5.54114e-07
1.82987e-05
1.33326e-05
3.21753e-05
3.167e-05
4.65651e-05
5.16476e-05
5.891e-05
6.44812e-05
7.17291e-05
6.76962e-05
8.05228e-05
6.87513e-05
9.65409e-05
4.67128e-05
0.000104909
4.59396e-05
0.000126196
-1.83103e-06
0.000134524
2.56575e-06
0.000163266
-6.2603e-05
-6.59419e-05
0.000171683
5.17075e-07
-4.87578e-06
2.26502e-06
-7.94958e-06
6.12422e-06
-4.41332e-06
1.3687e-05
5.76978e-06
2.49369e-05
2.04202e-05
3.8263e-05
3.83215e-05
5.05656e-05
5.21786e-05
6.35626e-05
5.46992e-05
7.32738e-05
5.90401e-05
8.66744e-05
3.33121e-05
9.89226e-05
3.36914e-05
0.000115407
-1.83156e-05
0.000126131
-8.15756e-06
0.000153953
-9.04259e-05
-6.92495e-05
0.000157261
6.60194e-07
-5.53598e-06
2.15035e-06
-9.43973e-06
4.87825e-06
-7.14123e-06
1.00013e-05
6.46689e-07
1.8115e-05
1.23066e-05
2.88961e-05
2.75403e-05
4.01604e-05
4.09143e-05
5.16469e-05
4.32127e-05
6.22062e-05
4.84808e-05
7.2542e-05
2.29763e-05
8.54347e-05
2.07987e-05
9.43228e-05
-2.72037e-05
0.000111116
-2.4951e-05
0.000130288
-0.000109598
-0.000100549
0.000161588
6.64446e-07
-6.20042e-06
1.76848e-06
-1.05438e-05
3.53055e-06
-8.9033e-06
6.67529e-06
-2.49805e-06
1.183e-05
7.1519e-06
1.94073e-05
1.9963e-05
2.84817e-05
3.18399e-05
3.73589e-05
3.43356e-05
4.69536e-05
3.88861e-05
5.53495e-05
1.45804e-05
6.66711e-05
9.47711e-06
7.56434e-05
-3.61761e-05
0.000105336
-5.46433e-05
0.000134557
-0.000138819
-0.000164872
0.00019888
4.59692e-07
-6.66012e-06
9.31159e-07
-1.10152e-05
1.6246e-06
-9.59674e-06
3.05189e-06
-3.92534e-06
5.6271e-06
4.57669e-06
1.00603e-05
1.55299e-05
1.6132e-05
2.57681e-05
2.22072e-05
2.82603e-05
2.9346e-05
3.17474e-05
3.57153e-05
8.21109e-06
5.10838e-05
-5.89142e-06
7.47303e-05
-5.98225e-05
0.000123115
-0.000103028
0.000171706
-0.00018741
-0.000227869
0.000234704
3.33393e-08
-6.69345e-06
-3.81585e-07
-1.06003e-05
-9.31483e-07
-9.04684e-06
-1.19202e-06
-3.6648e-06
-9.65324e-07
4.34999e-06
7.02131e-07
1.38624e-05
3.16328e-06
2.3307e-05
6.69057e-06
2.47331e-05
1.2188e-05
2.62499e-05
2.23176e-05
-1.91852e-06
5.31947e-05
-3.67685e-05
9.68713e-05
-0.000103499
0.000156079
-0.000162236
0.000201777
-0.000233108
-0.000271662
0.000245569
-5.65941e-07
-6.12751e-06
-2.01992e-06
-9.14633e-06
-3.89552e-06
-7.17124e-06
-5.84296e-06
-1.71736e-06
-7.64168e-06
6.14871e-06
-9.03022e-06
1.5251e-05
-9.36107e-06
2.36379e-05
-6.99818e-06
2.23702e-05
3.84954e-06
1.54022e-05
2.93945e-05
-2.74635e-05
7.71803e-05
-8.45543e-05
0.000129287
-0.000155606
0.000181505
-0.000214454
0.000216437
-0.00026804
-0.000305657
0.000250432
-1.22888e-06
-4.89863e-06
-3.73475e-06
-6.64046e-06
-6.88642e-06
-4.01957e-06
-1.03303e-05
1.72655e-06
-1.38109e-05
9.62928e-06
-1.69597e-05
1.83997e-05
-1.81292e-05
2.48073e-05
-1.22973e-05
1.65383e-05
1.1688e-05
-8.58309e-06
5.46178e-05
-7.03933e-05
0.000108258
-0.000138194
0.000155075
-0.000202423
0.000194571
-0.00025395
0.000224186
-0.000297655
-0.000331128
0.000249656
-1.81033e-06
-3.0883e-06
-5.16228e-06
-3.28851e-06
-9.25066e-06
6.88101e-08
-1.35823e-05
6.05815e-06
-1.76644e-05
1.37114e-05
-2.03106e-05
2.10459e-05
-1.87041e-05
2.32008e-05
-3.49826e-06
1.33246e-06
3.43338e-05
-4.64152e-05
8.40907e-05
-0.00012015
0.000132089
-0.000186192
0.000170567
-0.000240901
0.000201739
-0.000285123
0.000225163
-0.000321079
-0.000350655
0.00024469
-2.17546e-06
-9.12838e-07
-5.99464e-06
5.30667e-07
-1.03966e-05
4.47076e-06
-1.47187e-05
1.03803e-05
-1.79831e-05
1.69758e-05
-1.80232e-05
2.1086e-05
-1.04754e-05
1.5653e-05
1.63663e-05
-2.55092e-05
6.22298e-05
-9.22787e-05
0.000108304
-0.000166225
0.00014793
-0.000225818
0.00017942
-0.000272391
0.000203457
-0.00030916
0.000222285
-0.000339906
-0.000367896
0.000239526
-2.25078e-06
1.33794e-06
-6.07033e-06
4.35022e-06
-1.01963e-05
8.59675e-06
-1.36387e-05
1.38227e-05
-1.503e-05
1.83672e-05
-1.17285e-05
1.77845e-05
3.98075e-06
-5.63185e-08
4.04345e-05
-6.19629e-05
8.59825e-05
-0.000137827
0.000125831
-0.000206073
0.000157886
-0.000257872
0.000182657
-0.000297162
0.000201969
-0.000328472
0.000218029
-0.000355966
-0.00038204
0.000232173
-2.05791e-06
3.39585e-06
-5.49037e-06
7.78268e-06
-8.88032e-06
1.19867e-05
-1.09769e-05
1.59193e-05
-1.00704e-05
1.74606e-05
-3.28166e-06
1.09958e-05
2.15511e-05
-2.48891e-05
6.30355e-05
-0.000103447
0.000103945
-0.000178736
0.000137361
-0.000239489
0.000162831
-0.000283342
0.000182684
-0.000317016
0.000198554
-0.000344342
0.000211862
-0.000369274
-0.000395116
0.000224938
-1.68071e-06
5.07655e-06
-4.47819e-06
1.05802e-05
-6.90747e-06
1.4416e-05
-7.60948e-06
1.66213e-05
-4.84213e-06
1.46933e-05
7.41045e-06
-1.25676e-06
4.08807e-05
-5.83593e-05
8.14687e-05
-0.000144035
0.0001168
-0.000214067
0.000144025
-0.000266715
0.000164418
-0.000303736
0.00018036
-0.000332958
0.000193454
-0.000357436
0.000205607
-0.000381427
-0.000406888
0.000217379
-1.22675e-06
6.3033e-06
-3.29481e-06
1.26482e-05
-4.74709e-06
1.58683e-05
-4.14983e-06
1.6024e-05
2.75974e-08
1.05158e-05
1.99107e-05
-2.11399e-05
5.9223e-05
-9.76716e-05
9.57818e-05
-0.000180594
0.000125143
-0.000243428
0.000147039
-0.00028861
0.000163334
-0.00032003
0.000176451
-0.000346074
0.000187929
-0.000368914
0.000198686
-0.000392183
-0.000417508
0.000209306
-7.95195e-07
7.0985e-06
-2.16514e-06
1.40182e-05
-2.75068e-06
1.64538e-05
-1.30589e-06
1.45792e-05
6.39675e-06
2.81319e-06
3.46249e-05
-4.9368e-05
7.3848e-05
-0.000136895
0.000105896
-0.000212642
0.000129875
-0.000267408
0.000147302
-0.000306038
0.000160566
-0.000333294
0.000171725
-0.000357233
0.000181662
-0.000378851
0.000191581
-0.000402103
-0.000427583
0.000201656
-4.57078e-07
7.55558e-06
-1.2436e-06
1.48047e-05
-1.06097e-06
1.62712e-05
8.59797e-07
1.26585e-05
1.47614e-05
-1.10884e-05
4.98517e-05
-8.44583e-05
8.51246e-05
-0.000172168
0.000112322
-0.000239839
0.000131723
-0.000286809
0.000145684
-0.000319999
0.000156648
-0.000344258
0.000166221
-0.000366807
0.000175275
-0.000387905
0.000184476
-0.000411304
-0.000436563
0.000193457
-2.50571e-07
7.80615e-06
-5.68249e-07
1.51224e-05
7.94343e-08
1.56235e-05
3.5916e-06
9.14631e-06
2.51454e-05
-3.26423e-05
6.24191e-05
-0.000121732
9.32958e-05
-0.000203044
0.000115722
-0.000262265
0.000131382
-0.000302469
0.000142688
-0.000331305
0.000151942
-0.000353512
0.000160468
-0.000375332
0.000168656
-0.000396094
0.000177064
-0.000419712
-0.000445073
0.000185574
-1.77534e-07
7.98368e-06
-9.49893e-08
1.50398e-05
6.31847e-07
1.48967e-05
8.37246e-06
1.4057e-06
3.74808e-05
-6.17506e-05
7.18143e-05
-0.000156065
9.84235e-05
-0.000229654
0.000116795
-0.000280637
0.000129433
-0.000315106
0.000138766
-0.000340638
0.000146797
-0.000361543
0.000154367
-0.000382903
0.000161898
-0.000403624
0.000169805
-0.00042762
-0.000452753
0.000177486
-1.9929e-07
8.18297e-06
9.22209e-08
1.47483e-05
9.95576e-07
1.39933e-05
1.47576e-05
-1.23563e-05
4.88998e-05
-9.58929e-05
7.89726e-05
-0.000186138
0.000101103
-0.000251784
0.000116034
-0.000295569
0.000126336
-0.000325408
0.000134211
-0.000348513
0.000141273
-0.000368605
0.000148163
-0.000389792
0.000155122
-0.000410583
0.000162308
-0.000434806
-0.000459853
0.000169408
-2.49167e-07
8.43214e-06
9.89732e-08
1.44002e-05
2.44109e-06
1.16512e-05
2.30923e-05
-3.30075e-05
5.72414e-05
-0.000130042
8.36788e-05
-0.000212576
0.000101863
-0.000269968
0.000113949
-0.000307655
0.000122445
-0.000333904
0.000129223
-0.000355291
0.000135577
-0.000374959
0.000141824
-0.000396038
0.000148202
-0.000416961
0.000154888
-0.000441492
-0.000466361
0.000161397
-2.52034e-07
8.68417e-06
-1.25705e-07
1.42738e-05
5.93769e-06
5.58779e-06
3.28046e-05
-5.98744e-05
6.33504e-05
-0.000160588
8.61566e-05
-0.000235382
0.000101113
-0.000284924
0.000110909
-0.000317451
0.00011801
-0.000341006
0.000123965
-0.000361245
0.000129698
-0.000380692
0.000135409
-0.000401749
0.000141317
-0.00042287
0.000147366
-0.000447541
-0.000472234
0.000153239
-2.72e-07
8.95617e-06
-3.2656e-07
1.43284e-05
1.0518e-05
-5.25675e-06
4.14261e-05
-9.07826e-05
6.78994e-05
-0.000187061
8.6861e-05
-0.000254343
9.91209e-05
-0.000297184
0.000107177
-0.000325507
0.000113225
-0.000347054
0.000118512
-0.000366532
0.00012374
-0.00038592
0.000128956
-0.000406965
0.000134333
-0.000428247
0.000139846
-0.000453054
-0.000477623
0.000145234
-2.44145e-07
9.20032e-06
1.77612e-07
1.39066e-05
1.59537e-05
-2.10328e-05
4.72889e-05
-0.000122118
7.07446e-05
-0.000210517
8.63488e-05
-0.000269948
9.62982e-05
-0.000307134
0.000102972
-0.00033218
0.000108197
-0.00035228
0.000112949
-0.000371283
0.000117698
-0.000390669
0.000122441
-0.000411708
0.000127376
-0.000433182
0.000132329
-0.000458007
-0.000482392
0.000137099
-1.69553e-07
9.36987e-06
1.85117e-06
1.18859e-05
2.28168e-05
-4.19985e-05
5.11363e-05
-0.000150437
7.18644e-05
-0.000231245
8.48108e-05
-0.000282894
9.28637e-05
-0.000315186
9.84397e-05
-0.000337756
0.00010302
-0.00035686
0.000107299
-0.000375563
0.000111615
-0.000394985
0.000115923
-0.000416017
0.000120366
-0.000437625
0.000124782
-0.000462423
-0.00048671
0.0001291
-1.88841e-07
9.55871e-06
4.55694e-06
7.14014e-06
2.93786e-05
-6.68202e-05
5.40707e-05
-0.000175129
7.16105e-05
-0.000248785
8.23679e-05
-0.000293652
8.89936e-05
-0.000321812
9.37125e-05
-0.000342475
9.77461e-05
-0.000360893
0.000101606
-0.000379423
0.000105499
-0.000398878
0.000109364
-0.000419882
0.000113362
-0.000441623
0.000117278
-0.000466339
-0.000490487
0.000121055
-2.22399e-07
9.78111e-06
7.58454e-06
-6.668e-07
3.44675e-05
-9.37031e-05
5.59195e-05
-0.000196581
7.04379e-05
-0.000263303
7.9276e-05
-0.00030249
8.47872e-05
-0.000327323
8.88429e-05
-0.000346531
9.24202e-05
-0.000364471
9.58813e-05
-0.000382884
9.93653e-05
-0.000402362
0.000102816
-0.000423332
0.000106344
-0.000445151
0.000109746
-0.000469741
-0.000493843
0.000113102
-1.9294e-07
9.97405e-06
1.07872e-05
-1.1647e-05
3.76229e-05
-0.000120539
5.67173e-05
-0.000215676
6.86211e-05
-0.000275207
7.57734e-05
-0.000309642
8.03714e-05
-0.000331921
8.38938e-05
-0.000350053
8.70635e-05
-0.00036764
9.0146e-05
-0.000385966
9.32284e-05
-0.000405444
9.62516e-05
-0.000426356
9.93313e-05
-0.000448231
0.000102269
-0.000472679
-0.000496739
0.000105165
-1.48983e-07
1.0123e-05
1.46283e-05
-2.64243e-05
3.90789e-05
-0.000144989
5.63016e-05
-0.000232898
6.62673e-05
-0.000285172
7.20294e-05
-0.000315404
7.58428e-05
-0.000335735
7.88958e-05
-0.000353106
8.16947e-05
-0.000370439
8.4408e-05
-0.00038868
8.70918e-05
-0.000408128
8.97067e-05
-0.00042897
9.2335e-05
-0.000450859
9.47917e-05
-0.000475136
-0.000499208
9.72605e-05
2.21876e-07
9.90116e-06
1.81524e-05
-4.43548e-05
4.00351e-05
-0.000166872
5.49729e-05
-0.000247836
6.33968e-05
-0.000293596
6.81083e-05
-0.000320115
7.12714e-05
-0.000338898
7.38956e-05
-0.000355731
7.63301e-05
-0.000372874
7.86779e-05
-0.000391027
8.097e-05
-0.00041042
8.31679e-05
-0.000431168
8.53528e-05
-0.000453044
8.73701e-05
-0.000477154
-0.000501222
8.93845e-05
8.6451e-07
9.03665e-06
2.10925e-05
-6.45828e-05
4.03968e-05
-0.000186176
5.3097e-05
-0.000260536
6.01408e-05
-0.00030064
6.40456e-05
-0.00032402
6.66855e-05
-0.000341538
6.89096e-05
-0.000357955
7.09839e-05
-0.000374948
7.29654e-05
-0.000393009
7.48645e-05
-0.000412319
7.66569e-05
-0.000432961
7.84034e-05
-0.00045479
7.9965e-05
-0.000478715
-0.000502797
8.15401e-05
1.88057e-06
7.15608e-06
2.3262e-05
-8.59643e-05
4.02411e-05
-0.000203155
5.08635e-05
-0.000271159
5.66489e-05
-0.000306426
5.98861e-05
-0.000327258
6.20963e-05
-0.000343748
6.39549e-05
-0.000359813
6.56685e-05
-0.000376662
6.72789e-05
-0.000394619
6.87879e-05
-0.000413828
7.017e-05
-0.000434343
7.14778e-05
-0.000456098
7.26009e-05
-0.000479838
-0.000503903
7.37072e-05
3.32045e-06
3.83563e-06
2.46135e-05
-0.000107257
3.96598e-05
-0.000218202
4.84079e-05
-0.000279907
5.30528e-05
-0.000311071
5.56892e-05
-0.000329894
5.7516e-05
-0.000345575
5.90295e-05
-0.000361327
6.03886e-05
-0.000378021
6.16273e-05
-0.000395858
6.27432e-05
-0.000414944
6.37201e-05
-0.00043532
6.45947e-05
-0.000456973
6.52617e-05
-0.000480505
-0.000504527
6.58853e-05
5.10577e-06
-1.27015e-06
2.52042e-05
-0.000127356
3.86496e-05
-0.000231647
4.57949e-05
-0.000287052
4.94241e-05
-0.0003147
5.14999e-05
-0.00033197
5.29603e-05
-0.000347035
5.4141e-05
-0.000362508
5.51495e-05
-0.000379029
5.60153e-05
-0.000396724
5.67398e-05
-0.000415668
5.73079e-05
-0.000435888
5.77465e-05
-0.000457411
5.79693e-05
-0.000480728
-0.000504674
5.81167e-05
7.02742e-06
-8.29757e-06
2.50806e-05
-0.000145409
3.71322e-05
-0.000243699
4.30377e-05
-0.000292958
4.58016e-05
-0.000317463
4.73536e-05
-0.000333522
4.84462e-05
-0.000348128
4.92924e-05
-0.000363354
4.99536e-05
-0.00037969
5.04496e-05
-0.00039722
5.07812e-05
-0.000416
5.0941e-05
-0.000436048
5.09485e-05
-0.000457419
5.07231e-05
-0.000480503
-0.000504336
5.03844e-05
8.97274e-06
-1.72703e-05
2.49636e-05
-0.0001614
3.5274e-05
-0.000254009
4.01132e-05
-0.000297797
4.2182e-05
-0.000319532
4.32614e-05
-0.000334601
4.39867e-05
-0.000348853
4.44941e-05
-0.000363861
4.48074e-05
-0.000380004
4.49342e-05
-0.000397347
4.48749e-05
-0.000415941
4.4623e-05
-0.000435796
4.41951e-05
-0.000456991
4.35334e-05
-0.000479841
-0.00050352
4.27174e-05
1.03589e-05
-2.76293e-05
2.45886e-05
-0.000175629
3.32134e-05
-0.000262634
3.70516e-05
-0.000301635
3.85505e-05
-0.000321031
3.9222e-05
-0.000335273
3.95898e-05
-0.000349221
3.97527e-05
-0.000364024
3.97159e-05
-0.000379967
3.9476e-05
-0.000397107
3.9027e-05
-0.000415492
3.83628e-05
-0.000435131
3.7499e-05
-0.000456127
3.63994e-05
-0.000478741
-0.000502223
3.51029e-05
1.11794e-05
-3.88086e-05
2.38524e-05
-0.000188302
3.09895e-05
-0.000269771
3.39204e-05
-0.000304566
3.49222e-05
-0.000322033
3.52316e-05
-0.000335582
3.52573e-05
-0.000349246
3.50759e-05
-0.000363843
3.46868e-05
-0.000379578
3.40797e-05
-0.0003965
3.32451e-05
-0.000414657
3.21718e-05
-0.000434058
3.08671e-05
-0.000454823
2.93209e-05
-0.000477195
-0.00050046
2.75579e-05
1.14965e-05
-5.03051e-05
2.28033e-05
-0.000199609
2.86459e-05
-0.000275614
3.07726e-05
-0.000306693
3.13227e-05
-0.000322583
3.12949e-05
-0.000335554
3.09906e-05
-0.000348942
3.04669e-05
-0.000363319
2.97245e-05
-0.000378835
2.87516e-05
-0.000395527
2.75351e-05
-0.000413441
2.60631e-05
-0.000432586
2.43283e-05
-0.000453088
2.22995e-05
-0.000475166
-0.00049823
2.0069e-05
1.14198e-05
-6.17249e-05
2.14855e-05
-0.000209675
2.62104e-05
-0.000280338
2.76402e-05
-0.000308123
2.77729e-05
-0.000322716
2.7419e-05
-0.0003352
2.67915e-05
-0.000348315
2.59297e-05
-0.000362457
2.48351e-05
-0.000377741
2.34964e-05
-0.000394188
2.19002e-05
-0.000411844
2.00394e-05
-0.000430725
1.79018e-05
-0.00045095
1.53648e-05
-0.000472629
-0.000495504
1.26386e-05
1.10658e-05
-7.27907e-05
1.9974e-05
-0.000218583
2.37218e-05
-0.000284086
2.45435e-05
-0.000308945
2.42878e-05
-0.00032246
2.36127e-05
-0.000334525
2.26645e-05
-0.000347366
2.14669e-05
-0.00036126
2.00222e-05
-0.000376296
1.83194e-05
-0.000392485
1.63443e-05
-0.000409869
1.40954e-05
-0.000428476
1.15787e-05
-0.000448433
8.59958e-06
-0.00046965
-0.000492122
5.21818e-06
1.05169e-05
-8.33075e-05
1.83244e-05
-0.000226391
2.12094e-05
-0.000286971
2.14984e-05
-0.000309234
2.08782e-05
-0.00032184
1.98833e-05
-0.00033353
1.86138e-05
-0.000346097
1.70824e-05
-0.000359728
1.52898e-05
-0.000374504
1.32242e-05
-0.00039042
1.08734e-05
-0.000407519
8.23332e-06
-0.000425836
5.30036e-06
-0.000445501
2.14556e-06
-0.000466495
-0.000487907
-2.06963e-06
9.82648e-06
-9.3134e-05
1.65899e-05
-0.000233154
1.87077e-05
-0.000289089
1.85198e-05
-0.000309046
1.75518e-05
-0.000320872
1.62367e-05
-0.000332215
1.46443e-05
-0.000344504
1.27791e-05
-0.000357863
1.06392e-05
-0.000372364
8.21217e-06
-0.000387993
5.49337e-06
-0.0004048
2.45303e-06
-0.000422796
-9.56687e-07
-0.000442091
-4.46313e-06
-0.000462989
-0.000483584
-8.78582e-06
8.98565e-06
-0.00010212
1.4812e-05
-0.00023898
1.62445e-05
-0.000290522
1.5621e-05
-0.000308422
1.43139e-05
-0.000319565
1.26769e-05
-0.000330578
1.0759e-05
-0.000342586
8.55923e-06
-0.000355663
6.06929e-06
-0.000369874
3.28107e-06
-0.000385204
1.85861e-07
-0.000401705
-3.19442e-06
-0.000419416
-6.82367e-06
-0.000438462
-1.10238e-05
-0.000458789
-0.000479107
-1.55015e-05
8.1416e-06
-0.000110261
1.30372e-05
-0.000243876
1.38395e-05
-0.000291324
1.28089e-05
-0.000307392
1.11674e-05
-0.000317923
9.20641e-06
-0.000328617
6.95872e-06
-0.000340339
4.41974e-06
-0.000353124
1.56817e-06
-0.000367022
-1.55422e-06
-0.000382082
-4.97103e-06
-0.000398288
-8.69313e-06
-0.000415694
-1.27175e-05
-0.000434437
-1.73686e-05
-0.000454138
-0.000474326
-2.21491e-05
7.32258e-06
-0.000117584
1.12992e-05
-0.000247853
1.15042e-05
-0.000291529
1.00834e-05
-0.000305971
8.11324e-06
-0.000315953
5.82456e-06
-0.000326329
3.2389e-06
-0.000337753
3.29214e-07
-0.000350215
-2.8066e-06
-0.000363886
-6.26503e-06
-0.000378623
-1.00375e-05
-0.000394515
-1.41139e-05
-0.000411617
-1.85614e-05
-0.00042999
-2.35595e-05
-0.00044914
-0.000469186
-2.87001e-05
6.51269e-06
-0.000124097
9.6152e-06
-0.000250955
9.2491e-06
-0.000291163
7.44752e-06
-0.000304169
5.15018e-06
-0.000313656
2.52328e-06
-0.000323702
-4.17051e-07
-0.000334813
-3.57803e-06
-0.000347054
-7.07526e-06
-0.000360389
-1.08855e-05
-0.000374813
-1.50054e-05
-0.000390395
-1.94517e-05
-0.000407171
-2.43317e-05
-0.00042511
-2.96244e-05