/*--------------------------------*- C++ -*----------------------------------*\
  =========                 |
  \\      /  F ield         | OpenFOAM: The Open Source CFD Toolbox
   \\    /   O peration     | Website:  https://openfoam.org
    \\  /    A nd           | Version:  7
     \\/     M anipulation  |
\*---------------------------------------------------------------------------*/
FoamFile
{
    version     2.0;
    format      ascii;
    class       volVectorField;
    location    "34.9998";
    object      U;
}
// * * * * * * * * * * * * * * * * * * * * * * * * * * * * * * * * * * * * * //

dimensions      [0 1 -1 0 0 0 0];

internalField   nonuniform List<vector> 
18750
(
(-0.0290875 -0.134666 -1.02193e-20)
(-0.112028 -0.168348 3.0391e-21)
(-0.204002 -0.159652 2.97064e-20)
(-0.284542 -0.150574 6.5763e-21)
(-0.364664 -0.141571 -1.5217e-20)
(-0.440123 -0.132188 -3.52125e-20)
(-0.513733 -0.122438 3.67563e-20)
(-0.583744 -0.112212 2.47169e-20)
(-0.65137 -0.101601 -1.93153e-20)
(-0.715647 -0.0906704 -4.94859e-20)
(-0.777257 -0.0795229 1.92168e-19)
(-0.835559 -0.0680931 -1.59942e-19)
(-0.890974 -0.0563045 9.56887e-20)
(-0.943061 -0.0442745 -1.89757e-19)
(-0.992153 -0.0325181 4.38e-20)
(-0.028205 -0.0935327 7.79748e-21)
(-0.111226 -0.116732 5.34087e-21)
(-0.203986 -0.110849 -3.46749e-21)
(-0.285445 -0.104106 3.66814e-20)
(-0.366527 -0.097153 7.57407e-20)
(-0.443042 -0.0896163 1.10299e-19)
(-0.517814 -0.0816551 -9.36773e-20)
(-0.589117 -0.0731987 1.49633e-19)
(-0.658173 -0.0643728 1.3976e-19)
(-0.724013 -0.0552195 -4.36127e-20)
(-0.787256 -0.0458546 -2.03663e-19)
(-0.847195 -0.0362397 1.23201e-20)
(-0.904268 -0.0263278 4.34118e-20)
(-0.95811 -0.016198 1.24332e-19)
(-1.0092 -0.00622866 -1.87688e-19)
(-0.0287637 -0.0521403 1.07465e-20)
(-0.111618 -0.0649182 9.78467e-21)
(-0.204256 -0.0618408 -4.97567e-20)
(-0.285771 -0.0573858 2.53005e-21)
(-0.366935 -0.0524135 -1.38925e-19)
(-0.44361 -0.0467075 3.89855e-20)
(-0.518589 -0.0404795 -1.22819e-19)
(-0.590137 -0.0337304 -2.29252e-20)
(-0.659443 -0.0266301 -1.1433e-19)
(-0.725521 -0.0192068 3.24464e-19)
(-0.78894 -0.0115801 4.37001e-19)
(-0.848913 -0.00373154 3.88659e-19)
(-0.905847 0.00434769 2.29144e-19)
(-0.959482 0.0126455 1.58988e-19)
(-1.01032 0.0208771 -2.98447e-19)
(-0.0307332 -0.0111198 -2.74257e-20)
(-0.113171 -0.0134589 3.66867e-20)
(-0.204781 -0.0130836 -3.1446e-20)
(-0.285477 -0.0108452 -9.01636e-20)
(-0.365869 -0.00779491 1.77496e-19)
(-0.441819 -0.00382242 -1.81316e-19)
(-0.516023 0.000739615 2.84162e-19)
(-0.586767 0.00583517 -2.42431e-19)
(-0.655159 0.0112423 1.67041e-19)
(-0.720173 0.0169276 -4.38855e-19)
(-0.782309 0.0227747 -6.44877e-19)
(-0.840718 0.0287955 2.53666e-20)
(-0.89573 0.034949 -1.3246e-19)
(-0.947061 0.0412901 -2.80278e-19)
(-0.995193 0.0478447 1.08852e-18)
(-0.0340332 0.0288593 -1.42111e-20)
(-0.115833 0.0370733 4.4713e-20)
(-0.205536 0.0349703 1.55868e-20)
(-0.284583 0.0351084 6.91433e-20)
(-0.363323 0.0363342 -1.05018e-19)
(-0.437672 0.0386929 4.11959e-20)
(-0.510192 0.041661 6.02456e-19)
(-0.57913 0.045153 1.06009e-19)
(-0.645501 0.0489022 1.70443e-19)
(-0.708227 0.0528721 -6.15755e-20)
(-0.76774 0.0569529 6.40448e-20)
(-0.823139 0.0611399 -3.62286e-20)
(-0.874659 0.0653674 -7.00385e-19)
(-0.921911 0.0697498 -3.9468e-19)
(-0.965315 0.0745423 -1.2114e-18)
(-0.0385204 0.0671673 3.66251e-20)
(-0.119482 0.0861391 1.23776e-20)
(-0.206458 0.0819045 -2.52468e-20)
(-0.283059 0.0801208 -1.54689e-20)
(-0.35935 0.0796918 4.08073e-20)
(-0.431285 0.0805113 -4.61959e-19)
(-0.501264 0.0819682 -8.3883e-20)
(-0.567485 0.0839158 2.82172e-20)
(-0.630845 0.086045 -2.76652e-19)
(-0.690215 0.0883213 -3.61117e-19)
(-0.745966 0.0906338 2.84011e-19)
(-0.797174 0.0929838 -2.91904e-19)
(-0.843976 0.0953041 9.19749e-19)
(-0.88585 0.0977614 -7.16516e-19)
(-0.923142 0.100744 1.62054e-18)
(-0.0440181 0.10324 -3.42544e-20)
(-0.123984 0.133244 -6.45456e-20)
(-0.207482 0.127321 4.41874e-20)
(-0.280905 0.123824 3.209e-19)
(-0.354015 0.121911 3.63361e-19)
(-0.422804 0.121321 -1.3565e-19)
(-0.489479 0.12136 6.53259e-20)
(-0.552193 0.121829 5.16986e-20)
(-0.611711 0.122379 5.51952e-19)
(-0.666858 0.122973 8.08065e-19)
(-0.717962 0.123511 -3.99713e-19)
(-0.764107 0.124024 -7.83513e-19)
(-0.80537 0.124473 -1.49157e-18)
(-0.841096 0.125062 2.77476e-19)
(-0.871568 0.126231 -1.95755e-18)
(-0.0503023 0.136522 -3.50714e-20)
(-0.12917 0.177901 -4.39725e-20)
(-0.208535 0.170842 -3.87454e-19)
(-0.278119 0.165882 1.49651e-19)
(-0.347401 0.162688 -2.14661e-19)
(-0.412408 0.16084 1.70745e-19)
(-0.475132 0.159571 1.84299e-19)
(-0.533691 0.158638 -8.55741e-19)
(-0.588715 0.15766 -6.10292e-19)
(-0.638992 0.156598 -1.0571e-18)
(-0.684825 0.155369 -1.75087e-19)
(-0.725347 0.154057 8.28544e-19)
(-0.760623 0.152681 3.32406e-18)
(-0.789917 0.151482 -5.12226e-19)
(-0.813459 0.150882 9.40928e-19)
(-0.0571151 0.166511 2.01281e-19)
(-0.13484 0.219655 9.14819e-20)
(-0.209525 0.212124 4.27179e-19)
(-0.2747 0.205998 -3.61202e-19)
(-0.339605 0.201757 1.92317e-19)
(-0.400298 0.198822 -3.58209e-19)
(-0.458546 0.196376 -8.91044e-19)
(-0.512444 0.194136 8.3474e-19)
(-0.562495 0.191698 1.08909e-19)
(-0.607469 0.189027 1.58627e-18)
(-0.64765 0.186058 -5.28707e-19)
(-0.682261 0.182947 -2.49329e-18)
(-0.711421 0.179802 -1.56605e-18)
(-0.734373 0.176912 1.74791e-19)
(-0.751312 0.174637 -7.97518e-19)
(-0.0641899 0.192791 -1.75235e-19)
(-0.140771 0.258084 -1.02145e-19)
(-0.210344 0.250867 1.62189e-19)
(-0.270639 0.243922 2.42153e-20)
(-0.330723 0.23889 -7.74809e-20)
(-0.386681 0.235065 -9.17616e-20)
(-0.440049 0.23159 4.0091e-19)
(-0.488919 0.228159 -5.08162e-19)
(-0.53368 0.224354 5.23608e-19)
(-0.573106 0.220149 6.8591e-19)
(-0.607476 0.215506 -1.25459e-18)
(-0.636115 0.210657 2.47004e-18)
(-0.659246 0.20582 3.04481e-19)
(-0.676176 0.201362 4.26872e-19)
(-0.687085 0.197555 9.76406e-19)
(-0.0712418 0.214956 3.69619e-19)
(-0.146709 0.29279 -1.27984e-19)
(-0.210855 0.28683 -6.02262e-19)
(-0.265921 0.279452 2.69724e-19)
(-0.320851 0.273901 -1.62131e-19)
(-0.37176 0.269401 2.0309e-19)
(-0.41996 0.265071 1.68198e-18)
(-0.463558 0.260587 8.73369e-19)
(-0.502851 0.255535 6.06606e-19)
(-0.536638 0.249905 -2.10979e-18)
(-0.565197 0.243692 2.40167e-18)
(-0.587956 0.237199 9.14777e-19)
(-0.605269 0.230761 -1.5035e-18)
(-0.61659 0.224857 1.85626e-18)
(-0.622136 0.219686 -8.08567e-20)
(-0.0779529 0.232619 1.03754e-19)
(-0.152392 0.323477 1.60111e-20)
(-0.210913 0.31983 -5.45007e-20)
(-0.260531 0.312431 -4.88646e-19)
(-0.310078 0.306644 1.0365e-18)
(-0.355727 0.301704 -5.63842e-19)
(-0.398576 0.296712 -1.77611e-18)
(-0.436768 0.291339 5.88413e-19)
(-0.470525 0.285185 -9.78404e-19)
(-0.498693 0.278267 1.58304e-18)
(-0.521557 0.270622 -2.95526e-18)
(-0.538643 0.262618 2.37294e-19)
(-0.550415 0.254697 1.34267e-18)
(-0.556533 0.247479 -2.87799e-18)
(-0.557333 0.241149 -6.92386e-19)
(-0.083953 0.245416 -2.64848e-19)
(-0.157529 0.349876 7.82365e-20)
(-0.21038 0.349736 2.63887e-19)
(-0.254452 0.342748 -1.77564e-20)
(-0.298487 0.337012 -1.44481e-18)
(-0.338755 0.33188 1.40062e-19)
(-0.376164 0.326439 5.81937e-19)
(-0.408906 0.320362 -1.6589e-18)
(-0.437146 0.313276 1.32961e-18)
(-0.459792 0.305237 -1.27106e-18)
(-0.47715 0.296334 3.61362e-18)
(-0.488828 0.286992 -1.53537e-18)
(-0.495338 0.277727 1.94067e-18)
(-0.496536 0.269307 4.03367e-18)
(-0.493096 0.261975 1.77965e-18)
(-0.088863 0.253156 -1.17546e-19)
(-0.161829 0.371861 -1.01082e-20)
(-0.209137 0.376449 -3.09506e-21)
(-0.247672 0.370328 -3.086e-20)
(-0.286148 0.364931 -7.3631e-19)
(-0.321002 0.359866 -3.5045e-19)
(-0.352962 0.354202 5.7786e-19)
(-0.380285 0.347627 3.79402e-19)
(-0.403087 0.339803 -2.2175e-18)
(-0.420354 0.330831 -1.21894e-19)
(-0.432415 0.320858 -7.08411e-19)
(-0.438974 0.310378 1.48436e-18)
(-0.440526 0.299952 -2.14736e-18)
(-0.437003 0.29041 -3.23118e-19)
(-0.429593 0.282161 -2.01413e-18)
(-0.0921513 0.25537 5.52363e-19)
(-0.16497 0.389202 -5.0826e-19)
(-0.207048 0.399891 -6.90969e-19)
(-0.24018 0.395123 1.28859e-18)
(-0.273131 0.390362 1.17727e-18)
(-0.302605 0.385626 1.58731e-18)
(-0.329175 0.379974 7.82125e-20)
(-0.351165 0.373121 1.21063e-18)
(-0.368657 0.364768 1.68295e-18)
(-0.38071 0.355066 2.62904e-18)
(-0.387685 0.344232 -1.27337e-18)
(-0.389397 0.332839 2.75214e-18)
(-0.386322 0.321472 -5.93428e-21)
(-0.37816 0.310909 -1.4593e-18)
(-0.366611 0.30166 -3.71522e-18)
(-0.0934094 0.252474 -3.68684e-19)
(-0.166691 0.402021 5.56256e-19)
(-0.20409 0.419915 3.88996e-19)
(-0.231972 0.417116 -1.23713e-18)
(-0.25949 0.413293 -5.92894e-19)
(-0.283691 0.409142 -1.15866e-19)
(-0.304982 0.403739 -8.96944e-19)
(-0.321771 0.396835 -1.59567e-18)
(-0.334105 0.388179 -2.85778e-18)
(-0.341132 0.377971 -1.29739e-18)
(-0.343199 0.366486 1.88643e-18)
(-0.340264 0.35438 -4.04914e-18)
(-0.332913 0.342342 1.41997e-19)
(-0.320449 0.330952 2.71327e-18)
(-0.303906 0.320552 3.98843e-18)
(-0.0924746 0.244682 -9.29164e-19)
(-0.166615 0.409871 7.08896e-19)
(-0.200117 0.436418 -1.23792e-18)
(-0.223015 0.436293 -6.26292e-19)
(-0.245289 0.433737 -3.80167e-20)
(-0.264368 0.430415 9.06807e-19)
(-0.28054 0.425493 1.54424e-18)
(-0.292285 0.418769 5.46029e-19)
(-0.299637 0.410034 8.2107e-19)
(-0.301814 0.399541 -2.34017e-18)
(-0.299162 0.387629 7.27718e-20)
(-0.291685 0.375029 -1.95355e-18)
(-0.28028 0.362522 -1.47658e-18)
(-0.264085 0.350625 -4.33211e-18)
(-0.241387 0.338945 -5.43187e-20)
(-0.0892464 0.232064 8.14158e-19)
(-0.164548 0.412585 1.36686e-19)
(-0.195019 0.449328 1.77085e-19)
(-0.21331 0.452693 1.53577e-18)
(-0.230563 0.451716 6.75538e-19)
(-0.244743 0.449446 -8.57701e-19)
(-0.255987 0.445233 6.95601e-19)
(-0.26288 0.438912 -4.26291e-19)
(-0.26542 0.430325 -8.9634e-19)
(-0.262944 0.419786 1.02543e-18)
(-0.255733 0.40767 -3.63751e-18)
(-0.243782 0.39474 -1.57183e-19)
(-0.228263 0.381955 -2.20149e-18)
(-0.209401 0.369859 3.45799e-18)
(-0.179486 0.35784 3.10808e-19)
(-0.0836824 0.214778 -3.26054e-19)
(-0.160376 0.410049 -9.10853e-19)
(-0.188681 0.458519 2.33506e-19)
(-0.202889 0.466346 -1.81265e-18)
(-0.215399 0.467268 -1.2609e-18)
(-0.224909 0.466266 -7.38208e-19)
(-0.231459 0.462969 -1.34515e-18)
(-0.23369 0.457261 1.3329e-18)
(-0.231613 0.449031 1.9675e-18)
(-0.224611 0.438637 3.98932e-18)
(-0.21304 0.426541 -2.00225e-19)
(-0.196715 0.413552 4.80192e-18)
(-0.176827 0.40065 1.94368e-18)
(-0.155541 0.38834 1.56574e-18)
(-0.119542 0.377581 -3.50027e-18)
(-0.075919 0.193189 5.70954e-19)
(-0.154057 0.402101 1.3981e-18)
(-0.181053 0.463777 9.69644e-19)
(-0.191746 0.477195 1.27188e-18)
(-0.199876 0.480453 5.47751e-21)
(-0.204981 0.480906 5.31823e-19)
(-0.207074 0.478708 4.09224e-21)
(-0.204885 0.473787 -1.05857e-18)
(-0.198347 0.466107 1.69554e-18)
(-0.186993 0.456077 -6.10131e-18)
(-0.171149 0.444212 1.85722e-18)
(-0.150594 0.431333 -1.25117e-18)
(-0.126162 0.418592 2.56771e-19)
(-0.102531 0.406044 -1.97803e-18)
(-0.0598049 0.397639 -2.27701e-18)
(-0.0663713 0.167877 -9.3614e-19)
(-0.145635 0.388496 1.25484e-18)
(-0.172125 0.464802 -3.02449e-19)
(-0.17991 0.485143 -5.55458e-19)
(-0.184058 0.491261 1.17153e-18)
(-0.185054 0.49336 1.36242e-19)
(-0.182959 0.492401 -3.60569e-19)
(-0.176551 0.488448 -4.26975e-20)
(-0.1658 0.481494 -1.10153e-18)
(-0.150161 0.471984 2.93389e-18)
(-0.130213 0.460572 1.86267e-18)
(-0.105558 0.448128 1.00401e-18)
(-0.0760924 0.435637 -1.0131e-19)
(-0.0510551 0.423029 2.53995e-18)
(0.000390283 0.417884 -2.38565e-19)
(-0.0557971 0.139654 2.76343e-19)
(-0.135248 0.3689 -2.90826e-19)
(-0.161901 0.461163 2.44635e-19)
(-0.167433 0.490002 1.02684e-18)
(-0.168031 0.499658 -6.65775e-19)
(-0.16524 0.503624 -4.47824e-19)
(-0.159212 0.504042 -8.66637e-19)
(-0.148874 0.501165 7.01488e-19)
(-0.134035 0.495101 -7.54211e-19)
(-0.114316 0.486326 -8.97178e-19)
(-0.0902165 0.475525 -1.6037e-18)
(-0.0619104 0.463606 -9.52972e-19)
(-0.0264278 0.451701 3.60556e-18)
(-0.001435 0.438807 -5.048e-18)
(0.0609655 0.438779 -1.46373e-19)
(-0.0452192 0.109696 1.19176e-18)
(-0.123116 0.34291 -4.55117e-19)
(-0.15038 0.4523 -1.20705e-18)
(-0.15437 0.491449 -3.28439e-19)
(-0.151901 0.505556 1.76784e-18)
(-0.145654 0.511688 -3.53584e-20)
(-0.136007 0.513592 9.08427e-19)
(-0.121908 0.511932 -5.01241e-19)
(-0.103336 0.506846 -2.06081e-18)
(-0.0795019 0.498847 4.90871e-18)
(-0.051252 0.488818 -3.71852e-18)
(-0.0199902 0.477906 1.13955e-18)
(0.0231657 0.466582 -5.12373e-18)
(0.0458502 0.45229 1.82261e-18)
(0.122169 0.460352 1.52591e-18)
(-0.0355162 0.0797334 -4.23054e-19)
(-0.109508 0.31016 -1.37174e-18)
(-0.13755 0.43755 6.21567e-19)
(-0.140766 0.488976 1.09945e-19)
(-0.135773 0.508749 -1.59514e-18)
(-0.126439 0.517507 1.00539e-18)
(-0.113441 0.521053 6.08085e-20)
(-0.0959381 0.520604 -2.49278e-19)
(-0.0736637 0.516618 -2.089e-18)
(-0.0462153 0.509596 -2.37197e-19)
(-0.0129611 0.500171 2.97953e-18)
(0.0195411 0.490208 2.54042e-19)
(0.0728022 0.480973 7.37917e-19)
(0.0906024 0.462411 2.16995e-18)
(0.183666 0.482029 -5.64606e-18)
(-0.0268746 0.051977 -6.47122e-19)
(-0.0947009 0.270586 2.15805e-20)
(-0.12341 0.4162 -7.94083e-19)
(-0.126657 0.481853 6.5043e-19)
(-0.119746 0.508872 9.05966e-19)
(-0.107716 0.520961 -6.92402e-19)
(-0.0917597 0.526345 -1.23827e-19)
(-0.0709356 0.527229 -6.16527e-19)
(-0.045445 0.524198 1.55503e-18)
(-0.014605 0.518171 2.94591e-19)
(0.024532 0.509493 -4.30902e-18)
(0.0565392 0.500452 1.18872e-18)
(0.122737 0.494691 7.70037e-19)
(0.131932 0.468459 -3.49547e-18)
(0.245201 0.501458 8.2504e-19)
(-0.0188038 0.0285766 1.46862e-19)
(-0.0790922 0.224895 3.97313e-19)
(-0.108014 0.387512 7.38026e-19)
(-0.112069 0.469097 -6.37221e-19)
(-0.103917 0.505323 -3.21121e-20)
(-0.0896376 0.52183 1.66743e-18)
(-0.0710439 0.529401 -8.71653e-20)
(-0.0474661 0.531534 -1.48204e-20)
(-0.0181189 0.529575 2.54086e-18)
(0.0141142 0.524736 -1.48889e-18)
(0.0619445 0.51622 1.11382e-18)
(0.089644 0.506681 -3.19102e-18)
(0.17376 0.510445 2.83821e-19)
(0.170514 0.470526 -8.88598e-19)
(0.304712 0.51498 1.53746e-18)
(-0.0109232 0.0109118 -1.11197e-19)
(-0.0633915 0.175191 4.8825e-19)
(-0.0916082 0.35078 -6.60961e-19)
(-0.0970431 0.449498 1.39792e-18)
(-0.0883778 0.497246 -1.20614e-18)
(-0.0723665 0.519662 -1.09826e-18)
(-0.0515626 0.530025 -6.88294e-19)
(-0.0255117 0.533708 -1.54043e-18)
(0.00759758 0.532065 -3.08999e-18)
(0.0403335 0.528578 4.90778e-19)
(0.0984145 0.52206 2.5719e-18)
(0.119347 0.506655 2.11528e-18)
(0.223824 0.524751 3.83066e-19)
(0.209141 0.476902 -1.84138e-18)
(0.361897 0.519337 -9.64525e-19)
(-0.0036368 -0.000820136 2.61975e-19)
(-0.048243 0.125493 4.53468e-19)
(-0.0746738 0.305562 -1.96326e-18)
(-0.0816857 0.421692 -1.379e-18)
(-0.0732611 0.48342 -4.13463e-20)
(-0.0561141 0.513792 1.14291e-18)
(-0.0333255 0.527764 -4.39649e-19)
(-0.00620626 0.533277 3.43231e-18)
(0.033142 0.532531 3.0411e-19)
(0.0617453 0.528554 -2.04051e-18)
(0.135417 0.526773 -1.97741e-18)
(0.14373 0.501158 -3.25168e-18)
(0.273101 0.532454 3.62398e-18)
(0.245657 0.48339 2.48325e-18)
(0.417774 0.524196 -5.2376e-21)
(0.00218362 -0.00753305 -7.30538e-19)
(-0.0336852 0.0811367 -1.33804e-18)
(-0.0577602 0.252322 9.7391e-19)
(-0.0662348 0.384436 1.20509e-18)
(-0.0587062 0.462278 7.63098e-19)
(-0.0413008 0.503006 -8.03512e-19)
(-0.0163902 0.522163 2.07176e-18)
(0.0104537 0.529976 -3.05685e-18)
(0.0561977 0.529594 3.49395e-18)
(0.0815577 0.524372 2.30619e-18)
(0.168601 0.533146 -7.41005e-19)
(0.168214 0.490519 -1.07022e-18)
(0.313005 0.531646 -1.44951e-18)
(0.288173 0.485601 -2.97723e-18)
(0.462472 0.518839 3.63388e-18)
(0.00617633 -0.0108688 2.04013e-18)
(-0.0197047 0.0461376 1.55139e-18)
(-0.0415342 0.193389 3.53013e-19)
(-0.0511224 0.336889 -2.23827e-20)
(-0.0449283 0.431944 -2.67289e-19)
(-0.028339 0.485688 -3.10179e-19)
(-0.00118039 0.511666 -1.61834e-18)
(0.0238293 0.52328 2.88901e-18)
(0.0785903 0.526299 -2.32931e-18)
(0.0937727 0.508872 -3.27574e-20)
(0.201501 0.537854 2.37216e-18)
(0.191481 0.487068 1.72554e-18)
(0.341558 0.511937 1.74678e-18)
(0.327794 0.494704 -2.61674e-20)
(0.504179 0.491423 -2.16672e-18)
(0.00870139 -0.0122703 -1.22238e-18)
(-0.00692256 0.021395 -1.25816e-18)
(-0.0265825 0.134891 3.84038e-19)
(-0.0370142 0.279572 -6.31314e-19)
(-0.0322091 0.390421 -3.10821e-19)
(-0.0179134 0.459674 1.12968e-18)
(0.0121821 0.49524 -2.96733e-19)
(0.0330095 0.508913 -2.93365e-19)
(0.0967203 0.523612 -9.25016e-19)
(0.111389 0.494029 -2.22608e-18)
(0.207253 0.515868 1.04999e-18)
(0.245412 0.501446 -1.27673e-18)
(0.32285 0.475772 -2.01766e-18)
(0.422068 0.508414 -9.35109e-19)
(0.456828 0.452611 3.8404e-18)
(0.0103422 -0.0125892 1.36706e-18)
(0.00389518 0.00544686 -1.06782e-18)
(-0.0126308 0.0852553 -1.75256e-18)
(-0.0243368 0.216032 1.85817e-19)
(-0.0208671 0.336835 4.20474e-19)
(-0.0104955 0.421863 -3.2004e-19)
(0.0219146 0.471339 8.52448e-19)
(0.040805 0.486797 1.72539e-19)
(0.102812 0.508663 -1.16387e-19)
(0.136618 0.490903 9.63689e-20)
(0.204351 0.483524 -1.08406e-18)
(0.27912 0.492981 1.47907e-19)
(0.337807 0.464567 6.55828e-19)
(0.444746 0.481827 -5.24208e-19)
(0.487457 0.441317 3.50585e-18)
(0.011802 -0.0123427 2.84107e-19)
(0.0128669 -0.00401951 -6.0966e-19)
(0.000783795 0.0493446 1.69935e-18)
(-0.0126119 0.154014 1.31647e-18)
(-0.0112903 0.273436 -1.3375e-18)
(-0.00576143 0.370532 -1.02188e-19)
(0.0256626 0.435283 -6.4198e-19)
(0.0469221 0.458221 -2.6664e-19)
(0.101219 0.480684 1.89414e-18)
(0.150065 0.471865 1.00671e-18)
(0.213655 0.47547 1.3981e-18)
(0.282835 0.442543 -1.13939e-18)
(0.370023 0.476295 7.86282e-19)
(0.424935 0.416331 -4.5723e-19)
(0.550762 0.461664 -4.47454e-18)
(0.013638 -0.0119527 2.26738e-19)
(0.0207394 -0.00928911 3.65287e-19)
(0.0132606 0.0263889 -9.34408e-19)
(-0.00106095 0.102588 -1.06561e-18)
(-0.00356437 0.207303 -9.80756e-19)
(-0.00340565 0.307495 8.21788e-20)
(0.023291 0.384822 7.42562e-19)
(0.0475339 0.415965 -1.36679e-18)
(0.0940819 0.448024 -7.30537e-19)
(0.155409 0.427103 4.21748e-19)
(0.207626 0.459205 -1.27801e-18)
(0.307026 0.402867 1.42453e-19)
(0.35834 0.453508 9.19827e-19)
(0.450407 0.378183 -1.24777e-18)
(0.566389 0.457244 1.02636e-18)
(0.0161187 -0.011801 -5.11955e-19)
(0.0279759 -0.0123473 1.15769e-18)
(0.0239733 0.0124357 7.63206e-19)
(0.00984104 0.0657915 5.10671e-19)
(0.00237676 0.147795 8.374e-19)
(-0.00312972 0.239109 -8.39196e-20)
(0.0151281 0.322147 -6.73355e-19)
(0.0428287 0.35758 1.50796e-19)
(0.0752778 0.40044 9.79521e-19)
(0.161057 0.380558 -1.52454e-18)
(0.173293 0.398001 -7.35933e-19)
(0.344602 0.388029 8.16276e-20)
(0.290807 0.365418 -2.56634e-19)
(0.528464 0.379898 1.44653e-18)
(0.476796 0.36568 -1.45461e-18)
(0.0191471 -0.0121293 5.58109e-19)
(0.0343093 -0.0147827 3.71764e-19)
(0.0319918 0.00302748 -4.35904e-20)
(0.0180827 0.0407563 -3.30951e-19)
(0.00595418 0.10024 7.42037e-20)
(-0.00571729 0.173725 -9.7664e-19)
(0.00316215 0.252868 2.17495e-19)
(0.0298247 0.287373 -4.2906e-19)
(0.0517195 0.334437 -4.25224e-19)
(0.144893 0.322278 1.02982e-18)
(0.145941 0.319762 1.55227e-18)
(0.323565 0.334282 7.2214e-19)
(0.232842 0.258225 8.11313e-19)
(0.553266 0.350867 -1.05812e-18)
(0.372245 0.240434 -1.15396e-18)
(0.0222444 -0.0129371 4.61011e-19)
(0.0388618 -0.0175715 -8.75738e-19)
(0.0362188 -0.00528664 -4.22104e-19)
(0.0215237 0.0215113 -9.45395e-19)
(0.0053007 0.0630458 4.24895e-19)
(-0.0126372 0.116287 1.03141e-18)
(-0.0112869 0.183455 -1.17421e-18)
(0.00644549 0.210545 4.13707e-19)
(0.0275707 0.259315 8.10426e-19)
(0.105876 0.239119 1.98747e-19)
(0.126478 0.245893 -9.36045e-19)
(0.259781 0.239198 -4.20406e-19)
(0.250169 0.208714 -7.96087e-21)
(0.549464 0.304173 6.3315e-19)
(0.530423 0.27762 2.6211e-18)
(0.0246376 -0.0139875 -7.47545e-19)
(0.0404885 -0.0210197 -7.47947e-19)
(0.0355228 -0.0143831 4.18341e-19)
(0.0186418 0.00342794 1.68008e-18)
(-0.0017042 0.0312583 -1.09145e-18)
(-0.0248511 0.0664103 3.04479e-19)
(-0.0302884 0.117028 4.52458e-19)
(-0.0238371 0.132923 -3.75151e-20)
(-0.00236575 0.17842 1.02991e-19)
(0.0601898 0.147289 3.97184e-19)
(0.0955657 0.162305 -3.47335e-19)
(0.245809 0.171436 -8.12864e-19)
(0.36639 0.225694 -8.25628e-19)
(0.651442 0.320175 7.02702e-19)
(0.805034 0.401762 2.46963e-19)
(0.0254587 -0.014886 -1.83855e-19)
(0.0382396 -0.0248205 1.48125e-18)
(0.0292636 -0.0244838 3.11538e-19)
(0.00884366 -0.0152706 4.44536e-19)
(-0.0160861 0.00107275 4.04532e-19)
(-0.0431204 0.0209075 3.86522e-19)
(-0.0566378 0.0539434 -1.37042e-19)
(-0.0578008 0.0583134 2.44109e-19)
(-0.0401347 0.094437 1.10798e-19)
(0.0234365 0.0673831 4.76728e-19)
(0.115163 0.104392 4.54396e-20)
(0.346104 0.178976 5.68631e-19)
(0.556886 0.280828 -5.17781e-19)
(0.818465 0.384669 -5.78417e-19)
(0.940485 0.450109 4.19488e-19)
(0.0239903 -0.0151857 6.62351e-19)
(0.031722 -0.0282495 -6.08424e-19)
(0.0176818 -0.0346661 6.19656e-20)
(-0.00707657 -0.0339985 -9.05923e-19)
(-0.0370176 -0.0282698 -7.5118e-19)
(-0.0681165 -0.0207317 1.29074e-18)
(-0.0897615 -0.00421944 3.58792e-19)
(-0.091853 -0.00827342 -5.06306e-19)
(-0.066052 0.0224195 1.36936e-19)
(0.0532981 0.036039 -1.29633e-18)
(0.252473 0.123767 4.63931e-19)
(0.521379 0.237885 -5.81236e-19)
(0.747511 0.348454 8.03306e-19)
(0.922051 0.420622 -6.3212e-20)
(1.01268 0.466867 -5.93235e-19)
(0.01989 -0.0145 -1.03235e-18)
(0.0212321 -0.0303466 -1.0514e-18)
(0.00190798 -0.0431699 -1.08307e-18)
(-0.0272124 -0.0502188 -8.13968e-19)
(-0.06155 -0.0532875 5.48025e-19)
(-0.0961042 -0.0543932 -2.19963e-18)
(-0.119491 -0.0496766 1.9984e-19)
(-0.104414 -0.0525456 1.83452e-19)
(-0.0316367 -0.0120989 9.32172e-20)
(0.187128 0.0701822 6.01499e-19)
(0.450905 0.192028 -4.9898e-19)
(0.696702 0.304896 1.29852e-18)
(0.868535 0.387539 -2.99187e-19)
(0.990378 0.439116 -6.60462e-19)
(1.06837 0.479633 3.8594e-19)
(0.013366 -0.0125959 1.81701e-19)
(0.00783714 -0.0301303 8.51221e-19)
(-0.0159066 -0.0478409 1.21451e-18)
(-0.048093 -0.0602072 2.0358e-19)
(-0.083691 -0.0682459 9.7027e-19)
(-0.115588 -0.0721572 5.37742e-19)
(-0.127445 -0.0691373 1.65856e-19)
(-0.0695816 -0.0578444 -7.95602e-19)
(0.0896021 0.0145038 -4.39171e-20)
(0.376709 0.141104 3.27664e-19)
(0.631982 0.259879 1.24652e-18)
(0.822085 0.349237 -1.66592e-19)
(0.952122 0.411425 5.19967e-19)
(1.0414 0.451983 5.29211e-19)
(1.088 0.475038 9.39591e-19)
(0.00515873 -0.00951124 3.32387e-19)
(-0.00685786 -0.0270377 -1.11387e-18)
(-0.0331802 -0.0470297 -2.44353e-19)
(-0.065253 -0.0613221 1.51903e-20)
(-0.0967353 -0.069473 -1.80434e-18)
(-0.116661 -0.0694099 4.67533e-19)
(-0.103739 -0.0597948 -2.31037e-19)
(0.0202574 -0.023657 2.69261e-19)
(0.270879 0.0897365 8.51906e-19)
(0.554859 0.212748 -2.82422e-19)
(0.767758 0.31042 -9.96813e-19)
(0.914896 0.380587 -1.50012e-19)
(1.00986 0.427077 -1.76981e-19)
(1.06528 0.45226 -3.9264e-19)
(1.10433 0.471097 -1.00425e-18)
(-0.00365916 -0.00558338 6.95099e-20)
(-0.0210861 -0.0211819 3.01841e-19)
(-0.0476261 -0.0408245 -7.79378e-19)
(-0.0757339 -0.0539389 3.28518e-19)
(-0.0977893 -0.0583801 7.47603e-19)
(-0.0985423 -0.0509168 -3.17635e-19)
(-0.0497902 -0.0352892 -7.25274e-20)
(0.161108 0.0408318 -7.3253e-19)
(0.45225 0.166852 1.49637e-19)
(0.700275 0.269653 -4.94152e-19)
(0.871411 0.348576 4.89947e-19)
(0.979854 0.401274 -4.32264e-19)
(1.04299 0.43219 8.20223e-19)
(1.08494 0.452379 -3.41541e-19)
(1.11262 0.464838 -7.58051e-19)
(-0.0120303 -0.00138794 3.52872e-19)
(-0.033547 -0.0135457 2.21322e-19)
(-0.0579585 -0.0307885 2.00642e-19)
(-0.0790527 -0.0406575 4.94332e-20)
(-0.088154 -0.0399903 3.42034e-19)
(-0.0672159 -0.0268499 -8.27383e-19)
(0.0342439 -0.00035688 4.58541e-19)
(0.326393 0.114746 1.05903e-18)
(0.607197 0.229593 -9.55283e-20)
(0.815095 0.314138 7.6914e-19)
(0.945334 0.375905 4.84044e-19)
(1.02177 0.412772 7.55376e-20)
(1.06737 0.435742 1.83739e-19)
(1.09396 0.448733 3.67005e-19)
(1.11395 0.455833 8.85332e-19)
(-0.0191676 0.0024806 5.37254e-19)
(-0.0435668 -0.00538898 7.68436e-19)
(-0.0642134 -0.0190449 -6.9449e-19)
(-0.0764203 -0.0250025 6.32424e-19)
(-0.0709858 -0.0196883 -1.46758e-18)
(-0.0251525 -0.00743595 3.53075e-19)
(0.158122 0.0550798 -1.27309e-19)
(0.482546 0.180065 -6.64939e-19)
(0.734827 0.281037 -1.1605e-18)
(0.901216 0.34789 -4.36317e-19)
(0.996888 0.394465 -1.10852e-18)
(1.05132 0.420174 7.21931e-19)
(1.07983 0.434757 -1.04098e-18)
(1.09927 0.443936 7.65435e-19)
(1.11825 0.449884 5.59666e-19)
(-0.0246621 0.00556347 -1.27424e-18)
(-0.0509934 0.00208126 4.51703e-20)
(-0.0669788 -0.00762841 9.10215e-20)
(-0.0695663 -0.00979851 1.76812e-19)
(-0.0502744 -0.00250858 9.61865e-20)
(0.0356697 0.00942076 7.04573e-19)
(0.313386 0.120659 3.83877e-19)
(0.621672 0.23662 -1.08367e-19)
(0.834996 0.321387 5.28175e-19)
(0.963868 0.372393 3.43689e-19)
(1.03242 0.407173 1.64807e-19)
(1.06823 0.422636 -4.14643e-19)
(1.08843 0.433385 1.44037e-18)
(1.10347 0.439951 2.66517e-19)
(1.11648 0.441671 -5.86873e-19)
(-0.0284811 0.00761818 1.17425e-18)
(-0.0560553 0.0079619 -8.42576e-19)
(-0.0670627 0.00195196 2.68809e-19)
(-0.0602139 0.0034619 -2.83351e-20)
(-0.0260418 0.00681538 1.41127e-18)
(0.131543 0.0463487 -1.14802e-19)
(0.464231 0.180697 -4.62687e-19)
(0.737728 0.283084 1.13897e-18)
(0.910969 0.352022 1.05663e-19)
(1.00798 0.390014 4.66508e-19)
(1.05493 0.414684 -9.31495e-19)
(1.08011 0.423795 1.73888e-20)
(1.09321 0.431307 -4.63385e-19)
(1.10379 0.434339 -1.07965e-19)
(1.11718 0.435605 -3.5417e-19)
(-0.0308929 0.00861939 -3.13785e-19)
(-0.0591897 0.0117559 8.82096e-19)
(-0.0651291 0.00900649 5.34499e-19)
(-0.0502862 0.0130059 4.27759e-19)
(0.0118867 0.00899247 -2.3136e-19)
(0.267927 0.105135 -9.14954e-20)
(0.597484 0.233191 6.10684e-19)
(0.830699 0.320476 -4.8173e-19)
(0.966982 0.374896 1.4911e-19)
(1.03776 0.401906 -7.77439e-19)
(1.07001 0.41949 5.24814e-20)
(1.08635 0.423106 1.27258e-19)
(1.09519 0.42865 -1.94244e-19)
(1.10538 0.430226 -1.19477e-18)
(1.1157 0.429577 5.24761e-19)
(-0.0323577 0.0086919 -5.55553e-19)
(-0.0608373 0.0133208 -6.96693e-19)
(-0.0618216 0.0138291 3.67246e-19)
(-0.0397186 0.0157463 -4.66652e-20)
(0.0774108 0.0240968 -5.8096e-19)
(0.413409 0.163721 -2.52043e-20)
(0.711413 0.277217 -4.28304e-19)
(0.902922 0.349547 -8.50825e-19)
(1.00697 0.391252 -3.47404e-19)
(1.05765 0.410052 3.22425e-19)
(1.07848 0.421681 3.02787e-19)
(1.09016 0.421968 -3.11532e-20)
(1.09678 0.426653 -5.14296e-19)
(1.10444 0.425247 9.75012e-19)
(1.1138 0.423889 3.18308e-19)
(-0.0334033 0.00799536 5.48333e-19)
(-0.0612441 0.0129731 1.34885e-21)
(-0.058341 0.016686 -9.00343e-19)
(-0.0217925 0.0104614 -1.91255e-20)
(0.182786 0.0695907 1.37176e-19)
(0.542448 0.214902 2.52784e-19)
(0.803412 0.313472 -4.56262e-19)
(0.957086 0.371914 2.36099e-19)
(1.03484 0.402987 -1.05587e-20)
(1.06989 0.415127 2.66034e-19)
(1.08377 0.422736 -2.43132e-19)
(1.09198 0.420596 -7.00554e-19)
(1.09621 0.424066 -3.49485e-20)
(1.10407 0.421052 -4.72719e-19)
(1.1124 0.41959 -4.28658e-19)
(-0.0344763 0.00665997 2.2463e-19)
(-0.0606322 0.011754 -4.57655e-19)
(-0.0552925 0.0163933 4.57851e-19)
(0.0155052 0.00408353 -1.47858e-19)
(0.319168 0.127779 -7.89806e-20)
(0.656456 0.258939 -2.28222e-19)
(0.876998 0.342487 3.59026e-19)
(0.997192 0.388685 2.33917e-19)
(1.05355 0.410921 -1.40062e-19)
(1.07751 0.41842 -4.01732e-19)
(1.08615 0.422751 -1.47877e-19)
(1.09223 0.418993 7.17718e-19)
(1.09599 0.422151 4.49609e-19)
(1.10276 0.41692 4.58368e-19)
(1.10926 0.414949 -1.47408e-19)
(-0.0357544 0.00491068 -1.40288e-19)
(-0.0594599 0.0109632 5.0487e-20)
(-0.0505212 0.011845 -1.90556e-19)
(0.0809312 0.0189504 -6.81423e-22)
(0.450964 0.18 -1.46589e-19)
(0.751927 0.295796 -2.21905e-19)
(0.933364 0.365422 7.78656e-20)
(1.02546 0.401079 -4.64702e-19)
(1.06567 0.416461 4.16369e-19)
(1.08142 0.420317 5.36424e-19)
(1.08707 0.422337 7.13595e-20)
(1.09198 0.417721 -6.23981e-19)
(1.0944 0.419894 -6.24093e-19)
(1.10101 0.412974 -4.86818e-19)
(1.10721 0.41174 2.06345e-19)
(-0.0371136 0.00313034 -4.56172e-19)
(-0.058659 0.0107013 1.25006e-19)
(-0.0372389 0.00270152 -9.29234e-20)
(0.179266 0.0648347 2.05807e-21)
(0.564962 0.22579 -3.65567e-20)
(0.829773 0.326867 -8.49439e-20)
(0.976441 0.383478 1.57646e-19)
(1.04544 0.410155 -9.12916e-20)
(1.07311 0.420059 -1.19556e-19)
(1.08335 0.421469 -2.32367e-19)
(1.08686 0.421688 -2.07446e-19)
(1.0906 0.416322 -9.61296e-20)
(1.09293 0.417976 3.86749e-19)
(1.09922 0.409602 -1.51193e-20)
(1.10361 0.408334 3.23561e-19)
(-0.0383852 0.0021947 1.89388e-19)
(-0.0588569 0.00907239 3.13755e-19)
(-0.00625738 -0.00637974 5.55707e-20)
(0.304099 0.121245 1.92919e-19)
(0.666097 0.264726 4.27577e-19)
(0.892299 0.351838 1.59245e-19)
(1.00819 0.397339 5.86494e-19)
(1.05854 0.416694 3.10009e-19)
(1.07722 0.422588 1.9741e-19)
(1.08356 0.422125 4.56083e-19)
(1.08581 0.42092 1.43074e-19)
(1.08914 0.415308 2.64887e-19)
(1.09077 0.416002 1.32911e-19)
(1.09655 0.40624 6.58568e-20)
(1.10063 0.405826 2.20043e-19)
(-0.0394224 0.00314208 2.65888e-19)
(-0.0587058 0.00505305 -4.48217e-19)
(0.0460212 -0.00137527 -8.84399e-20)
(0.428506 0.170911 2.03595e-19)
(0.752332 0.298017 -4.31879e-19)
(0.940932 0.372261 -1.77677e-19)
(1.03108 0.408112 -3.62209e-19)
(1.06713 0.421557 -1.21882e-20)
(1.07914 0.424302 -9.82717e-20)
(1.08291 0.422526 -3.83814e-19)
(1.08436 0.42025 2.93741e-19)
(1.0869 0.414259 2.20336e-20)
(1.0884 0.414139 -1.30388e-20)
(1.0941 0.403564 1.14418e-19)
(1.0968 0.403428 -2.71473e-19)
(-0.0401505 0.00606841 -1.87906e-20)
(-0.0548256 -0.00125994 1.98538e-19)
(0.119082 0.0274151 5.66839e-20)
(0.534536 0.213872 -2.89245e-19)
(0.823887 0.327393 1.92015e-19)
(0.978842 0.388981 6.16513e-20)
(1.04724 0.416358 -1.61387e-19)
(1.07207 0.425109 -7.64633e-20)
(1.07945 0.425631 -2.32851e-19)
(1.08144 0.422849 4.19674e-20)
(1.08228 0.4196 -2.84021e-19)
(1.08457 0.413496 -2.0352e-19)
(1.08575 0.412418 5.50975e-20)
(1.0908 0.400955 5.90833e-20)
(1.09301 0.401399 -1.0377e-19)
(-0.0408704 0.00934721 -9.88761e-20)
(-0.042199 -0.0090108 -6.31072e-20)
(0.214282 0.0747077 1.33409e-19)
(0.627056 0.251662 2.50463e-19)
(0.882189 0.352087 4.8722e-20)
(1.00743 0.402593 -1.32899e-19)
(1.05813 0.422863 1.67035e-19)
(1.07468 0.427959 1.45438e-19)
(1.07874 0.426734 7.59831e-20)
(1.07954 0.423142 1.4747e-20)
(1.08002 0.419148 9.11566e-20)
(1.08172 0.412774 4.11082e-20)
(1.0827 0.410732 -2.96801e-20)
(1.08764 0.398921 -3.73803e-20)
(1.08898 0.399622 3.45106e-20)
(-0.0419268 0.0100995 -4.61433e-20)
(-0.0168928 -0.0137673 -5.42199e-20)
(0.322681 0.124995 4.44268e-20)
(0.707793 0.283788 -5.8969e-20)
(0.928502 0.372618 -1.26721e-19)