/*--------------------------------*- C++ -*----------------------------------*\
  =========                 |
  \\      /  F ield         | OpenFOAM: The Open Source CFD Toolbox
   \\    /   O peration     | Website:  https://openfoam.org
    \\  /    A nd           | Version:  7
     \\/     M anipulation  |
\*---------------------------------------------------------------------------*/
FoamFile
{
    version     2.0;
    format      ascii;
    class       volScalarField;
    location    "21.0012";
    object      p;
}
// * * * * * * * * * * * * * * * * * * * * * * * * * * * * * * * * * * * * * //

dimensions      [0 2 -2 0 0 0 0];

internalField   nonuniform List<scalar> 
18750
(
-0.0203886
-0.0306316
-0.0486088
-0.075108
-0.108583
-0.148366
-0.1935
-0.24318
-0.29654
-0.352815
-0.41121
-0.47084
-0.53064
-0.589489
-0.646435
-0.024479
-0.0344499
-0.0521805
-0.0784676
-0.111767
-0.151408
-0.196425
-0.246005
-0.299268
-0.355445
-0.413748
-0.473302
-0.533019
-0.591712
-0.648401
-0.0324646
-0.041908
-0.0591553
-0.0850243
-0.117976
-0.157329
-0.202108
-0.251478
-0.304537
-0.360503
-0.418601
-0.477976
-0.537506
-0.595899
-0.652116
-0.0440148
-0.0527039
-0.0692474
-0.0945048
-0.126942
-0.165862
-0.210274
-0.259314
-0.312048
-0.367673
-0.425427
-0.484482
-0.543697
-0.601664
-0.657264
-0.0586607
-0.0664055
-0.0820484
-0.106522
-0.13829
-0.176635
-0.220546
-0.269127
-0.321402
-0.37654
-0.433784
-0.492347
-0.551096
-0.608533
-0.663438
-0.0758257
-0.0824662
-0.0970491
-0.120601
-0.151564
-0.189201
-0.232476
-0.280461
-0.332138
-0.386636
-0.443197
-0.50108
-0.559199
-0.616017
-0.67021
-0.0948728
-0.10024
-0.113668
-0.136205
-0.166257
-0.203065
-0.245577
-0.292832
-0.343772
-0.397482
-0.453194
-0.510211
-0.567538
-0.623665
-0.677179
-0.115091
-0.119047
-0.131296
-0.152774
-0.181837
-0.21772
-0.259354
-0.305755
-0.35583
-0.408621
-0.463337
-0.519328
-0.575714
-0.63109
-0.683991
-0.13572
-0.138209
-0.149328
-0.169747
-0.197776
-0.232662
-0.273326
-0.318766
-0.367865
-0.419628
-0.473239
-0.528078
-0.5834
-0.63797
-0.69034
-0.156002
-0.157068
-0.167192
-0.186589
-0.213573
-0.247421
-0.287047
-0.331441
-0.379476
-0.43013
-0.482561
-0.536168
-0.590334
-0.644047
-0.695963
-0.175224
-0.175026
-0.184366
-0.202806
-0.228767
-0.261566
-0.300116
-0.343405
-0.39031
-0.439801
-0.491012
-0.543352
-0.596305
-0.649107
-0.700622
-0.192741
-0.191594
-0.200391
-0.21796
-0.242951
-0.274724
-0.312185
-0.354334
-0.400067
-0.448362
-0.498345
-0.549422
-0.601144
-0.652973
-0.7041
-0.208019
-0.206444
-0.214861
-0.231673
-0.255786
-0.28658
-0.322963
-0.363961
-0.4085
-0.455584
-0.504347
-0.554195
-0.604712
-0.655509
-0.706181
-0.22069
-0.219321
-0.227425
-0.24365
-0.266999
-0.296882
-0.332213
-0.372067
-0.415409
-0.46128
-0.508838
-0.557506
-0.606884
-0.656625
-0.706637
-0.230746
-0.229892
-0.23782
-0.25368
-0.276393
-0.30544
-0.339754
-0.378484
-0.420635
-0.4653
-0.511669
-0.5592
-0.607533
-0.656282
-0.705252
-0.238226
-0.237979
-0.246028
-0.261634
-0.283844
-0.31212
-0.345458
-0.383087
-0.424059
-0.46753
-0.512726
-0.559145
-0.606499
-0.654411
-0.702081
-0.243276
-0.243668
-0.252027
-0.267536
-0.289316
-0.316841
-0.349247
-0.385795
-0.425597
-0.467881
-0.51192
-0.557241
-0.603635
-0.650809
-0.697413
-0.24623
-0.247228
-0.255898
-0.271383
-0.29279
-0.31961
-0.351103
-0.386567
-0.425196
-0.466288
-0.509186
-0.553419
-0.598847
-0.645384
-0.691053
-0.247596
-0.249024
-0.257814
-0.273232
-0.294287
-0.320435
-0.351014
-0.385384
-0.422828
-0.462717
-0.504486
-0.547644
-0.59205
-0.638096
-0.682778
-0.247965
-0.249433
-0.257988
-0.273211
-0.293894
-0.319362
-0.349001
-0.382254
-0.418486
-0.457141
-0.497776
-0.539905
-0.583173
-0.628863
-0.672505
-0.24787
-0.248758
-0.256632
-0.271499
-0.291743
-0.316478
-0.345125
-0.377209
-0.412184
-0.449544
-0.488996
-0.5302
-0.572175
-0.617612
-0.660216
-0.247591
-0.247123
-0.253961
-0.268317
-0.287997
-0.311901
-0.339474
-0.370306
-0.403952
-0.439944
-0.47807
-0.51851
-0.559043
-0.604295
-0.645907
-0.247024
-0.244462
-0.250239
-0.263918
-0.282836
-0.305774
-0.332167
-0.361622
-0.393826
-0.428396
-0.464932
-0.504789
-0.543776
-0.588902
-0.629581
-0.245773
-0.240749
-0.245844
-0.258581
-0.276452
-0.29826
-0.323348
-0.351264
-0.381828
-0.414985
-0.449554
-0.488972
-0.526357
-0.571436
-0.611343
-0.243524
-0.236458
-0.241237
-0.252583
-0.269078
-0.289567
-0.313185
-0.339384
-0.367965
-0.399771
-0.431977
-0.470974
-0.50676
-0.551766
-0.591354
-0.240271
-0.23266
-0.236799
-0.246219
-0.26102
-0.279965
-0.301866
-0.326181
-0.352275
-0.382751
-0.412313
-0.450721
-0.485073
-0.529699
-0.569551
-0.236513
-0.230161
-0.232671
-0.239854
-0.252703
-0.269813
-0.289599
-0.311879
-0.334893
-0.363844
-0.39071
-0.428049
-0.461598
-0.505265
-0.545829
-0.23292
-0.228772
-0.228915
-0.233995
-0.244636
-0.259564
-0.276658
-0.296659
-0.316121
-0.34294
-0.367422
-0.402631
-0.436483
-0.478631
-0.520393
-0.23003
-0.227715
-0.225899
-0.229249
-0.23736
-0.249748
-0.263455
-0.280681
-0.296359
-0.319968
-0.342871
-0.374391
-0.409652
-0.449601
-0.494204
-0.227945
-0.226575
-0.224165
-0.225972
-0.231353
-0.240929
-0.250598
-0.264133
-0.276166
-0.294922
-0.317409
-0.343582
-0.381452
-0.416837
-0.467775
-0.226545
-0.22547
-0.22361
-0.224083
-0.227007
-0.23359
-0.238925
-0.247401
-0.256038
-0.268348
-0.291095
-0.311136
-0.351668
-0.38195
-0.434382
-0.225623
-0.224691
-0.223546
-0.223341
-0.224559
-0.228113
-0.229199
-0.231393
-0.236412
-0.241366
-0.263961
-0.279117
-0.319766
-0.349347
-0.399587
-0.224981
-0.224243
-0.223644
-0.223516
-0.223907
-0.224687
-0.221981
-0.2171
-0.217998
-0.215655
-0.236628
-0.249098
-0.291579
-0.318923
-0.371383
-0.22445
-0.223983
-0.22391
-0.224281
-0.22452
-0.223212
-0.217228
-0.206096
-0.201055
-0.1941
-0.208701
-0.223751
-0.262698
-0.294502
-0.349283
-0.223871
-0.223748
-0.224264
-0.225266
-0.225673
-0.223219
-0.21438
-0.199181
-0.186573
-0.177476
-0.184095
-0.202574
-0.23607
-0.275681
-0.326717
-0.223109
-0.223383
-0.224494
-0.226114
-0.226771
-0.223959
-0.213002
-0.195787
-0.176591
-0.165408
-0.168056
-0.187063
-0.217197
-0.261703
-0.30516
-0.222076
-0.222759
-0.224369
-0.226517
-0.227435
-0.224713
-0.212786
-0.194727
-0.171689
-0.158266
-0.159489
-0.17847
-0.20589
-0.249506
-0.290227
-0.220752
-0.22181
-0.223773
-0.226296
-0.227495
-0.225006
-0.213469
-0.195301
-0.171592
-0.157055
-0.156965
-0.175003
-0.200645
-0.239901
-0.279751
-0.219202
-0.220542
-0.222661
-0.225399
-0.226865
-0.224929
-0.215092
-0.197792
-0.175632
-0.161242
-0.159665
-0.175178
-0.199493
-0.233834
-0.271523
-0.217599
-0.219096
-0.221167
-0.223776
-0.225705
-0.225084
-0.218651
-0.203875
-0.182954
-0.169324
-0.166422
-0.178557
-0.20078
-0.230499
-0.264608
-0.216198
-0.217737
-0.219653
-0.222272
-0.224703
-0.226117
-0.224723
-0.213431
-0.192851
-0.179101
-0.175111
-0.184112
-0.203185
-0.228648
-0.258664
-0.21525
-0.216759
-0.218552
-0.22123
-0.22439
-0.228127
-0.232138
-0.222931
-0.203507
-0.188786
-0.183849
-0.190183
-0.205922
-0.227463
-0.253353
-0.214887
-0.216327
-0.218056
-0.220848
-0.224771
-0.230707
-0.237309
-0.230835
-0.212443
-0.197422
-0.191628
-0.195808
-0.208475
-0.226369
-0.248434
-0.21508
-0.216408
-0.218103
-0.220959
-0.225263
-0.233229
-0.238018
-0.2352
-0.218829
-0.204406
-0.198059
-0.200462
-0.210447
-0.225097
-0.243767
-0.215673
-0.216828
-0.218431
-0.221138
-0.225313
-0.23417
-0.236971
-0.235673
-0.222422
-0.209502
-0.202996
-0.203978
-0.211693
-0.223507
-0.239195
-0.216468
-0.217377
-0.218752
-0.220943
-0.225097
-0.230974
-0.235229
-0.233941
-0.223663
-0.212731
-0.206454
-0.20637
-0.212151
-0.221524
-0.234654
-0.217298
-0.2179
-0.218884
-0.220188
-0.224577
-0.226173
-0.232379
-0.231205
-0.223226
-0.214296
-0.208521
-0.207699
-0.211856
-0.219155
-0.230077
-0.218069
-0.218331
-0.218719
-0.219304
-0.222555
-0.223047
-0.228621
-0.227875
-0.221733
-0.214534
-0.209358
-0.208067
-0.210863
-0.216401
-0.22542
-0.218763
-0.218705
-0.218313
-0.218981
-0.217899
-0.221513
-0.225124
-0.224403
-0.219611
-0.213766
-0.209155
-0.207568
-0.209238
-0.213304
-0.220667
-0.219414
-0.219065
-0.217888
-0.219334
-0.213731
-0.219677
-0.222108
-0.221099
-0.217149
-0.21227
-0.208115
-0.206317
-0.207051
-0.209888
-0.215789
-0.220117
-0.219412
-0.218195
-0.218414
-0.213767
-0.217825
-0.219363
-0.218062
-0.214542
-0.21026
-0.206408
-0.204418
-0.204362
-0.20618
-0.210782
-0.220987
-0.219775
-0.219903
-0.215122
-0.215766
-0.216856
-0.216977
-0.215246
-0.211865
-0.207882
-0.20418
-0.201976
-0.201239
-0.2022
-0.205625
-0.22206
-0.220367
-0.222511
-0.212258
-0.216326
-0.216265
-0.215021
-0.212655
-0.209161
-0.205239
-0.201539
-0.199077
-0.197738
-0.197964
-0.200315
-0.223309
-0.221724
-0.223897
-0.21424
-0.216317
-0.215595
-0.213348
-0.210245
-0.206434
-0.202385
-0.198567
-0.195802
-0.193913
-0.193492
-0.194842
-0.224757
-0.224495
-0.223032
-0.219945
-0.217557
-0.215005
-0.211758
-0.207929
-0.20368
-0.199361
-0.195319
-0.192206
-0.189805
-0.188796
-0.189213
-0.226365
-0.228673
-0.220431
-0.223706
-0.219344
-0.214711
-0.210263
-0.205654
-0.200876
-0.196181
-0.191832
-0.188333
-0.185448
-0.183895
-0.183445
-0.228215
-0.233027
-0.219119
-0.224306
-0.220388
-0.214556
-0.208892
-0.203402
-0.19801
-0.192855
-0.188129
-0.184212
-0.180862
-0.178796
-0.177558
-0.230621
-0.236074
-0.222414
-0.224135
-0.220524
-0.214197
-0.207551
-0.201154
-0.195068
-0.189379
-0.184221
-0.179861
-0.176061
-0.173513
-0.171577
-0.233952
-0.237191
-0.229631
-0.225588
-0.220404
-0.21352
-0.206092
-0.198844
-0.192026
-0.185749
-0.180111
-0.175289
-0.171053
-0.168054
-0.165517
-0.238543
-0.236681
-0.236814
-0.228855
-0.2208
-0.212683
-0.204432
-0.196388
-0.18884
-0.181944
-0.175794
-0.170498
-0.165842
-0.162426
-0.159382
-0.244858
-0.235583
-0.242069
-0.232624
-0.221822
-0.211909
-0.202587
-0.193724
-0.185456
-0.177937
-0.171259
-0.165487
-0.160428
-0.156631
-0.153158
-0.252829
-0.237344
-0.24531
-0.235908
-0.223084
-0.211237
-0.200599
-0.190823
-0.18183
-0.173693
-0.166488
-0.160246
-0.154806
-0.150661
-0.14682
-0.262087
-0.243921
-0.247778
-0.238244
-0.22408
-0.210509
-0.198457
-0.187673
-0.177926
-0.169178
-0.161458
-0.154764
-0.148966
-0.144502
-0.140333
-0.271719
-0.25481
-0.250865
-0.239658
-0.224432
-0.209468
-0.196081
-0.184252
-0.173723
-0.164367
-0.156146
-0.149022
-0.142891
-0.138136
-0.133675
-0.280324
-0.267012
-0.255003
-0.240485
-0.223994
-0.207895
-0.193349
-0.180513
-0.1692
-0.159237
-0.150531
-0.143001
-0.136563
-0.131545
-0.126834
-0.286675
-0.277224
-0.259404
-0.240985
-0.222818
-0.205677
-0.190148
-0.176399
-0.164328
-0.153771
-0.144593
-0.136678
-0.129955
-0.124709
-0.119804
-0.290145
-0.283942
-0.262737
-0.241057
-0.221024
-0.202807
-0.186409
-0.171852
-0.159078
-0.147951
-0.138318
-0.130033
-0.123042
-0.117602
-0.112569
-0.291162
-0.287314
-0.264453
-0.240457
-0.218672
-0.199335
-0.182109
-0.166829
-0.153415
-0.141755
-0.131688
-0.123051
-0.115804
-0.110192
-0.105082
-0.290972
-0.288234
-0.264565
-0.239013
-0.215742
-0.195292
-0.177252
-0.161303
-0.147312
-0.135163
-0.124691
-0.115723
-0.108234
-0.102454
-0.097249
-0.290555
-0.287641
-0.26331
-0.236666
-0.21218
-0.190683
-0.17184
-0.155261
-0.140745
-0.128153
-0.11731
-0.108042
-0.10034
-0.0943917
-0.0889413
-0.290459
-0.286226
-0.26097
-0.233434
-0.207937
-0.185484
-0.165868
-0.14869
-0.133694
-0.120705
-0.10953
-0.100002
-0.092136
-0.0860546
-0.0800396
-0.29082
-0.284347
-0.257765
-0.229358
-0.202975
-0.179661
-0.159318
-0.141576
-0.126144
-0.112805
-0.101339
-0.0915984
-0.0836335
-0.0775064
-0.0705367
-0.291483
-0.282159
-0.253844
-0.224479
-0.197265
-0.173171
-0.15216
-0.1339
-0.118079
-0.104441
-0.0927382
-0.0828404
-0.0748409
-0.0687399
-0.0606474
-0.292104
-0.279682
-0.24927
-0.218809
-0.190777
-0.165972
-0.14436
-0.125639
-0.109488
-0.0956115
-0.0837382
-0.0737549
-0.0657889
-0.0596026
-0.0507885
-0.292261
-0.276805
-0.24403
-0.212334
-0.183475
-0.15802
-0.135883
-0.116777
-0.100366
-0.0863186
-0.0743584
-0.0643749
-0.0565257
-0.0499389
-0.0410506
-0.291587
-0.273208
-0.238021
-0.205006
-0.175318
-0.149277
-0.126707
-0.107309
-0.0907206
-0.076574
-0.0646118
-0.0547141
-0.0469452
-0.039884
-0.0313417
-0.289755
-0.268527
-0.231093
-0.196758
-0.166266
-0.139719
-0.116826
-0.0972434
-0.0805638
-0.0663977
-0.0544776
-0.0447347
-0.036989
-0.0295863
-0.0215722
-0.286477
-0.262502
-0.223083
-0.187513
-0.156285
-0.12934
-0.106254
-0.0865924
-0.0698867
-0.0557595
-0.0439638
-0.0344068
-0.0266576
-0.019126
-0.0116959
-0.281525
-0.25495
-0.213848
-0.177205
-0.145357
-0.118161
-0.0950091
-0.075327
-0.0586675
-0.0446626
-0.0330695
-0.0237215
-0.0159938
-0.00851669
-0.00170118
-0.274731
-0.245755
-0.203269
-0.165786
-0.133499
-0.106208
-0.0830427
-0.0634295
-0.0469089
-0.0331167
-0.0217958
-0.0126871
-0.00504559
0.00225896
0.00841201
-0.26599
-0.23487
-0.19124
-0.15324
-0.120751
-0.0934212
-0.0703409
-0.0509026
-0.0346219
-0.0211335
-0.0101508
-0.00132007
0.00616653
0.0132143
0.0186431
-0.255252
-0.222318
-0.177682
-0.139573
-0.107065
-0.0797897
-0.0569099
-0.0377575
-0.0218215
-0.00872825
0.00185143
0.010363
0.0176359
0.0243572
0.0289814
-0.242509
-0.208173
-0.162604
-0.124739
-0.0923921
-0.0653261
-0.0427676
-0.0240129
-0.00852635
0.00408231
0.0141963
0.0223477
0.0293525
0.0356746
0.0393921
-0.227785
-0.192464
-0.14619
-0.108612
-0.076715
-0.0500495
-0.0279399
-0.0096932
0.00524179
0.0172815
0.0268734
0.0346238
0.0412898
0.0471044
0.0498226
-0.211142
-0.175066
-0.128533
-0.0912972
-0.0600545
-0.0339834
-0.0124575
0.00517164
0.0194587
0.030855
0.0398787
0.0471836
0.0534027
0.0585261
0.0601748
-0.192694
-0.155717
-0.109796
-0.0729406
-0.0424684
-0.0171596
0.00364537
0.0205481
0.0340985
0.0447902
0.0532114
0.0600163
0.0656349
0.0697833
0.0701724
-0.172586
-0.134435
-0.0899498
-0.0536637
-0.0240385
0.000376066
0.0203299
0.0364003
0.0491343
0.0590736
0.0668629
0.0730925
0.0779166
0.0807074
0.079324
-0.150906
-0.11154
-0.0689075
-0.0335358
-0.00485029
0.0185649
0.0375514
0.0526901
0.064538
0.0736851
0.080804
0.0863494
0.0901484
0.0911588
0.0874623
-0.12761
-0.0875124
-0.0467221
-0.0125905
0.0150211
0.0373406
0.0552583
0.0693775
0.0802788
0.0885938
0.0949759
0.0996862
0.102217
0.101228
0.0955652
-0.102679
-0.0627257
-0.0235498
0.00913276
0.0355108
0.0566345
0.0733945
0.0864186
0.0963204
0.103754
0.109298
0.112994
0.114078
0.111437
0.105624
-0.0763516
-0.0371834
0.000447061
0.0315578
0.0565528
0.0763779
0.0919002
0.103765
0.112618
0.119107
0.123695
0.126219
0.125835
0.122077
0.119417
-0.0488499
-0.0108863
0.0251333
0.0545824
0.0780723
0.0965013
0.110713
0.121363
0.129116
0.134588
0.138111
0.139389
0.137708
0.133423
0.13288
-0.0203844
0.0161011
0.0503922
0.0780965
0.0999847
0.116932
0.129769
0.139154
0.145754
0.150135
0.152517
0.152568
0.149839
0.145432
0.145656
0.00885996
0.0436735
0.0761118
0.10199
0.122199
0.137594
0.148999
0.157072
0.162469
0.165696
0.1669
0.165785
0.162169
0.157665
0.157818
0.0387039
0.0716984
0.102177
0.126156
0.144621
0.158406
0.168333
0.175053
0.179199
0.181229
0.181251
0.179044
0.174661
0.169945
0.169528
0.0689776
0.100035
0.128469
0.150486
0.167155
0.179286
0.187696
0.193027
0.195888
0.196693
0.195542
0.192287
0.187155
0.182072
0.180938
0.0995127
0.128539
0.154864
0.174871
0.189706
0.200149
0.207014
0.210929
0.212479
0.21205
0.209744
0.205481
0.199602
0.19401
0.192074
0.130146
0.157067
0.181239
0.199204
0.212176
0.22091
0.22621
0.228691
0.228916
0.22725
0.2238
0.218538
0.21189
0.205725
0.202973
0.160716
0.185479
0.20747
0.223376
0.234471
0.241483
0.245209
0.246247
0.245145
0.242249
0.237672
0.231426
0.22399
0.217184
0.213603
0.191066
0.213636
0.233436
0.24728
0.256494
0.261785
0.263936
0.263532
0.261106
0.256987
0.251293
0.244069
0.235844
0.228386
0.223958
0.221041
0.241405
0.259016
0.27081
0.278153
0.281731
0.282316
0.280482
0.276744
0.271419
0.264627
0.256437
0.247415
0.239273
0.233999
0.250494
0.268654
0.284096
0.293863
0.299355
0.301239
0.300278
0.29703
0.291997
0.285484
0.277609
0.268473
0.258674
0.249846
0.243706
0.27928
0.295258
0.308561
0.316337
0.32001
0.320231
0.31775
0.313116
0.306815
0.299138
0.290206
0.280142
0.269569
0.260046
0.253045
0.307261
0.321095
0.332304
0.338136
0.340032
0.338628
0.334664
0.328676
0.321135
0.312323
0.302364
0.291406
0.280084
0.269863
0.261991
0.334303
0.346049
0.35522
0.359166
0.359337
0.356357
0.350953
0.343652
0.33491
0.324998
0.314044
0.302219
0.290167
0.279254
0.270519
0.36028
0.370007
0.377209
0.379338
0.377845
0.373344
0.366553
0.357985
0.348084
0.337113
0.325207
0.312555
0.299798
0.288195
0.278604
0.385071
0.392865
0.398176
0.398566
0.395479
0.389523
0.381403
0.371621
0.360611
0.348626
0.335809
0.322369
0.308938
0.296659
0.286225
0.408563
0.414521
0.418032
0.416769
0.412168
0.404827
0.395443
0.384509
0.372444
0.359497
0.34582
0.331636
0.317557
0.304618
0.293362
0.430649
0.434884
0.436693
0.433873
0.427843
0.419198
0.408622
0.396598
0.383537
0.369684
0.3552
0.340319
0.32563
0.31205
0.299997
0.45123
0.453864
0.45408
0.449807
0.442442
0.432576
0.420886
0.407845
0.393854
0.379155
0.363919
0.34839
0.333126
0.318931
0.306114
0.470213
0.471384
0.470123
0.464506
0.455906
0.444911
0.432189
0.418206
0.403353
0.387873
0.371946
0.355823
0.340022
0.325243
0.311699
0.487513
0.487371
0.484756
0.477912
0.468181
0.456153
0.442488
0.427643
0.412002
0.395809
0.379254
0.36259
0.346295
0.330967
0.316742
0.503054
0.501762
0.497922
0.489969
0.479219
0.466259
0.451744
0.43612
0.41977
0.402935
0.385817
0.368668
0.351925
0.336087
0.321231
0.516771
0.5145
0.509567
0.500629
0.488975
0.47519
0.45992
0.443608
0.426627
0.409226
0.391612
0.374037
0.356892
0.34059
0.32516
0.528624
0.525522
0.519643
0.509849
0.497411
0.48291
0.466986
0.450076
0.432551
0.414659
0.396619
0.378677
0.36118
0.344464
0.328524
0.538578
0.534772
0.528104
0.51759
0.504493
0.489389
0.472916
0.455504
0.43752
0.419217
0.40082
0.38257
0.364775
0.347699
0.331321
0.546594
0.542213
0.534914
0.52382
0.510192
0.494603
0.477687
0.459869
0.441516
0.422882
0.4042
0.385704
0.367664
0.350289
0.333551
0.552639
0.547818
0.540046
0.528515
0.514486
0.498532
0.481281
0.463158
0.444525
0.425642
0.406746
0.388064
0.369838
0.352232
0.335218
0.556685
0.551567
0.543478
0.531656
0.517359
0.50116
0.483685
0.465357
0.446538
0.427489
0.408449
0.389644
0.371291
0.353526
0.336326
0.558714
0.553447
0.545199
0.533231
0.5188
0.502477
0.48489
0.46646
0.447547
0.428414
0.409303
0.390436
0.372019
0.354173
0.336879
0.558718
0.553449
0.545202
0.533233
0.518802
0.502479
0.484892
0.466461
0.447548
0.428415
0.409304
0.390437
0.37202
0.354175
0.33688
0.556695
0.551576
0.543486
0.531663
0.517366
0.501166
0.483691
0.465362
0.446543
0.427493
0.408453
0.389648
0.371295
0.35353
0.336329
0.552655
0.547833
0.540059
0.528527
0.514497
0.498542
0.48129
0.463166
0.444533
0.42565
0.406752
0.388071
0.369844
0.352237
0.335223
0.546616
0.542233
0.534933
0.523837
0.510207
0.494617
0.4777
0.459881
0.441527
0.422892
0.404209
0.385712
0.367672
0.350297
0.333558
0.538605
0.534798
0.528128
0.517611
0.504512
0.489407
0.472932
0.455519
0.437534
0.41923
0.400832
0.382582
0.364785
0.347709
0.33133
0.528658
0.525553
0.519672
0.509875
0.497435
0.482931
0.467006
0.450095
0.432568
0.414675
0.396634
0.37869
0.361193
0.344476
0.328535
0.516811
0.514537
0.509601
0.50066
0.489003
0.475216
0.459943
0.443629
0.426647
0.409244
0.39163
0.374053
0.356907
0.340604
0.325173
0.5031
0.501805
0.49796
0.490004
0.479251
0.466289
0.451771
0.436145
0.419793
0.402957
0.385837
0.368687
0.351942
0.336104
0.321246
0.487565
0.487419
0.484799
0.477951
0.468218
0.456187
0.442519
0.427671
0.412028
0.395833
0.379276
0.362611
0.346315
0.330985
0.316759
0.470271
0.471437
0.470171
0.464551
0.455947
0.444948
0.432224
0.418237
0.403382
0.3879
0.371971
0.355846
0.340044
0.325264
0.311718
0.451294
0.453923
0.454133
0.449856
0.442487
0.432617
0.420924
0.40788
0.393886
0.379184
0.363947
0.348416
0.33315
0.318954
0.306135
0.430719
0.434947
0.436751
0.433926
0.427892
0.419242
0.408663
0.396636
0.383572
0.369716
0.35523
0.340347
0.325656
0.312074
0.30002
0.408638
0.41459
0.418095
0.416826
0.41222
0.404875
0.395488
0.384549
0.372481
0.359532
0.345853
0.331666
0.317586
0.304644
0.293387
0.385152
0.392938
0.398243
0.398627
0.395535
0.389574
0.38145
0.371665
0.360652
0.348663
0.335844
0.322402
0.308968
0.296688
0.286252
0.360366
0.370086
0.377281
0.379403
0.377905
0.373399
0.366603
0.358031
0.348127
0.337153
0.325244
0.31259
0.299831
0.288226
0.278633
0.334394
0.346132
0.355296
0.359236
0.3594
0.356415
0.351007
0.343702
0.334956
0.32504
0.314084
0.302256
0.290202
0.279287
0.27055
0.307357
0.321183
0.332384
0.33821
0.340099
0.33869
0.334721
0.328728
0.321184
0.312368
0.302406
0.291445
0.280121
0.269898
0.262023
0.279381
0.295351
0.308646
0.316414
0.32008
0.320296
0.31781
0.313171
0.306866
0.299185
0.29025
0.280183
0.269608
0.260083
0.253079
0.2506
0.268751
0.284184
0.293944
0.299428
0.301307
0.30034
0.297088
0.292051
0.285533
0.277655
0.268517
0.258714
0.249884
0.243741
0.221152
0.241505
0.259108
0.270894
0.27823
0.281801
0.282381
0.280542
0.276799
0.271471
0.264675
0.256482
0.247457
0.239313
0.234037
0.19118
0.213741
0.233531
0.247368
0.256574
0.261858
0.264003
0.263595
0.261164
0.257041
0.251343
0.244116
0.235889
0.228428
0.223997
0.160835
0.185587
0.207569
0.223467
0.234553
0.24156
0.245279
0.246312
0.245205
0.242305
0.237725
0.231475
0.224036
0.217228
0.213643
0.130268
0.157179
0.181341
0.199298
0.212262
0.220989
0.226283
0.228758
0.228979
0.227309
0.223854
0.218589
0.211938
0.20577
0.203016
0.0996387
0.128654
0.154969
0.174967
0.189794
0.20023
0.207089
0.210998
0.212544
0.21211
0.2098
0.205534
0.199652
0.194057
0.192118
0.0691067
0.100153
0.128577
0.150584
0.167246
0.179369
0.187774
0.193099
0.195955
0.196755
0.1956
0.192342
0.187206
0.18212
0.180983
0.038836
0.0718194
0.102288
0.126257
0.144714
0.158492
0.168412
0.175126
0.179268
0.181292
0.18131
0.1791
0.174714
0.169995
0.169575
0.00899475
0.0437972
0.0762249
0.102094
0.122294
0.137681
0.14908
0.157148
0.162539
0.165761
0.166961
0.165842
0.162223
0.157716
0.157866
-0.0202473
0.016227
0.0505075
0.0782022
0.100082
0.117022
0.129852
0.139231
0.145826
0.150202
0.15258
0.152627
0.149895
0.145485
0.145706
-0.0487108
-0.0107583
0.0252506
0.05469
0.0781713
0.0965927
0.110798
0.121442
0.129189
0.134657
0.138175
0.139449
0.137765
0.133477
0.132932
-0.0762109
-0.0370535
0.00056616
0.0316671
0.0566534
0.0764709
0.0919865
0.103845
0.112692
0.119177
0.123761
0.126281
0.125893
0.122133
0.119471
-0.102537
-0.0625942
-0.0234292
0.00924342
0.0356128
0.0567289
0.0734822
0.0865002
0.0963966
0.103825
0.109365
0.113057
0.114138
0.111494
0.105681
-0.127467
-0.0873793
-0.0466004
-0.0124786
0.0151244
0.0374363
0.0553473
0.0694604
0.0803564
0.0886665
0.0950443
0.0997506
0.102278
0.101287
0.0956233
-0.150763
-0.111405
-0.0687849
-0.0334229
-0.00474587
0.0186618
0.0376414
0.0527742
0.0646167
0.0737591
0.0808736
0.0864151
0.0902107
0.0912186
0.0875208
-0.172443
-0.1343
-0.0898266
-0.0535499
-0.0239331
0.000473863
0.020421
0.0364854
0.0492141
0.0591486
0.0669337
0.0731594
0.0779799
0.0807681
0.0793826
-0.192551
-0.155583
-0.109673
-0.0728261
-0.0423624
-0.017061
0.00373733
0.0206342
0.0341793
0.0448663
0.0532832
0.0600842
0.0656992
0.0698447
0.0702313
-0.211
-0.174932
-0.128409
-0.0911824
-0.0599479
-0.0338841
-0.0123648
0.00525851
0.0195403
0.030932
0.0399515
0.0472525
0.053468
0.0585882
0.0602344
-0.227644
-0.192331
-0.146066
-0.108497
-0.0766081
-0.0499497
-0.0278466
-0.00960562
0.0053242
0.0173593
0.026947
0.0346936
0.041356
0.0471674
0.0498829
-0.242369
-0.20804
-0.162481
-0.124624
-0.092285
-0.065226
-0.0426738
-0.0239247
-0.00844325
0.00416085
0.0142707
0.0224184
0.0294196
0.0357384
0.039453
-0.255114
-0.222186
-0.177559
-0.139459
-0.106958
-0.0796894
-0.0568157
-0.0376689
-0.0217378
-0.00864906
0.00192656
0.0104344
0.0177038
0.0244219
0.0290431
-0.265854
-0.234739
-0.191118
-0.153126
-0.120644
-0.0933208
-0.0702464
-0.0508135
-0.0345377
-0.0210537
-0.010075
-0.00124791
0.00623528
0.0132798
0.0187056
-0.274597
-0.245626
-0.203148
-0.165672
-0.133392
-0.106108
-0.082948
-0.0633401
-0.0468242
-0.0330363
-0.0217194
-0.0126143
-0.00497604
0.00232534
0.00847525
-0.281394
-0.254823
-0.213728
-0.177092
-0.14525
-0.11806
-0.0949143
-0.0752373
-0.0585824
-0.0445818
-0.0329925
-0.023648
-0.0159235
-0.00844951
-0.0016372
-0.286349
-0.262377
-0.222964
-0.187401
-0.156179
-0.129239
-0.106159
-0.0865025
-0.0698014
-0.0556783
-0.0438863
-0.0343327
-0.0265866
-0.0190581
-0.0116312
-0.28963
-0.268405
-0.230975
-0.196647
-0.166161
-0.139618
-0.116731
-0.0971532
-0.0804782
-0.0663162
-0.0543994
-0.0446601
-0.0369174
-0.0295176
-0.0215068
-0.291465
-0.273087
-0.237906
-0.204896
-0.175213
-0.149177
-0.126612
-0.107218
-0.0906347
-0.0764922
-0.0645331
-0.054639
-0.046873
-0.0398146
-0.0312756
-0.292141
-0.276686
-0.243915
-0.212224
-0.183371
-0.157921
-0.135789
-0.116687
-0.10028
-0.0862362
-0.0742795
-0.0642993
-0.0564529
-0.0498689
-0.0409838
-0.291987
-0.279565
-0.249157
-0.2187
-0.190673
-0.165873
-0.144265
-0.125549
-0.109401
-0.0955288
-0.083659
-0.0736788
-0.0657156
-0.0595321
-0.0507208
-0.291369
-0.282043
-0.253731
-0.22437
-0.197161
-0.173072
-0.152066
-0.133809
-0.117993
-0.104358
-0.0926586
-0.082764
-0.0747673
-0.0686688
-0.0605788
-0.290708
-0.284232
-0.257653
-0.22925
-0.202872
-0.179562
-0.159224
-0.141486
-0.126057
-0.112722
-0.101259
-0.0915216
-0.0835594
-0.0774347
-0.0704671
-0.290347
-0.286111
-0.260858
-0.233327
-0.207834
-0.185386
-0.165774
-0.1486
-0.133607
-0.120622
-0.109449
-0.0999247
-0.0920615
-0.0859823
-0.0799694
-0.290444
-0.287527
-0.263199
-0.23656
-0.212078
-0.190585
-0.171746
-0.155171
-0.140658
-0.128069
-0.117229
-0.107964
-0.100265
-0.094319
-0.0888707
-0.29086
-0.28812
-0.264455
-0.238907
-0.215641
-0.195195
-0.177158
-0.161213
-0.147225
-0.135079
-0.12461
-0.115645
-0.108159
-0.10238
-0.0971781
-0.29105
-0.287201
-0.264344
-0.240352
-0.218571
-0.199237
-0.182016
-0.166739
-0.153328
-0.141671
-0.131607
-0.122973
-0.115729
-0.110118
-0.10501
-0.290033
-0.28383
-0.26263
-0.240954
-0.220924
-0.202711
-0.186315
-0.171762
-0.158991
-0.147867
-0.138236
-0.129955
-0.122966
-0.117528
-0.112498
-0.286564
-0.277115
-0.259299
-0.240883
-0.222718
-0.20558
-0.190055
-0.176309
-0.164241
-0.153687
-0.144512
-0.136599
-0.129878
-0.124635
-0.119733
-0.280216
-0.266909
-0.2549
-0.240383
-0.223895
-0.207799
-0.193256
-0.180423
-0.169113
-0.159153
-0.150449
-0.142922
-0.136486
-0.131471
-0.126761
-0.271615
-0.254712
-0.250763
-0.239557
-0.224334
-0.209372
-0.195988
-0.184162
-0.173636
-0.164282
-0.156064
-0.148943
-0.142814
-0.138061
-0.133602
-0.261985
-0.243826
-0.247677
-0.238143
-0.223982
-0.210414
-0.198365
-0.187584
-0.177839
-0.169094
-0.161376
-0.154684
-0.148889
-0.144427
-0.140261
-0.25273
-0.237249
-0.245209
-0.235809
-0.222987
-0.211143
-0.200507
-0.190734
-0.181742
-0.173608
-0.166406
-0.160166
-0.154729
-0.150586
-0.146746
-0.244761
-0.235487
-0.24197
-0.232526
-0.221726
-0.211815
-0.202495
-0.193634
-0.185369
-0.177852
-0.171177
-0.165407
-0.160351
-0.156555
-0.153085
-0.238447
-0.236583
-0.236717
-0.228759
-0.220705
-0.212589
-0.20434
-0.196299
-0.188752
-0.181859
-0.175711
-0.170418
-0.165765
-0.162351
-0.159309
-0.233857
-0.237093
-0.229537
-0.225493
-0.220309
-0.213426
-0.206
-0.198754
-0.191938
-0.185663
-0.180028
-0.175208
-0.170975
-0.167978
-0.165444
-0.230526
-0.235976
-0.222323
-0.224039
-0.220429
-0.214104
-0.207459
-0.201064
-0.19498
-0.189294
-0.184138
-0.17978
-0.175983
-0.173438
-0.171503
-0.228121
-0.23293
-0.219028
-0.22421
-0.220293
-0.214463
-0.2088
-0.203312
-0.197922
-0.192769
-0.188046
-0.184132
-0.180784
-0.178721
-0.177484
-0.226272
-0.228579
-0.220338
-0.223611
-0.219251
-0.214619
-0.210172
-0.205563
-0.200788
-0.196095
-0.191748
-0.188252
-0.18537
-0.183819
-0.183372
-0.224664
-0.224402
-0.222938
-0.219853
-0.217465
-0.214913
-0.211667
-0.207839
-0.20359
-0.199273
-0.195235
-0.192125
-0.189727
-0.188721
-0.18914
-0.223217
-0.221632
-0.223803
-0.214152
-0.216226
-0.215503
-0.213256
-0.210154
-0.206344
-0.202297
-0.198482
-0.195721
-0.193835
-0.193417
-0.194769
-0.221968
-0.220275
-0.222419
-0.21217
-0.216237
-0.216174
-0.21493
-0.212562
-0.209069
-0.205149
-0.201454
-0.198996
-0.19766
-0.19789
-0.200242
-0.220895
-0.219684
-0.219813
-0.215033
-0.215679
-0.216766
-0.216885
-0.215152
-0.211771
-0.207792
-0.204094
-0.201895
-0.201163
-0.202127
-0.205554
-0.220026
-0.219322
-0.218106
-0.218325
-0.213682
-0.217737
-0.21927
-0.217966
-0.214446
-0.210167
-0.206321
-0.204337
-0.204286
-0.206108
-0.210711
-0.219324
-0.218975
-0.217799
-0.219246
-0.213648
-0.219589
-0.222013
-0.221
-0.21705
-0.212176
-0.208028
-0.206237
-0.206976
-0.209817
-0.215719
-0.218672
-0.218615
-0.218224
-0.218893
-0.217813
-0.221424
-0.225026
-0.2243
-0.219508
-0.21367
-0.209068
-0.207489
-0.209165
-0.213235
-0.220599
-0.21798
-0.218241
-0.21863
-0.219215
-0.222466
-0.222958
-0.228519
-0.227765
-0.221626
-0.214436
-0.209271
-0.20799
-0.210793
-0.216335
-0.225354
-0.217209
-0.217811
-0.218794
-0.220098
-0.224486
-0.22608
-0.232271
-0.231089
-0.223114
-0.214196
-0.208435
-0.207625
-0.211789
-0.219091
-0.230013
-0.216379
-0.217289
-0.218662
-0.220851
-0.225003
-0.230873
-0.235113
-0.233816
-0.223545
-0.21263
-0.206371
-0.2063
-0.212089
-0.221464
-0.234593
-0.215586
-0.21674
-0.218341
-0.221045
-0.225216
-0.234059
-0.236847
-0.235539
-0.2223
-0.209401
-0.202916
-0.203914
-0.211636
-0.223452
-0.239137
-0.214994
-0.216321
-0.218014
-0.220865
-0.225163
-0.233113
-0.237884
-0.235058
-0.218705
-0.204307
-0.197985
-0.200405
-0.210397
-0.225047
-0.243713
-0.214802
-0.21624
-0.217967
-0.220754
-0.224669
-0.230589
-0.237168
-0.230689
-0.21232
-0.197329
-0.191562
-0.195759
-0.208434
-0.226327
-0.248385
-0.215165
-0.216672
-0.218462
-0.221136
-0.224287
-0.228009
-0.231996
-0.22279
-0.20339
-0.188702
-0.183794
-0.190147
-0.205891
-0.227429
-0.253309
-0.216113
-0.217649
-0.219562
-0.222175
-0.224598
-0.225999
-0.224587
-0.213299
-0.192747
-0.17903
-0.175071
-0.184091
-0.203167
-0.228623
-0.258626
-0.217511
-0.219005
-0.221072
-0.223676
-0.225596
-0.224966
-0.218523
-0.203756
-0.182866
-0.16927
-0.166401
-0.178553
-0.200778
-0.230485
-0.264575
-0.219111
-0.220448
-0.222562
-0.225293
-0.226752
-0.224808
-0.214968
-0.197683
-0.175559