/*--------------------------------*- C++ -*----------------------------------*\
  =========                 |
  \\      /  F ield         | OpenFOAM: The Open Source CFD Toolbox
   \\    /   O peration     | Website:  https://openfoam.org
    \\  /    A nd           | Version:  7
     \\/     M anipulation  |
\*---------------------------------------------------------------------------*/
FoamFile
{
    version     2.0;
    format      ascii;
    class       surfaceScalarField;
    location    "21.0012";
    object      phi;
}
// * * * * * * * * * * * * * * * * * * * * * * * * * * * * * * * * * * * * * //

dimensions      [0 3 -1 0 0 0 0];

internalField   nonuniform List<scalar> 
37105
(
-1.14456e-05
1.15221e-05
-7.64705e-08
-2.66565e-05
1.53209e-05
-1.10056e-07
-4.2433e-05
1.59027e-05
-1.26238e-07
-5.89487e-05
1.66592e-05
-1.43472e-07
-7.63066e-05
1.75186e-05
-1.60781e-07
-9.45735e-05
1.84445e-05
-1.77614e-07
-0.000113793
1.94127e-05
-1.93442e-07
-0.000133975
2.03897e-05
-2.07806e-07
-0.000155117
2.13631e-05
-2.20484e-07
-0.000177205
2.23196e-05
-2.31321e-07
-0.000200224
2.32588e-05
-2.40252e-07
-0.000224137
2.41595e-05
-2.47007e-07
-0.000248884
2.49984e-05
-2.51305e-07
-0.000274403
2.57724e-05
-2.53072e-07
2.65712e-05
-2.52563e-07
-0.000300722
-1.12668e-05
2.27889e-05
-2.63041e-05
3.03582e-05
-4.1908e-05
3.15066e-05
-5.8231e-05
3.29822e-05
-7.53704e-05
3.4658e-05
-9.33842e-05
3.64583e-05
-0.000112307
3.8335e-05
-0.000132138
4.02209e-05
-0.000152864
4.20897e-05
-0.000174458
4.39133e-05
-0.00019689
4.5691e-05
-0.000220117
4.73866e-05
-0.000244081
4.89615e-05
-0.000268717
5.04083e-05
5.18855e-05
-0.000294031
-1.09132e-05
3.37022e-05
-2.56079e-05
4.50529e-05
-4.08717e-05
4.67704e-05
-5.68166e-05
4.89272e-05
-7.35298e-05
5.13711e-05
-9.10526e-05
5.39812e-05
-0.000109403
5.66853e-05
-0.000128563
5.93814e-05
-0.000148501
6.20274e-05
-0.000169166
6.4578e-05
-0.000190508
6.70335e-05
-0.000212474
6.93525e-05
-0.000235009
7.14961e-05
-0.00025805
7.34493e-05
7.53972e-05
-0.000281561
-1.0392e-05
4.40941e-05
-2.45814e-05
5.92423e-05
-3.93456e-05
6.15347e-05
-5.474e-05
6.43216e-05
-7.08374e-05
6.74685e-05
-8.76571e-05
7.08008e-05
-0.000105196
7.42237e-05
-0.000123414
7.76002e-05
-0.000142258
8.08714e-05
-0.000161653
8.39732e-05
-0.00018153
8.69096e-05
-0.000201824
8.96467e-05
-0.00022249
9.21627e-05
-0.000243475
9.44343e-05
9.6632e-05
-0.00026471
-9.71588e-06
5.381e-05
-2.32438e-05
7.27702e-05
-3.73596e-05
7.56505e-05
-5.20487e-05
7.90107e-05
-6.73648e-05
8.27845e-05
-8.33015e-05
8.67375e-05
-9.98324e-05
9.07547e-05
-0.000116898
9.46655e-05
-0.000134422
9.83957e-05
-0.000152312
0.000101863
-0.000170481
0.000105079
-0.000188863
0.000108029
-0.00020743
0.000110729
-0.000226149
0.000113154
0.00011543
-0.000244948
-8.91696e-06
6.2727e-05
-2.16173e-05
8.54706e-05
-3.49489e-05
8.89821e-05
-4.87992e-05
9.2861e-05
-6.31956e-05
9.71809e-05
-7.81049e-05
0.000101647
-9.34786e-05
0.000106128
-0.000109238
0.000110425
-0.000125293
0.00011445
-0.000141537
0.000118107
-0.000157876
0.000121418
-0.000174251
0.000124404
-0.000190652
0.000127131
-0.000207088
0.000129589
0.000131853
-0.00022351
-7.96935e-06
7.06963e-05
-1.97136e-05
9.72149e-05
-3.21515e-05
0.00010142
-4.50534e-05
0.000105763
-5.84195e-05
0.000110547
-7.2192e-05
0.000115419
-8.63023e-05
0.000120239
-0.000100657
0.00012478
-0.000115157
0.00012895
-0.000129692
0.000132642
-0.000144171
0.000135897
-0.00015854
0.000138773
-0.000172819
0.00014141
-0.000187061
0.000143832
0.000146057
-0.000201266
-6.87407e-06
7.75704e-05
-1.75493e-05
0.00010789
-2.90067e-05
0.000112877
-4.08752e-05
0.000117631
-5.31275e-05
0.000122799
-6.56856e-05
0.000127977
-7.84646e-05
0.000133018
-9.13608e-05
0.000137676
-0.000104271
0.00014186
-0.00011709
0.000145461
-0.000129733
0.00014854
-0.000142161
0.000151201
-0.000154411
0.00015366
-0.000166581
0.000156002
0.000158197
-0.00017872
-5.65037e-06
8.32208e-05
-1.51483e-05
0.000117388
-2.55564e-05
0.000123285
-3.63281e-05
0.000128403
-4.74072e-05
0.000133878
-5.87015e-05
0.000139272
-7.01133e-05
0.000144429
-8.15318e-05
0.000149095
-9.28546e-05
0.000153183
-0.000103985
0.000156592
-0.000114852
0.000159407
-0.000125424
0.000161772
-0.000135748
0.000163983
-0.000145949
0.000166203
0.000168363
-0.000156116
-4.31101e-06
8.75318e-05
-1.25366e-05
0.000125614
-2.1844e-05
0.000132593
-3.14731e-05
0.000138032
-4.13407e-05
0.000143746
-5.13458e-05
0.000149277
-6.13799e-05
0.000154463
-7.13276e-05
0.000159042
-8.10888e-05
0.000162944
-9.05788e-05
0.000166082
-9.97392e-05
0.000168567
-0.000108544
0.000170577
-0.000117031
0.000172471
-0.000125327
0.000174499
0.000176585
-0.000133549
-2.86157e-06
9.03934e-05
-9.74394e-06
0.000132496
-1.79114e-05
0.00014076
-2.63669e-05
0.000146488
-3.50035e-05
0.000152383
-4.37133e-05
0.000157987
-5.23782e-05
0.000163128
-6.08799e-05
0.000167544
-6.91208e-05
0.000171185
-7.70258e-05
0.000173987
-8.45492e-05
0.000176091
-9.16671e-05
0.000177695
-9.83918e-05
0.000179195
-0.000104807
0.000180915
0.000182846
-0.000111068
-1.29043e-06
9.16838e-05
-6.81064e-06
0.000138016
-1.37985e-05
0.000147748
-2.10613e-05
0.00015375
-2.84634e-05
0.000159785
-3.58876e-05
0.000165411
-4.3206e-05
0.000170447
-5.02985e-05
0.000174636
-5.70687e-05
0.000177956
-6.34465e-05
0.000180364
-6.93942e-05
0.000182039
-7.48914e-05
0.000183192
-7.99158e-05
0.00018422
-8.44664e-05
0.000185465
0.000187104
-8.87237e-05
3.67527e-07
9.13163e-05
-3.78363e-06
0.000142167
-9.53368e-06
0.000153498
-1.5603e-05
0.00015982
-2.17822e-05
0.000165964
-2.79419e-05
0.000171571
-3.39458e-05
0.000176451
-3.96729e-05
0.000180363
-4.5026e-05
0.000183309
-4.99347e-05
0.000185273
-5.43599e-05
0.000186464
-5.82852e-05
0.000187117
-6.16735e-05
0.000187608
-6.43949e-05
0.000188187
0.000189251
-6.65428e-05
1.85254e-06
8.94637e-05
-7.17699e-07
0.000144738
-5.15152e-06
0.000157932
-1.00391e-05
0.000164707
-1.50143e-05
0.000170939
-1.99405e-05
0.000176497
-2.46683e-05
0.000181179
-2.90782e-05
0.000184773
-3.30689e-05
0.0001873
-3.65656e-05
0.00018877
-3.95163e-05
0.000189415
-4.1898e-05
0.000189499
-4.3701e-05
0.000189411
-4.47337e-05
0.00018922
0.000188958
-4.44403e-05
3.45177e-06
8.6012e-05
2.53599e-06
0.000145653
-7.19745e-07
0.000161188
-4.4143e-06
0.000168402
-8.21363e-06
0.000174738
-1.19404e-05
0.000180224
-1.54347e-05
0.000184673
-1.85776e-05
0.000187916
-2.12586e-05
0.00018998
-2.33981e-05
0.000190909
-2.49254e-05
0.000190942
-2.57844e-05
0.000190358
-2.59683e-05
0.000189595
-2.54474e-05
0.000188699
0.000186621
-2.31107e-05
5.07823e-06
8.09337e-05
5.82722e-06
0.000144904
3.88871e-06
0.000163126
1.24468e-06
0.000171046
-1.45182e-06
0.000177435
-4.00047e-06
0.000182772
-6.30701e-06
0.00018698
-8.23091e-06
0.00018984
-9.65308e-06
0.000191403
-1.04834e-05
0.000191739
-1.06358e-05
0.000191094
-1.00177e-05
0.00018974
-8.563e-06
0.00018814
-6.20459e-06
0.00018634
0.000183242
-2.82488e-06
6.66944e-06
7.42643e-05
9.11735e-06
0.000142456
8.48952e-06
0.000163754
6.99041e-06
0.000172545
5.3834e-06
0.000179042
3.89723e-06
0.000184258
2.69002e-06
0.000188187
1.91073e-06
0.000190619
1.68482e-06
0.000191629
2.126e-06
0.000191298
3.31803e-06
0.000189902
5.36915e-06
0.000187688
8.35946e-06
0.00018515
1.23321e-05
0.000182368
0.000177928
1.76457e-05
8.16064e-06
6.61036e-05
1.23459e-05
0.000138271
1.3059e-05
0.000163041
1.26641e-05
0.00017294
1.21208e-05
0.000179585
1.17089e-05
0.00018467
1.15971e-05
0.000188299
1.19312e-05
0.000190285
1.28523e-05
0.000190707
1.44771e-05
0.000189674
1.69088e-05
0.00018747
2.03394e-05
0.000184258
2.49119e-05
0.000180577
3.03209e-05
0.000176959
0.000170746
3.7503e-05
9.46405e-06
5.66396e-05
1.54221e-05
0.000132313
1.75488e-05
0.000160914
1.82575e-05
0.000172231
1.8729e-05
0.000179114
1.93329e-05
0.000184066
2.02531e-05
0.000187378
2.16431e-05
0.000188895
2.36574e-05
0.000188693
2.64449e-05
0.000186886
3.00975e-05
0.000183818
3.48132e-05
0.000179542
4.09852e-05
0.000174405
4.7914e-05
0.00017003
0.00016196
5.67e-05
1.04516e-05
4.6188e-05
1.82293e-05
0.000124535
2.18871e-05
0.000157257
2.37299e-05
0.000170388
2.51817e-05
0.000177662
2.67495e-05
0.000182499
2.86514e-05
0.000185476
3.10471e-05
0.0001865
3.41007e-05
0.00018564
3.80131e-05
0.000182974
4.28784e-05
0.000178953
4.87683e-05
0.000173652
5.65406e-05
0.000166633
6.50765e-05
0.000161494
0.000151684
7.53529e-05
1.09413e-05
3.52467e-05
2.06268e-05
0.00011485
2.59793e-05
0.000151904
2.90178e-05
0.00016735
3.14365e-05
0.000175243
3.39266e-05
0.000180008
3.67612e-05
0.000182642
4.01152e-05
0.000183145
4.41528e-05
0.000181602
4.91339e-05
0.000177993
5.5239e-05
0.000172847
6.21978e-05
0.000166694
7.14892e-05
0.000157342
8.16782e-05
0.000151305
0.000139784
9.35776e-05
1.07238e-05
2.45228e-05
2.24688e-05
0.000103105
2.96981e-05
0.000144675
3.40342e-05
0.000163014
3.74411e-05
0.000171836
4.08255e-05
0.000176624
4.45442e-05
0.000178923
4.8815e-05
0.000178875
5.37893e-05
0.000176628
5.97248e-05
0.000172057
6.71359e-05
0.000165436
7.50827e-05
0.000158747
8.58031e-05
0.000146621
9.7705e-05
0.000139403
0.000126006
0.000111483
9.69745e-06
1.48254e-05
2.36192e-05
8.91831e-05
3.28714e-05
0.000135423
3.86631e-05
0.000157222
4.31299e-05
0.00016737
4.74024e-05
0.000172352
5.19541e-05
0.000174371
5.70919e-05
0.000173737
6.30019e-05
0.000170718
6.97359e-05
0.000165323
7.85304e-05
0.000156642
8.74646e-05
0.000149813
9.9302e-05
0.000134784
0.000112813
0.000125892
0.000109644
0.000129175
8.02974e-06
6.79563e-06
2.39086e-05
7.33042e-05
3.52848e-05
0.000124046
4.2765e-05
0.000149742
4.84194e-05
0.000161715
5.35966e-05
0.000167174
5.89434e-05
0.000169025
6.4872e-05
0.000167808
7.17667e-05
0.000163823
7.914e-05
0.00015795
8.92947e-05
0.000146487
9.94835e-05
0.000139624
0.000112403
0.000121865
0.00012654
0.000111755
9.02503e-05
0.000145933
6.06854e-06
7.27095e-07
2.3095e-05
5.62778e-05
3.67052e-05
0.000110436
4.61677e-05
0.000140279
5.31887e-05
0.000154694
5.93243e-05
0.000161039
6.54577e-05
0.000162891
7.20364e-05
0.00016123
8.00241e-05
0.000155835
8.79515e-05
0.000150022
9.91946e-05
0.000135244
0.0001108
0.000128019
0.000125686
0.000106979
0.000139854
9.75867e-05
6.85458e-05
0.000161559
4.09403e-06
-3.36694e-06
2.09501e-05
3.94217e-05
3.69067e-05
9.44798e-05
4.86555e-05
0.000128531
5.72617e-05
0.000146088
6.44452e-05
0.000153855
7.1447e-05
0.000155889
7.85188e-05
0.000154158
8.76045e-05
0.00014675
9.62621e-05
0.000141365
0.000108241
0.000123265
0.000120783
0.000115477
0.00013841
8.93525e-05
0.000153307
8.26895e-05
4.49254e-05
0.000176927
2.26534e-06
-5.63228e-06
1.75175e-05
2.41695e-05
3.56947e-05
7.63026e-05
4.99116e-05
0.000114314
6.03884e-05
0.000135611
6.87597e-05
0.000145484
7.67708e-05
0.000147878
8.42695e-05
0.000146659
9.42504e-05
0.000136769
0.000103965
0.00013165
0.000116812
0.000110418
0.000129598
0.00010269
0.000149546
6.94051e-05
0.000165975
6.62603e-05
1.93746e-05
0.000191526
8.58492e-07
-6.49077e-06
1.32864e-05
1.17416e-05
3.29198e-05
5.66692e-05
4.95461e-05
9.76873e-05
6.22221e-05
0.000122935
7.19685e-05
0.000135738
8.12118e-05
0.000138635
8.92484e-05
0.000138623
9.965e-05
0.000126367
0.000110538
0.000120762
0.000124682
9.62738e-05
0.000137972
8.94005e-05
0.000158941
4.84358e-05
0.000177302
4.78991e-05
-7.81336e-06
0.00020449
7.503e-08
-6.5658e-06
9.12457e-06
2.69202e-06
2.83527e-05
3.74411e-05
4.71124e-05
7.89276e-05
6.23487e-05
0.000107699
7.37009e-05
0.000124385
8.42876e-05
0.000128048
9.34023e-05
0.000129508
0.000103837
0.000115932
0.00011544
0.00010916
0.000130612
8.11019e-05
0.000145815
7.41979e-05
0.000165711
2.85397e-05
0.000187078
2.65316e-05
-3.61329e-05
0.000215398
-2.6034e-07
-6.30546e-06
5.63621e-06
-3.20453e-06
2.22542e-05
2.08231e-05
4.23071e-05
5.88747e-05
6.01815e-05
8.98246e-05
7.35768e-05
0.00011099
8.54003e-05
0.000116225
9.59704e-05
0.000118938
0.000106768
0.000105134
0.000119365
9.65623e-05
0.000132869
6.75983e-05
0.00015218
5.48865e-05
0.000168166
1.25541e-05
0.000195333
-6.35241e-07
-6.0676e-05
0.000219876
-2.80988e-07
-6.02447e-06
3.26096e-06
-6.74648e-06
1.58758e-05
8.20827e-06
3.53114e-05
3.94391e-05
5.51614e-05
6.99746e-05
7.08766e-05
9.5275e-05
8.40898e-05
0.000103012
9.62082e-05
0.000106819
0.000106878
9.44644e-05
0.000122092
8.13482e-05
0.000133112
5.6578e-05
0.00015556
3.24389e-05
0.000169786
-1.67184e-06
0.000197725
-2.85746e-05
-7.98473e-05
0.000216897
-9.22932e-08
-5.93218e-06
2.16674e-06
-9.00551e-06
1.06726e-05
-2.97547e-07
2.71579e-05
2.29537e-05
4.71497e-05
4.99828e-05
6.49974e-05
7.74273e-05
7.9115e-05
8.88938e-05
9.39347e-05
9.19998e-05
0.000103621
8.47781e-05
0.000121805
6.31647e-05
0.000130226
4.81565e-05
0.000156486
6.17911e-06
0.000165479
-1.06654e-05
0.000196842
-5.99374e-05
-9.65107e-05
0.000213506
2.23932e-07
-6.15611e-06
1.97361e-06
-1.07552e-05
7.36893e-06
-5.69287e-06
1.96118e-05
1.07108e-05
3.70803e-05
3.25144e-05
5.57458e-05
5.87618e-05
7.04711e-05
7.41685e-05
8.65703e-05
7.59005e-05
9.76541e-05
7.36942e-05
0.000115276
4.55429e-05
0.000126258
3.71748e-05
0.000151718
-1.92815e-05
0.000158976
-1.79236e-05
0.000195754
-9.67155e-05
-9.4405e-05
0.000193649
5.58976e-07
-6.71509e-06
2.1297e-06
-1.23259e-05
5.64771e-06
-9.21088e-06
1.3806e-05
2.55255e-06
2.6887e-05
1.94334e-05
4.37345e-05
4.19143e-05
5.86981e-05
5.92049e-05
7.36617e-05
6.09369e-05
8.67548e-05
6.06012e-05
0.000101756
3.0542e-05
0.000116026
2.29042e-05
0.000132625
-3.58799e-05
0.00014645
-3.17485e-05
0.000173743
-0.000124009
-9.67017e-05
0.00017604
7.73877e-07
-7.48896e-06
2.13145e-06
-1.36835e-05
4.4681e-06
-1.15475e-05
9.43425e-06
-2.41361e-06
1.79239e-05
1.09437e-05
3.05666e-05
2.92716e-05
4.41065e-05
4.5665e-05
5.67321e-05
4.83113e-05
6.9251e-05
4.80823e-05
8.21311e-05
1.76619e-05
9.68671e-05
8.16822e-06
0.000106044
-4.50571e-05
0.000128379
-5.40835e-05
0.000143572
-0.000139202
-0.000142041
0.000188912
7.37049e-07
-8.22601e-06
1.59398e-06
-1.45404e-05
2.84283e-06
-1.27964e-05
5.4057e-06
-4.97648e-06
9.98282e-06
6.36659e-06
1.77762e-05
2.14782e-05
2.78798e-05
3.55615e-05
3.74715e-05
3.87196e-05
4.78105e-05
3.77433e-05
5.75628e-05
7.90953e-06
7.302e-05
-7.28892e-06
8.74856e-05
-5.95228e-05
0.000124484
-9.10815e-05
0.000161527
-0.000176245
-0.0002128
0.000232285
3.82068e-07
-8.60808e-06
3.49356e-07
-1.45077e-05
2.45663e-07
-1.26927e-05
7.15064e-07
-5.44589e-06
2.03624e-06
5.04542e-06
5.5674e-06
1.79471e-05
1.10298e-05
3.0099e-05
1.71819e-05
3.25676e-05
2.46772e-05
3.02479e-05
3.35949e-05
-1.00818e-06
5.75762e-05
-3.12702e-05
9.14939e-05
-9.34405e-05
0.000147316
-0.000146903
0.000199352
-0.000228281
-0.000269783
0.000256336
-2.73436e-07
-8.33464e-06
-1.48819e-06
-1.3293e-05
-3.109e-06
-1.10719e-05
-4.71962e-06
-3.83526e-06
-6.20668e-06
6.53247e-06
-6.85861e-06
1.8599e-05
-6.18114e-06
2.94216e-05
-3.07215e-06
2.94586e-05
5.34728e-06
2.18285e-05
2.49118e-05
-2.05726e-05
6.79173e-05
-7.42757e-05
0.000119878
-0.000145401
0.000179794
-0.00020682
0.000221916
-0.000270403
-0.000308141
0.000260274
-1.12895e-06
-7.20569e-06
-3.70288e-06
-1.0719e-05
-6.99371e-06
-7.78103e-06
-1.07018e-05
-1.27155e-07
-1.47696e-05
1.06002e-05
-1.90401e-05
2.28695e-05
-2.18702e-05
3.22517e-05
-1.82209e-05
2.58092e-05
2.58326e-06
1.02435e-06
4.24238e-05
-6.04132e-05
9.81406e-05
-0.000129993
0.000151154
-0.000198414
0.000198025
-0.000253691
0.00023004
-0.000302418
-0.000339225
0.000261124
-2.00818e-06
-5.19751e-06
-5.87102e-06
-6.85619e-06
-1.0692e-05
-2.96004e-06
-1.60864e-05
5.2672e-06
-2.19774e-05
1.64913e-05
-2.75146e-05
2.84066e-05
-2.94551e-05
3.41923e-05
-1.70093e-05
1.33634e-05
2.06701e-05
-3.66551e-05
7.3218e-05
-0.000112961
0.000126547
-0.000183322
0.000170143
-0.00024201
0.000205981
-0.000289529
0.000233743
-0.000330179
-0.000362847
0.000257364
-2.68927e-06
-2.50825e-06
-7.46482e-06
-2.08064e-06
-1.31807e-05
2.7558e-06
-1.93005e-05
1.1387e-05
-2.51461e-05
2.23369e-05
-2.8569e-05
3.18295e-05
-2.43489e-05
2.99722e-05
2.17249e-06
-1.3158e-05
4.9998e-05
-8.44806e-05
0.000100789
-0.000163752
0.000145211
-0.000227744
0.000181114
-0.000277913
0.000210167
-0.000318581
0.000232181
-0.000352194
-0.000381891
0.000251225
-2.99359e-06
4.85338e-07
-8.06563e-06
2.9914e-06
-1.3802e-05
8.49222e-06
-1.92902e-05
1.68752e-05
-2.31587e-05
2.62053e-05
-2.23494e-05
3.10203e-05
-8.66114e-06
1.6284e-05
2.87256e-05
-5.05446e-05
7.7479e-05
-0.000133234
0.000121386
-0.00020766
0.000158017
-0.000264374
0.000187244
-0.00030714
0.000209817
-0.000341155
0.000227993
-0.000370369
-0.000398495
0.000244597
-2.86804e-06
3.35338e-06
-7.6037e-06
7.72706e-06
-1.25396e-05
1.34282e-05
-1.63353e-05
2.06709e-05
-1.70759e-05
2.69459e-05
-1.20655e-05
2.60099e-05
1.15637e-05
-7.34519e-06
5.46487e-05
-9.36297e-05
9.86894e-05
-0.000177275
0.000136179
-0.000245149
0.000165734
-0.000293929
0.000188744
-0.00033015
0.000207148
-0.000359559
0.00022261
-0.000385831
-0.00041264
0.000236754
-2.39049e-06
5.74386e-06
-6.30913e-06
1.16457e-05
-9.92112e-06
1.70402e-05
-1.15904e-05
2.23401e-05
-9.24156e-06
2.45971e-05
8.56011e-07
1.59123e-05
3.30884e-05
-3.95776e-05
7.59775e-05
-0.000136519
0.00011489
-0.000216187
0.000145831
-0.000276091
0.000169292
-0.00031739
0.000187836
-0.000348694
0.000202941
-0.000374663
0.000216145
-0.000399035
-0.000425542
0.000229048
-1.71535e-06
7.45921e-06
-4.57137e-06
1.45017e-05
-6.7088e-06
1.91776e-05
-6.29963e-06
2.19309e-05
-2.25661e-06
2.05541e-05
1.47338e-05
-1.07809e-06
5.39152e-05
-7.8759e-05
9.31633e-05
-0.000175767
0.000126154
-0.000249178
0.000151193
-0.000301129
0.000169948
-0.000336145
0.000184886
-0.000363632
0.000197548
-0.000387325
0.000209394
-0.000410882
-0.000437083
0.000220935
-1.00964e-06
8.46885e-06
-2.77773e-06
1.62698e-05
-3.56566e-06
1.99655e-05
-1.49039e-06
1.98557e-05
4.36851e-06
1.46952e-05
2.90718e-05
-2.57814e-05
7.08262e-05
-0.000120513
0.000106134
-0.000211075
0.000133363
-0.000276406
0.000153354
-0.000321121
0.000168324
-0.000351116
0.000180712
-0.00037602
0.000191681
-0.000398294
0.000202275
-0.000421477
-0.000447645
0.000212837
-4.10104e-07
8.87895e-06
-1.23034e-06
1.70901e-05
-8.56107e-07
1.95913e-05
1.75495e-06
1.72446e-05
1.15817e-05
4.86847e-06
4.45777e-05
-5.87775e-05
8.41623e-05
-0.000160098
0.000115052
-0.000241965
0.000137199
-0.000298553
0.000153022
-0.000336944
0.000165205
-0.000363298
0.000175704
-0.000386518
0.000185325
-0.000407915
0.000195047
-0.000431198
-0.000457314
0.000204716
-8.382e-09
8.88734e-06
-1.4095e-07
1.72226e-05
9.68798e-07
1.84815e-05
3.65269e-06
1.45607e-05
1.9984e-05
-1.14628e-05
5.93012e-05
-9.80947e-05
9.45766e-05
-0.000195373
0.00012049
-0.000267877
0.000138338
-0.000316401
0.00015098
-0.000349587
0.000161047
-0.000373365
0.000170132
-0.000395604
0.000178794
-0.000416577
0.000187695
-0.0004401
-0.000466109
0.000196491
1.8105e-07
8.70629e-06
4.9397e-07
1.69097e-05
1.90594e-06
1.70696e-05
5.81726e-06
1.06494e-05
3.08469e-05
-3.64925e-05
7.0748e-05
-0.000137996
0.000101753
-0.000226378
0.000123071
-0.000289196
0.000137425
-0.000330755
0.000147661
-0.000359822
0.000156194
-0.000381898
0.000164212
-0.000403622
0.000172062
-0.000424426
0.00018027
-0.000448308
-0.000474207
0.000188368
1.50683e-07
8.5556e-06
7.16279e-07
1.63441e-05
1.73847e-06
1.60474e-05
1.04264e-05
1.96151e-06
4.34729e-05
-6.9539e-05
7.94328e-05
-0.000173956
0.00010601
-0.000252955
0.000123457
-0.000306643
0.000135028
-0.000342327
0.000143491
-0.000368285
0.000150887
-0.000389294
0.000158052
-0.000410787
0.000165247
-0.000431622
0.000172802
-0.000455863
-0.000481537
0.000180132
-1.85601e-08
8.57416e-06
5.63324e-07
1.57622e-05
1.26326e-06
1.53474e-05
1.67146e-05
-1.34898e-05
5.4774e-05
-0.000107598
8.59383e-05
-0.00020512
0.000107893
-0.000274909
0.000122091
-0.000320842
0.00013155
-0.000351785
0.000138712
-0.000375447
0.00014526
-0.000395841
0.000151731
-0.000417259
0.000158332
-0.000438222
0.000165267
-0.000462799
-0.000488265
0.000171995
-1.97008e-07
8.77117e-06
1.89387e-07
1.53758e-05
2.3925e-06
1.31443e-05
2.57338e-05
-3.68311e-05
6.26735e-05
-0.000144538
9.00326e-05
-0.000232479
0.000108034
-0.000292911
0.00011952
-0.000332328
0.000127345
-0.00035961
0.000133545
-0.000381647
0.000139422
-0.000401718
0.0001453
-0.000423137
0.000151372
-0.000444294
0.000157715
-0.000469142
-0.000494338
0.000163789
-3.29217e-07
9.10039e-06
-4.44979e-07
1.54916e-05
6.1438e-06
6.55556e-06
3.62626e-05
-6.69499e-05
6.84686e-05
-0.000176744
9.18873e-05
-0.000255898
0.000106708
-0.000307731
0.000116048
-0.000341668
0.000122627
-0.000366189
0.000128096
-0.000387116
0.000133432
-0.000407055
0.00013879
-0.000428494
0.000144354
-0.000449859
0.000150109
-0.000474897
-0.00049987
0.000155641
-4.72093e-07
9.57248e-06
-9.78644e-07
1.59981e-05
1.10025e-05
-5.42563e-06
4.52457e-05
-0.000101193
7.2781e-05
-0.000204279
9.20885e-05
-0.000275205
0.000104252
-0.000319895
0.000111967
-0.000349383
0.000117599
-0.000371822
0.000122488
-0.000392005
0.000127344
-0.00041191
0.000132225
-0.000433375
0.000137315
-0.000454949
0.000142517
-0.000480098
-0.000504832
0.000147479
-4.36369e-07
1.00089e-05
-5.63158e-07
1.61249e-05
1.70177e-05
-2.30065e-05
5.09029e-05
-0.000135078
7.54014e-05
-0.000228778
9.12058e-05
-0.00029101
0.000101035
-0.000329724
0.000107442
-0.00035579
0.000112342
-0.000376722
0.000116751
-0.000396413
0.000121181
-0.00041634
0.000125623
-0.000437817
0.000130248
-0.000459574
0.000134897
-0.000484747
-0.000509287
0.000139351
-3.57005e-07
1.03659e-05
1.52433e-06
1.42436e-05
2.47076e-05
-4.61897e-05
5.4643e-05
-0.000165014
7.6204e-05
-0.000250339
8.9335e-05
-0.000304141
9.72846e-05
-0.000337674
0.000102648
-0.000361153
0.000106961
-0.000381035
0.000110955
-0.000400407
0.000114977
-0.000420362
0.000118992
-0.000441832
0.000123168
-0.00046375
0.000127303
-0.000488882
-0.00051324
0.000131256
-3.65159e-07
1.0731e-05
4.62086e-06
9.25758e-06
3.18927e-05
-7.34616e-05
5.75787e-05
-0.0001907
7.56551e-05
-0.000268415
8.65751e-05
-0.000315061
9.31321e-05
-0.000344231
9.76793e-05
-0.0003657
0.000101494
-0.000384849
0.000105102
-0.000404016
0.000108737
-0.000423998
0.000112347
-0.000445442
0.000116074
-0.000467477
0.0001197
-0.000492508
-0.000516729
0.000123189
-3.96948e-07
1.1128e-05
7.94457e-06
9.16065e-07
3.72027e-05
-0.00010272
5.94219e-05
-0.000212919
7.42652e-05
-0.000283259
8.32062e-05
-0.000324002
8.86757e-05
-0.0003497
9.26015e-05
-0.000369626
9.5993e-05
-0.000388241
9.92395e-05
-0.000407262
0.000102491
-0.000427249
0.000105693
-0.000448644
0.00010898
-0.000470764
0.000112128
-0.000495655
-0.00051978
0.000115179
-3.77948e-07
1.15059e-05
1.14582e-05
-1.092e-05
4.02688e-05
-0.00013153
6.01756e-05
-0.000232826
7.2288e-05
-0.000295371
7.94794e-05
-0.000331193
8.40357e-05
-0.000354257
8.74526e-05
-0.000373043
9.04688e-05
-0.000391257
9.33606e-05
-0.000410154
9.62342e-05
-0.000430122
9.90429e-05
-0.000451452
0.000101893
-0.000473615
0.000104572
-0.000498334
-0.000522406
0.000107198
-4.67329e-07
1.19732e-05
1.57248e-05
-2.71122e-05
4.1612e-05
-0.000157417
5.96026e-05
-0.000250816
6.97819e-05
-0.00030555
7.55494e-05
-0.000336961
7.93138e-05
-0.000358021
8.22786e-05
-0.000376008
8.49453e-05
-0.000393924
8.74944e-05
-0.000412703
8.99932e-05
-0.000432621
9.24025e-05
-0.000453862
9.48213e-05
-0.000476034
9.70566e-05
-0.000500569
-0.000524633
9.92839e-05
-5.06451e-08
1.20239e-05
1.95378e-05
-4.67006e-05
4.25752e-05
-0.000180455
5.81054e-05
-0.000266347
6.67364e-05
-0.000314181
7.14604e-05
-0.000341685
7.45719e-05
-0.000361132
7.71126e-05
-0.000378548
7.94326e-05
-0.000396244
8.16349e-05
-0.000414905
8.37597e-05
-0.000434746
8.57797e-05
-0.000455882
8.77735e-05
-0.000478027
8.95712e-05
-0.000502367
-0.000526444
9.13823e-05
6.20146e-07
1.14037e-05
2.27211e-05
-6.88016e-05
4.29211e-05
-0.000200655
5.60851e-05
-0.000279511
6.33033e-05
-0.000321399
6.72326e-05
-0.000345614
6.98309e-05
-0.000363731
7.19805e-05
-0.000380698
7.39511e-05
-0.000398214
7.58043e-05
-0.000416758
7.75564e-05
-0.000436498
7.91818e-05
-0.000457507
8.07525e-05
-0.000479598
8.21315e-05
-0.000503746
-0.000527855
8.35416e-05
1.70339e-06
9.70035e-06
2.50411e-05
-9.21393e-05
4.27628e-05
-0.000218377
5.3731e-05
-0.000290479
5.96495e-05
-0.000327318
6.29149e-05
-0.000348879
6.50943e-05
-0.00036591
6.68855e-05
-0.000382489
6.85063e-05
-0.000399835
7.00015e-05
-0.000418254
7.13768e-05
-0.000437874
7.26134e-05
-0.000458744
7.3767e-05
-0.000480752
7.47213e-05
-0.0005047
-0.000528827
7.56942e-05
3.30359e-06
6.39676e-06
2.64404e-05
-0.000115276
4.21831e-05
-0.000234119
5.11807e-05
-0.000299476
5.5914e-05
-0.000332051
5.85692e-05
-0.000351534
6.03727e-05
-0.000367714
6.18302e-05
-0.000383947
6.31065e-05
-0.000401111
6.42421e-05
-0.000419389
6.52406e-05
-0.000438872
6.60838e-05
-0.000459587
6.68173e-05
-0.000481485
6.7345e-05
-0.000505228
-0.000529345
6.78622e-05
5.32411e-06
1.07265e-06
2.69683e-05
-0.00013692
4.11503e-05
-0.000248301
4.84918e-05
-0.000306818
5.21651e-05
-0.000335724
5.42436e-05
-0.000353613
5.56822e-05
-0.000369152
5.68139e-05
-0.000385078
5.77501e-05
-0.000402048
5.85246e-05
-0.000420164
5.91426e-05
-0.00043949
5.95942e-05
-0.000460038
5.99117e-05
-0.000481803
6.0006e-05
-0.000505322
-0.00052939
6.00514e-05
7.55865e-06
-6.486e-06
2.68286e-05
-0.00015619
3.95536e-05
-0.000261026
4.56541e-05
-0.000312918
4.84353e-05
-0.000338506
4.99729e-05
-0.000355151
5.10404e-05
-0.00037022
5.18446e-05
-0.000385882
5.24433e-05
-0.000402646
5.28589e-05
-0.00042058
5.30978e-05
-0.000439729
5.31533e-05
-0.000460094
5.30509e-05
-0.0004817
5.27155e-05
-0.000504987
-0.00052897
5.22953e-05
9.78507e-06
-1.62711e-05
2.67801e-05
-0.000173185
3.76147e-05
-0.000271861
4.2627e-05
-0.000317931
4.47082e-05
-0.000340587
4.57642e-05
-0.000356207
4.64606e-05
-0.000370916
4.69289e-05
-0.000386351
4.71878e-05
-0.000402905
4.7245e-05
-0.000420637
4.71031e-05
-0.000439587
4.67607e-05
-0.000459751
4.62405e-05
-0.00048118
4.548e-05
-0.000504226
-0.000528074
4.45839e-05
1.13522e-05
-2.76233e-05
2.64338e-05
-0.000188267
3.54689e-05
-0.000280896
3.94447e-05
-0.000321906
4.09595e-05
-0.000342102
4.16102e-05
-0.000356857
4.1949e-05
-0.000371255
4.20766e-05
-0.000386478
4.19929e-05
-0.000402822
4.16924e-05
-0.000420336
4.11721e-05
-0.000439067
4.04282e-05
-0.000459008
3.94824e-05
-0.000480234
3.83007e-05
-0.000503044
-0.000526712
3.69387e-05
1.22741e-05
-3.98974e-05
2.56884e-05
-0.000201681
3.31533e-05
-0.000288361
3.6189e-05
-0.000324942
3.72091e-05
-0.000343122
3.75051e-05
-0.000357153
3.75061e-05
-0.000371256
3.72925e-05
-0.000386265
3.68623e-05
-0.000402391
3.62034e-05
-0.000419677
3.5306e-05
-0.000438169
3.41625e-05
-0.000457864
3.27884e-05
-0.00047886
3.1176e-05
-0.000501432
-0.000524889
2.93531e-05
1.26135e-05
-5.25109e-05
2.45962e-05
-0.000213664
3.07087e-05
-0.000294473
3.29169e-05
-0.00032715
3.34868e-05
-0.000343692
3.34538e-05
-0.00035712
3.31313e-05
-0.000370933
3.25811e-05
-0.000385715
3.1804e-05
-0.000401614
3.07866e-05
-0.00041866
2.95162e-05
-0.000436899
2.79816e-05
-0.00045633
2.61809e-05
-0.00047706
2.41013e-05
-0.000499352
-0.00052262
2.18327e-05
1.25103e-05
-6.50212e-05
2.32071e-05
-0.000224361
2.81653e-05
-0.000299432
2.96626e-05
-0.000328648
2.98161e-05
-0.000343845
2.94646e-05
-0.000356769
2.88268e-05
-0.000370296
2.79444e-05
-0.000384832
2.68206e-05
-0.00040049
2.54441e-05
-0.000417283
2.3802e-05
-0.000435257
2.18867e-05
-0.000454414
1.96875e-05
-0.00047486
1.71018e-05
-0.000496767
-0.000519882
1.43634e-05
1.21064e-05
-7.71276e-05
2.16059e-05
-0.00023386
2.55629e-05
-0.000303389
2.64456e-05
-0.00032953
2.62134e-05
-0.000343613
2.55475e-05
-0.000356103
2.45963e-05
-0.000369344
2.33854e-05
-0.000383621
2.19182e-05
-0.000399023
2.01836e-05
-0.000415549
1.81705e-05
-0.000433244
1.58751e-05
-0.000452119
1.33068e-05
-0.000472292
1.02519e-05
-0.000493712
-0.000516545
6.91478e-06
1.14959e-05
-8.86234e-05
1.98554e-05
-0.00024222
2.29338e-05
-0.000306467
2.32827e-05
-0.000329879
2.26902e-05
-0.00034302
2.17107e-05
-0.000355124
2.04454e-05
-0.000368079
1.89073e-05
-0.000382083
1.70982e-05
-0.000397214
1.50074e-05
-0.000413458
1.2624e-05
-0.00043086
9.94318e-06
-0.000449438
6.98799e-06
-0.000469337
3.68526e-06
-0.000490409
-0.000512214
-6.45284e-07
1.07395e-05
-9.93629e-05
1.80145e-05
-0.000249495
2.03145e-05
-0.000308767
2.01892e-05
-0.000329754
1.92546e-05
-0.000342086
1.79609e-05
-0.00035383
1.63787e-05
-0.000366497
1.45131e-05
-0.000380218
1.23636e-05
-0.000395065
9.92092e-06
-0.000411015
7.16986e-06
-0.000428109
4.10553e-06
-0.000446374
6.08021e-07
-0.000465839
-2.82742e-06
-0.000486974
-0.000507735
-7.3069e-06
9.82592e-06
-0.000109189
1.61278e-05
-0.000255797
1.77363e-05
-0.000310376
1.71799e-05
-0.000329197
1.59127e-05
-0.000340819
1.43024e-05
-0.00035222
1.24005e-05
-0.000364595
1.0205e-05
-0.000378022
7.71191e-06
-0.000392571
4.92141e-06
-0.000408225
1.80196e-06
-0.00042499
-1.63973e-06
-0.000442932
-5.29679e-06
-0.000462182
-9.50066e-06
-0.00048277
-0.000503182
-1.4053e-05
8.89048e-06
-0.000118079
1.4245e-05
-0.000261151
1.52211e-05
-0.000311352
1.42634e-05
-0.00032824
1.26669e-05
-0.000339222
1.07379e-05
-0.000350291
8.51211e-06
-0.000362369
5.9817e-06
-0.000375492
3.13969e-06
-0.000389729
-2.7143e-08
-0.000405058
-3.44642e-06
-0.00042157
-7.18345e-06
-0.000439195
-1.12166e-05
-0.000458149
-1.59128e-05
-0.000478073
-0.000498357
-2.07377e-05
8.00667e-06
-0.000126086
1.24051e-05
-0.00026555
1.27802e-05
-0.000311727
1.14378e-05
-0.000326897
9.51772e-06
-0.000337302
7.26777e-06
-0.000348041
4.71059e-06
-0.000359812
1.83115e-06
-0.000372612
-1.3348e-06
-0.000386563
-4.78073e-06
-0.000401612
-8.5725e-06
-0.000417779
-1.26547e-05
-0.000435113
-1.71014e-05
-0.000453703
-2.2153e-05
-0.000473022
-0.000493181
-2.73297e-05
7.14028e-06
-0.000133226
1.06275e-05
-0.000269037
1.04249e-05
-0.000311524
8.70611e-06
-0.000325179
6.46452e-06
-0.00033506
3.88659e-06
-0.000345463
9.75197e-07
-0.000356901
-2.1929e-06
-0.000369444
-5.66562e-06
-0.000383091
-9.47096e-06
-0.000397807
-1.35978e-05
-0.000413652
-1.80433e-05
-0.000430667
-2.2913e-05
-0.000448833
-2.82588e-05
-0.000467676
-0.000487626
-3.3814e-05
6.29376e-06
-0.00013952
8.9218e-06
-0.000271665
8.15925e-06
-0.000310762
6.07205e-06
-0.000323091
3.50256e-06
-0.000332491
5.64986e-07
-0.000342525
-2.60528e-06
-0.00035373
-6.09695e-06
-0.000365953
-9.91543e-06
-0.000379272
-1.40605e-05
-0.000393662
-1.8525e-05
-0.000409187
-2.33384e-05
-0.000425854
-2.86091e-05
-0.000443562
-3.42474e-05
-0.000462038
-0.000481706
-4.0167e-05
5.47421e-06