/*--------------------------------*- C++ -*----------------------------------*\
  =========                 |
  \\      /  F ield         | OpenFOAM: The Open Source CFD Toolbox
   \\    /   O peration     | Website:  https://openfoam.org
    \\  /    A nd           | Version:  7
     \\/     M anipulation  |
\*---------------------------------------------------------------------------*/
FoamFile
{
    version     2.0;
    format      ascii;
    class       volScalarField;
    location    "36.9996";
    object      p;
}
// * * * * * * * * * * * * * * * * * * * * * * * * * * * * * * * * * * * * * //

dimensions      [0 2 -2 0 0 0 0];

internalField   nonuniform List<scalar> 
18750
(
-0.0711602
-0.0779575
-0.089633
-0.107267
-0.129859
-0.157116
-0.188587
-0.223953
-0.262802
-0.304704
-0.349226
-0.396051
-0.444917
-0.495379
-0.546435
-0.0713818
-0.078384
-0.0902541
-0.108019
-0.130636
-0.157765
-0.188921
-0.223755
-0.261839
-0.302708
-0.345863
-0.390948
-0.437785
-0.486195
-0.535558
-0.074154
-0.081174
-0.0930698
-0.110819
-0.133339
-0.160245
-0.191014
-0.225266
-0.262554
-0.302373
-0.344151
-0.387493
-0.432295
-0.478603
-0.526111
-0.0793694
-0.0862356
-0.0979973
-0.115584
-0.137879
-0.164466
-0.194777
-0.2284
-0.264869
-0.303629
-0.344047
-0.385696
-0.428511
-0.472706
-0.518218
-0.0868444
-0.0933905
-0.104856
-0.122142
-0.14411
-0.17029
-0.200061
-0.233007
-0.268628
-0.306321
-0.345427
-0.385476
-0.426388
-0.468481
-0.511889
-0.0963113
-0.102395
-0.113425
-0.130275
-0.151793
-0.177475
-0.206671
-0.238899
-0.273618
-0.310252
-0.348117
-0.386658
-0.425755
-0.465786
-0.507056
-0.107435
-0.112943
-0.123419
-0.139724
-0.160692
-0.185785
-0.214321
-0.245777
-0.279602
-0.315216
-0.35188
-0.388969
-0.426364
-0.464438
-0.503602
-0.119829
-0.124677
-0.134508
-0.150184
-0.170524
-0.194961
-0.222781
-0.253422
-0.286311
-0.320875
-0.356384
-0.392158
-0.42797
-0.464215
-0.501335
-0.133079
-0.137211
-0.146335
-0.161324
-0.18098
-0.204707
-0.231771
-0.261574
-0.293514
-0.327015
-0.361381
-0.395902
-0.430253
-0.464749
-0.499937
-0.146767
-0.150132
-0.158534
-0.172812
-0.191744
-0.214726
-0.241002
-0.269947
-0.300935
-0.333383
-0.366632
-0.39998
-0.432978
-0.465813
-0.499155
-0.16047
-0.163035
-0.170746
-0.184319
-0.202515
-0.224729
-0.250198
-0.278273
-0.308307
-0.339711
-0.371863
-0.40409
-0.435855
-0.467179
-0.498792
-0.173763
-0.175548
-0.182638
-0.195537
-0.213005
-0.234449
-0.259104
-0.286308
-0.315397
-0.345777
-0.376853
-0.407997
-0.438622
-0.468588
-0.498613
-0.186251
-0.187339
-0.193913
-0.206186
-0.22295
-0.243638
-0.267488
-0.29383
-0.321993
-0.351376
-0.381408
-0.411514
-0.44111
-0.469908
-0.498572
-0.197587
-0.198145
-0.204307
-0.216013
-0.232116
-0.252079
-0.275143
-0.300642
-0.327903
-0.356323
-0.38535
-0.414456
-0.443088
-0.470892
-0.498302
-0.207468
-0.207785
-0.213591
-0.224807
-0.240304
-0.259584
-0.281891
-0.306574
-0.332964
-0.360461
-0.388526
-0.416679
-0.444405
-0.471264
-0.497651
-0.215789
-0.216038
-0.221569
-0.232393
-0.247349
-0.265999
-0.287585
-0.311482
-0.337036
-0.363651
-0.390801
-0.418049
-0.444961
-0.470965
-0.496023
-0.22251
-0.222771
-0.22813
-0.238635
-0.253128
-0.271208
-0.292106
-0.315249
-0.340002
-0.365778
-0.392062
-0.418436
-0.4446
-0.470029
-0.493531
-0.227643
-0.227935
-0.233238
-0.243462
-0.257566
-0.275124
-0.295364
-0.317784
-0.341765
-0.36674
-0.392213
-0.417748
-0.443114
-0.468324
-0.490214
-0.231279
-0.23157
-0.236853
-0.246877
-0.260657
-0.277682
-0.297304
-0.319017
-0.342253
-0.366451
-0.391165
-0.415939
-0.440423
-0.465549
-0.486156
-0.233589
-0.233788
-0.239007
-0.248885
-0.262363
-0.278892
-0.297912
-0.318925
-0.341403
-0.364843
-0.388826
-0.412934
-0.436592
-0.461316
-0.481584
-0.234796
-0.234744
-0.239804
-0.249525
-0.262703
-0.278754
-0.297168
-0.317471
-0.339198
-0.361877
-0.385126
-0.40866
-0.431509
-0.455846
-0.475892
-0.235127
-0.234601
-0.239387
-0.248887
-0.261737
-0.277297
-0.295082
-0.31466
-0.335622
-0.35753
-0.380003
-0.403066
-0.425057
-0.449191
-0.468858
-0.234766
-0.233517
-0.237928
-0.247105
-0.259559
-0.274586
-0.291705
-0.310519
-0.330672
-0.351807
-0.373406
-0.396118
-0.417178
-0.441292
-0.460443
-0.233819
-0.231649
-0.235632
-0.244341
-0.256292
-0.270719
-0.287115
-0.3051
-0.324359
-0.34474
-0.365307
-0.387778
-0.407858
-0.432096
-0.450658
-0.232331
-0.229202
-0.232738
-0.240785
-0.252085
-0.265817
-0.281406
-0.298484
-0.316712
-0.336367
-0.355725
-0.378001
-0.397106
-0.421566
-0.439613
-0.230337
-0.22647
-0.229501
-0.236653
-0.247122
-0.260035
-0.274693
-0.290785
-0.307783
-0.326712
-0.344747
-0.366739
-0.384975
-0.409574
-0.427529
-0.227931
-0.22381
-0.226162
-0.23219
-0.241629
-0.253563
-0.267113
-0.282132
-0.297677
-0.315768
-0.332523
-0.353939
-0.37168
-0.395911
-0.414563
-0.225281
-0.221499
-0.222924
-0.22768
-0.235879
-0.246637
-0.258837
-0.27265
-0.286577
-0.303515
-0.319254
-0.339457
-0.357606
-0.380614
-0.400757
-0.222648
-0.2196
-0.219976
-0.223432
-0.230189
-0.239532
-0.250096
-0.262452
-0.274738
-0.289962
-0.305224
-0.323194
-0.342807
-0.363855
-0.386649
-0.220265
-0.218002
-0.217503
-0.219742
-0.22489
-0.232559
-0.2412
-0.251669
-0.262465
-0.275218
-0.290642
-0.305427
-0.327213
-0.344682
-0.372062
-0.218234
-0.216597
-0.215624
-0.216809
-0.220299
-0.226038
-0.232555
-0.240531
-0.24997
-0.259648
-0.275484
-0.287086
-0.310591
-0.325445
-0.353838
-0.216559
-0.215349
-0.214321
-0.214688
-0.216654
-0.220298
-0.224558
-0.229511
-0.237374
-0.243989
-0.259632
-0.269305
-0.292841
-0.307145
-0.334323
-0.21519
-0.214275
-0.213429
-0.213301
-0.214043
-0.215648
-0.217556
-0.219213
-0.224983
-0.228744
-0.243552
-0.252131
-0.277153
-0.289631
-0.318384
-0.214047
-0.213373
-0.212774
-0.212486
-0.212378
-0.212265
-0.21177
-0.210301
-0.21315
-0.214807
-0.227052
-0.236493
-0.261033
-0.275257
-0.305959
-0.213048
-0.212597
-0.212251
-0.212035
-0.21143
-0.210095
-0.207267
-0.203306
-0.202464
-0.202957
-0.210851
-0.222765
-0.244156
-0.263851
-0.292103
-0.21211
-0.21188
-0.211777
-0.211739
-0.210911
-0.20885
-0.204013
-0.198276
-0.194044
-0.193413
-0.199037
-0.211962
-0.230024
-0.255111
-0.277243
-0.211168
-0.211154
-0.211268
-0.211427
-0.210541
-0.208112
-0.201893
-0.194971
-0.188338
-0.186279
-0.190992
-0.204467
-0.220306
-0.246121
-0.266792
-0.210183
-0.210376
-0.210656
-0.210954
-0.210102
-0.207525
-0.20068
-0.192977
-0.185187
-0.182051
-0.185828
-0.199361
-0.214472
-0.23748
-0.259089
-0.20916
-0.209537
-0.209928
-0.210287
-0.209509
-0.206869
-0.200192
-0.192117
-0.184128
-0.180679
-0.183472
-0.195797
-0.210785
-0.230897
-0.252473
-0.208146
-0.208671
-0.209104
-0.209468
-0.208774
-0.206241
-0.200435
-0.192558
-0.184764
-0.181374
-0.183685
-0.193878
-0.208318
-0.22609
-0.246344
-0.207231
-0.207862
-0.208287
-0.20862
-0.208079
-0.205975
-0.201622
-0.194769
-0.186597
-0.183335
-0.185236
-0.193581
-0.206555
-0.222285
-0.24074
-0.206521
-0.207221
-0.20763
-0.207998
-0.207698
-0.206255
-0.203638
-0.197477
-0.189451
-0.185773
-0.187274
-0.194062
-0.205243
-0.219079
-0.235439
-0.206104
-0.206844
-0.207266
-0.20773
-0.207762
-0.207053
-0.205884
-0.199984
-0.192571
-0.188404
-0.189286
-0.194753
-0.204195
-0.21607
-0.230387
-0.206038
-0.20677
-0.20723
-0.207812
-0.208196
-0.208248
-0.206506
-0.202131
-0.195237
-0.190876
-0.191071
-0.195307
-0.203104
-0.213117
-0.225527
-0.206259
-0.206967
-0.20746
-0.208121
-0.208774
-0.209766
-0.206341
-0.203191
-0.19711
-0.192884
-0.192445
-0.195524
-0.201849
-0.210129
-0.220757
-0.206716
-0.207359
-0.207836
-0.208475
-0.209499
-0.209425
-0.206625
-0.203338
-0.198104
-0.194241
-0.193292
-0.195356
-0.200331
-0.207016
-0.216072
-0.207322
-0.207862
-0.208239
-0.208709
-0.210504
-0.207904
-0.206596
-0.20308
-0.198395
-0.194883
-0.193556
-0.194752
-0.198506
-0.203776
-0.211407
-0.208
-0.20841
-0.208561
-0.209025
-0.210276
-0.207325
-0.205931
-0.202417
-0.198127
-0.194863
-0.193225
-0.193711
-0.196375
-0.200374
-0.20674
-0.208707
-0.208974
-0.208735
-0.209772
-0.208118
-0.207414
-0.205154
-0.20148
-0.197428
-0.194267
-0.192348
-0.192238
-0.193922
-0.196819
-0.202049
-0.209442
-0.209522
-0.208956
-0.210895
-0.206115
-0.20678
-0.204209
-0.200356
-0.196375
-0.193187
-0.190983
-0.190349
-0.191168
-0.193112
-0.1973
-0.210231
-0.209984
-0.2097
-0.21031
-0.206552
-0.205878
-0.203023
-0.19906
-0.195038
-0.191708
-0.189197
-0.188079
-0.18812
-0.189246
-0.192482
-0.211132
-0.210379
-0.211287
-0.207947
-0.207673
-0.205333
-0.201762
-0.197595
-0.19344
-0.189886
-0.187047
-0.185457
-0.184799
-0.185222
-0.187565
-0.212145
-0.21092
-0.213305
-0.205825
-0.207461
-0.204691
-0.200504
-0.196001
-0.191614
-0.18777
-0.184577
-0.182521
-0.181226
-0.181028
-0.182531
-0.213229
-0.212085
-0.214135
-0.207113
-0.206918
-0.203818
-0.199203
-0.194297
-0.189579
-0.185388
-0.181821
-0.179298
-0.17742
-0.176664
-0.177363
-0.214396
-0.21433
-0.213068
-0.210752
-0.207342
-0.20294
-0.197781
-0.192449
-0.187348
-0.182768
-0.178806
-0.175816
-0.1734
-0.172125
-0.172048
-0.215656
-0.217544
-0.210779
-0.212866
-0.208095
-0.202237
-0.196311
-0.19047
-0.18493
-0.179922
-0.175547
-0.17209
-0.169173
-0.16741
-0.166594
-0.217158
-0.220898
-0.209656
-0.212736
-0.208261
-0.201594
-0.194843
-0.188377
-0.182331
-0.176861
-0.172054
-0.168133
-0.164747
-0.162518
-0.161009
-0.219198
-0.223271
-0.212206
-0.212215
-0.207764
-0.200755
-0.19332
-0.186183
-0.179565
-0.173591
-0.168333
-0.163949
-0.160119
-0.157448
-0.155315
-0.222083
-0.224165
-0.217764
-0.213082
-0.207138
-0.199647
-0.191636
-0.183846
-0.176621
-0.170112
-0.164384
-0.15954
-0.155288
-0.152202
-0.149524
-0.226078
-0.223851
-0.223327
-0.215415
-0.206969
-0.198399
-0.189728
-0.18131
-0.173477
-0.166416
-0.160204
-0.154903
-0.150251
-0.14678
-0.143645
-0.231445
-0.223352
-0.227476
-0.218167
-0.207317
-0.197184
-0.187615
-0.178528
-0.170092
-0.162482
-0.155783
-0.150033
-0.145004
-0.141184
-0.137665
-0.23821
-0.225144
-0.230118
-0.220536
-0.207855
-0.19603
-0.185333
-0.175481
-0.166432
-0.158282
-0.151107
-0.144923
-0.13954
-0.135404
-0.131556
-0.24601
-0.230665
-0.232124
-0.222125
-0.208161
-0.194803
-0.182877
-0.172163
-0.162471
-0.15379
-0.146155
-0.13956
-0.13385
-0.129428
-0.125286
-0.254034
-0.239464
-0.234517
-0.222931
-0.207915
-0.193287
-0.180179
-0.168556
-0.158192
-0.148984
-0.140908
-0.13393
-0.12792
-0.123235
-0.118829
-0.261282
-0.249271
-0.23764
-0.223192
-0.206976
-0.19129
-0.177136
-0.164625
-0.153578
-0.143845
-0.135346
-0.128011
-0.121728
-0.11681
-0.112182
-0.266549
-0.257516
-0.240899
-0.223086
-0.205361
-0.1887
-0.173645
-0.160318
-0.148607
-0.138359
-0.129454
-0.121782
-0.11525
-0.110136
-0.105347
-0.26956
-0.262974
-0.243229
-0.222527
-0.203145
-0.185495
-0.169639
-0.155583
-0.143251
-0.132509
-0.123214
-0.115223
-0.108462
-0.103192
-0.098316
-0.270529
-0.265706
-0.244163
-0.221315
-0.200361
-0.181697
-0.165087
-0.150379
-0.137482
-0.126279
-0.116613
-0.10832
-0.101347
-0.0959494
-0.0910488
-0.270345
-0.266324
-0.24368
-0.219304
-0.196989
-0.177327
-0.159985
-0.14468
-0.131275
-0.11965
-0.109639
-0.101066
-0.0938958
-0.088382
-0.0834533
-0.269747
-0.265495
-0.241935
-0.216431
-0.192983
-0.172383
-0.154329
-0.138468
-0.124607
-0.112603
-0.102278
-0.0934554
-0.0861173
-0.0804834
-0.0753738
-0.269166
-0.263741
-0.23913
-0.212699
-0.1883
-0.166844
-0.148113
-0.131732
-0.11746
-0.10512
-0.094518
-0.0854842
-0.0780288
-0.0722956
-0.0666641
-0.268726
-0.261353
-0.235431
-0.208133
-0.182906
-0.160682
-0.141319
-0.124456
-0.109816
-0.0971853
-0.0863486
-0.0771476
-0.069636
-0.0638982
-0.0573418
-0.268315
-0.258479
-0.230955
-0.202757
-0.176772
-0.15386
-0.133922
-0.116623
-0.101661
-0.0887917
-0.0777714
-0.0684528
-0.0609354
-0.0552959
-0.0476752
-0.267662
-0.25516
-0.22576
-0.19658
-0.16987
-0.14634
-0.125891
-0.108211
-0.0929876
-0.0799404
-0.0687978
-0.0594303
-0.0519615
-0.0463155
-0.0380294
-0.266432
-0.251315
-0.219838
-0.189586
-0.162166
-0.138083
-0.117193
-0.0992067
-0.0837959
-0.0706397
-0.0594441
-0.0501181
-0.0428024
-0.0367885
-0.0284681
-0.264337
-0.246665
-0.213106
-0.181736
-0.153621
-0.129053
-0.107809
-0.0896108
-0.0740972
-0.0608989
-0.0497236
-0.0405221
-0.0333353
-0.0268787
-0.0189186
-0.261099
-0.240922
-0.205441
-0.172972
-0.144199
-0.119223
-0.0977419
-0.0794423
-0.0639022
-0.0507175
-0.0396317
-0.0306134
-0.0234986
-0.0167298
-0.00929652
-0.256475
-0.233879
-0.196713
-0.163229
-0.133864
-0.108595
-0.0870176
-0.0687182
-0.053189
-0.0400853
-0.0291672
-0.0203655
-0.0132935
-0.00641729
0.000440173
-0.250274
-0.225386
-0.186806
-0.152455
-0.122604
-0.0972166
-0.0756601
-0.0573828
-0.0419483
-0.029008
-0.0183294
-0.00976971
-0.00275955
0.00404471
0.0102984
-0.242353
-0.215351
-0.175623
-0.140619
-0.110444
-0.0851219
-0.0635964
-0.0454361
-0.0301866
-0.0174958
-0.00712155
0.00116546
0.00805506
0.0146725
0.0202768
-0.232627
-0.203742
-0.163082
-0.127723
-0.0974873
-0.0721782
-0.0508177
-0.032885
-0.0179168
-0.00556146
0.00444699
0.0124243
0.019129
0.0254785
0.0303733
-0.221056
-0.190599
-0.149122
-0.11377
-0.0836256
-0.0584302
-0.0373416
-0.019744
-0.00515545
0.00677899
0.0163606
0.0239899
0.0304555
0.0364713
0.0405807
-0.207638
-0.176001
-0.133756
-0.0986959
-0.0688251
-0.0439025
-0.0231917
-0.00603326
0.00807721
0.0195066
0.0286025
0.0358474
0.0420264
0.0476421
0.0508704
-0.192399
-0.159969
-0.117108
-0.0824363
-0.0530828
-0.0286155
-0.00839785
0.00822029
0.0217578
0.0326024
0.0411591
0.0479842
0.0538175
0.0589374
0.0611924
-0.175399
-0.142342
-0.0993163
-0.0650843
-0.0364273
-0.0125933
0.00700815
0.0229857
0.0358602
0.046049
0.0540227
0.0603896
0.0657836
0.0702436
0.0714495
-0.156748
-0.122832
-0.0805852
-0.0467797
-0.0189169
0.00413173
0.0229917
0.0382287
0.0503572
0.0598316
0.0671894
0.0730498
0.0778637
0.0814013
0.0813786
-0.136575
-0.101567
-0.0608132
-0.0276321
-0.000630603
0.0215141
0.039514
0.0539128
0.0652209
0.0739353
0.0806503
0.0859357
0.0899829
0.0922286
0.0905139
-0.114934
-0.0788917
-0.0399345
-0.00770119
0.0183502
0.0394963
0.0565302
0.0699997
0.0804224
0.0883403
0.094379
0.098988
0.102042
0.102573
0.0986737
-0.0917632
-0.0552728
-0.0180218
0.012981
0.0379553
0.0580138
0.0739896
0.086449
0.0959308
0.103017
0.108321
0.112113
0.113935
0.112516
0.106731
-0.0671338
-0.0309416
0.00477677
0.0343693
0.0581216
0.0770003
0.0918368
0.103217
0.11171
0.117922
0.122401
0.125206
0.125622
0.12257
0.116554
-0.0412599
-0.00590178
0.0283145
0.0563859
0.0787836
0.0963891
0.110013
0.120257
0.127717
0.132999
0.136545
0.138214
0.137197
0.133024
0.12994
-0.0143475
0.0198231
0.0524667
0.0789323
0.0998672
0.116112
0.128458
0.137515
0.143898
0.148186
0.150698
0.151158
0.14887
0.144146
0.14302
0.0134138
0.0461596
0.0771219
0.101904
0.12129
0.136098
0.147108
0.154933
0.160194
0.163422
0.164829
0.164098
0.160784
0.155908
0.155466
0.0418499
0.0729989
0.102171
0.125196
0.142963
0.156272
0.165897
0.172451
0.176544
0.178655
0.178922
0.177059
0.172872
0.167874
0.167352
0.070793
0.100213
0.127502
0.148705
0.164797
0.176556
0.184756
0.190002
0.192888
0.193842
0.192967
0.190045
0.185104
0.17988
0.17881
0.100081
0.127665
0.152999
0.172326
0.186698
0.19687
0.203612
0.207521
0.209169
0.208943
0.206936
0.202997
0.197324
0.191736
0.189979
0.129554
0.155218
0.178544
0.195955
0.208574
0.217132
0.222393
0.224943
0.225332
0.22392
0.2208
0.215885
0.209484
0.2034
0.200873
0.159055
0.182735
0.204016
0.219486
0.230332
0.237259
0.241024
0.242202
0.241322
0.238723
0.234502
0.228624
0.22148
0.214842
0.21153
0.18843
0.210081
0.229297
0.242817
0.251879
0.257168
0.259433
0.259234
0.257084
0.253308
0.248006
0.241182
0.233277
0.226023
0.221913
0.217529
0.237123
0.25427
0.265842
0.273123
0.276778
0.277546
0.275975
0.272562
0.267618
0.261248
0.253486
0.244825
0.236942
0.232017
0.246203
0.263733
0.27882
0.28846
0.293973
0.296009
0.295292
0.292362
0.287702
0.281609
0.274189
0.265504
0.25608
0.247542
0.241803
0.27431
0.289786
0.302836
0.310571
0.314342
0.31478
0.312601
0.308333
0.302444
0.295221
0.286772
0.277186
0.267019
0.257822
0.25125
0.301712
0.315161
0.326209
0.332079
0.334141
0.333014
0.329404
0.323826
0.316738
0.308411
0.29896
0.288492
0.277589
0.267727
0.260327
0.328276
0.33974
0.348835
0.35289
0.353289
0.350639
0.345634
0.338782
0.330524
0.321126
0.310703
0.299388
0.287772
0.277243
0.269009
0.353874
0.363413
0.370613
0.372913
0.371704
0.36758
0.361228
0.353144
0.343757
0.333322
0.321961
0.309828
0.297522
0.286333
0.27727
0.378385
0.386071
0.391447
0.392064
0.389309
0.38377
0.376124
0.366855
0.356382
0.344955
0.332699
0.319787
0.306815
0.29497
0.285089
0.401692
0.407614
0.411248
0.41026
0.406032
0.399143
0.390262
0.379864
0.368356
0.355981
0.342873
0.329223
0.315615
0.30313
0.292443
0.423689
0.427947
0.429929
0.427425
0.421803
0.413637
0.403587
0.39212
0.379632
0.366362
0.352453
0.338108
0.323894
0.310785
0.299316
0.444272
0.44698
0.447411
0.443487
0.436558
0.427194
0.416048
0.403577
0.390169
0.37606
0.361402
0.346411
0.331627
0.317915
0.305688
0.463348
0.464632
0.46362
0.458379
0.450236
0.43976
0.427596
0.414192
0.39993
0.385042
0.369692
0.354103
0.338786
0.324498
0.311547
0.480827
0.480828
0.478488
0.47204
0.462782
0.451285
0.438185
0.423924
0.408876
0.393275
0.377293
0.36116
0.345348
0.330514
0.316877
0.496629
0.495502
0.491956
0.484413
0.474145
0.461722
0.447775
0.432737
0.416977
0.40073
0.384179
0.367554
0.351291
0.335946
0.321667
0.510686
0.508594
0.503969
0.495447
0.484279
0.471031
0.456328
0.440597
0.424203
0.407381
0.390325
0.373265
0.356593
0.340777
0.32591
0.522953
0.520039
0.514473
0.505096
0.493143
0.479175
0.463812
0.447477
0.430527
0.413205
0.395709
0.37827
0.361237
0.344996
0.329599
0.533392
0.529777
0.523421
0.51332
0.500701
0.486122
0.470199
0.453349
0.435928
0.418179
0.400312
0.382551
0.365208
0.348593
0.332735
0.541961
0.537768
0.530773
0.520083
0.506921
0.491844
0.475464
0.458193
0.440385
0.422288
0.404117
0.386096
0.368496
0.351565
0.335318
0.548622
0.54398
0.5365
0.525358
0.51178
0.496319
0.479587
0.461991
0.443885
0.425518
0.407115
0.388895
0.371097
0.353916
0.337355
0.553343
0.54839
0.540576
0.529124
0.515258
0.499531
0.482552
0.46473
0.446416
0.427861
0.409297
0.390942
0.373012
0.35565
0.33884
0.556103
0.550981
0.542987
0.531365
0.51734
0.501465
0.48435
0.4664
0.447967
0.429305
0.410649
0.392217
0.374212
0.356739
0.339757
0.556888
0.551742
0.543722
0.532072
0.518019
0.502116
0.484972
0.466994
0.448532
0.429843
0.41116
0.392701
0.374659
0.357136
0.340109
0.555694
0.550669
0.542778
0.531242
0.517292
0.50148
0.484417
0.46651
0.448111
0.429475
0.410835
0.392406
0.374382
0.356884
0.33991
0.552525
0.547767
0.540157
0.528879
0.515162
0.499561
0.482688
0.464952
0.446708
0.428208
0.409683
0.391349
0.373417
0.35603
0.339182
0.547397
0.543044
0.535871
0.524991
0.511637
0.496365
0.47979
0.462325
0.444326
0.426043
0.407704
0.389529
0.371758
0.354564
0.337926
0.54033
0.536518
0.529935
0.519594
0.506731
0.491905
0.475736
0.458639
0.440974
0.422987
0.404902
0.386948
0.369397
0.352466
0.336126
0.531357
0.528211
0.522373
0.512709
0.500464
0.4862
0.47054
0.453908
0.436663
0.419052
0.40129
0.383614
0.366337
0.349733
0.333777
0.520513
0.518156
0.513218
0.504366
0.492861
0.47927
0.464223
0.448149
0.431411
0.414252
0.396882
0.379542
0.36259
0.346369
0.330873
0.507832
0.506404
0.502511
0.494599
0.483953
0.471145
0.456809
0.441383
0.425236
0.408606
0.391695
0.374749
0.358171
0.342383
0.327414
0.493348
0.493015
0.4903
0.483449
0.473777
0.461855
0.448328
0.433638
0.41816
0.402133
0.385748
0.369254
0.353096
0.337788
0.323404
0.477121
0.478044
0.476634
0.470963
0.462374
0.45144
0.438812
0.424942
0.410212
0.394857
0.379062
0.363076
0.347383
0.332595
0.318851
0.459224
0.461552
0.461569
0.457193
0.449791
0.43994
0.428299
0.415329
0.401418
0.386805
0.371664
0.356238
0.341052
0.326822
0.313762
0.439738
0.443606
0.445167
0.442194
0.436079
0.427402
0.41683
0.404835
0.391814
0.378007
0.363577
0.348763
0.334125
0.320483
0.30815
0.418752
0.424284
0.427496
0.42603
0.421295
0.413876
0.404452
0.393501
0.381433
0.368491
0.354831
0.340679
0.326625
0.313599
0.302026
0.396362
0.40367
0.408632
0.408768
0.405499
0.399417
0.391212
0.381371
0.370317
0.358298
0.345459
0.332015
0.318577
0.306189
0.295406
0.372672
0.381854
0.388656
0.390481
0.388758
0.384086
0.377164
0.368494
0.358508
0.34746
0.33549
0.322798
0.31001
0.298278
0.288305
0.347792
0.358935
0.367657
0.37125
0.371142
0.367943
0.362364
0.354917
0.346048
0.33602
0.324966
0.313067
0.300953
0.289888
0.280743
0.321841
0.335015
0.345726
0.351156
0.352725
0.351057
0.346873
0.340696
0.332988
0.32402
0.313919
0.302846
0.291434
0.281047
0.27274
0.294944
0.310205
0.322962
0.330287
0.333587
0.333497
0.330752
0.325886
0.319375
0.311501
0.302391
0.292183
0.281495
0.271786
0.264318
0.26723
0.284618
0.299468
0.308736
0.313808
0.315338
0.314068
0.310548
0.305265
0.298517
0.290425
0.281104
0.271154
0.262125
0.255503
0.238837
0.258376
0.275351
0.286599
0.293477
0.296655
0.296889
0.294739
0.290708
0.285107
0.278058
0.269653
0.260465
0.252112
0.24632
0.209907
0.231604
0.250723
0.263976
0.27268
0.277527
0.279285
0.278525
0.275765
0.271331
0.265346
0.257871
0.249446
0.241755
0.236798
0.180589
0.204429
0.225698
0.240968
0.251508
0.258036
0.261327
0.261968
0.26049
0.257234
0.252322
0.245792
0.238145
0.231113
0.226968
0.151034
0.176987
0.200396
0.217681
0.230056
0.238263
0.243089
0.245133
0.244942
0.242874
0.239049
0.233474
0.226595
0.220189
0.216852
0.121399
0.149414
0.174938
0.194222
0.208418
0.218294
0.224646
0.228086
0.22918
0.228301
0.225566
0.220945
0.21483
0.209035
0.20649
0.0918444
0.121851
0.149446
0.170698
0.18669
0.198212
0.206071
0.210892
0.21326
0.21357
0.211937
0.20828
0.202909
0.197659
0.195888
0.0625341
0.0944396
0.124045
0.14722
0.164966
0.178103
0.187441
0.193617
0.197238
0.198729
0.198201
0.195513
0.19086
0.186086
0.185074
0.0336358
0.0673254
0.0988581
0.123893
0.143345
0.158053
0.168831
0.176327
0.18117
0.183824
0.184413
0.182726
0.178791
0.174359
0.174015
0.00531947
0.0406491
0.0740041
0.100828
0.121922
0.138144
0.150315
0.159088
0.165111
0.168896
0.170604
0.169954
0.16675
0.162505
0.162681
-0.0222357
0.0145442
0.0495993
0.0781307
0.10079
0.118457
0.131964
0.141966
0.149117
0.153983
0.156799
0.157251
0.154886
0.150721
0.150925
-0.0488451
-0.0108823
0.0257566
0.0559124
0.0800407
0.099069
0.113849
0.125026
0.133247
0.139127
0.143009
0.144614
0.143238
0.139174
0.138583
-0.0742984
-0.0355633
0.00259363
0.0342825
0.0597597
0.0800538
0.0960362
0.108331
0.117564
0.124379
0.129246
0.132016
0.131856
0.128271
0.125569
-0.098374
-0.0594946
-0.0197542
0.0133432
0.0400218
0.061481
0.0785875
0.0919371
0.102125
0.109798
0.115539
0.119395
0.12061
0.118052
0.112261
-0.120831
-0.0826722
-0.0411252
-0.00682929
0.0208941
0.0434196
0.0615636
0.0758957
0.0869833
0.0954481
0.101941
0.106725
0.109289
0.108271
0.102567
-0.141685
-0.104722
-0.0613663
-0.0261936
0.0024429
0.0259383
0.0450206
0.0602514
0.0721805
0.0813845
0.088528
0.094061
0.0977945
0.0986636
0.094865
-0.160977
-0.125168
-0.0804277
-0.044713
-0.0152553
0.00910389
0.0290092
0.0450443
0.0577508
0.0676511
0.0753768
0.0815098
0.0861787
0.0887397
0.0872225
-0.178617
-0.143693
-0.0983956
-0.062314
-0.0321145
-0.00702486
0.0135743
0.0303112
0.0437229
0.0542774
0.0625456
0.0691711
0.0745551
0.0784054
0.0786439
-0.194461
-0.160287
-0.115288
-0.0788722
-0.048054
-0.0224018
-0.00124506
0.0160871
0.0301223
0.0412812
0.0500622
0.0571063
0.0630173
0.0677811
0.0692558
-0.208397
-0.175203
-0.130938
-0.0942481
-0.0630182
-0.0369941
-0.015414
0.00240498
0.0169727
0.0286734
0.0379332
0.0453414
0.0516246
0.0570146
0.0595211
-0.220361
-0.18856
-0.145234
-0.108359
-0.0769867
-0.0507778
-0.0289013
-0.0107054
0.00429573
0.0164629
0.0261562
0.0338827
0.0404235
0.0462497
0.0497121
-0.23033
-0.200327
-0.158028
-0.121301
-0.0899723
-0.0637336
-0.0416803
-0.0232195
-0.00788898
0.00465968
0.0147312
0.0227338
0.0294527
0.0356033
0.0399316
-0.238314
-0.210435
-0.169309
-0.133122
-0.102027
-0.0758489
-0.0537332
-0.035119
-0.0195645
-0.00672473
0.00366424
0.0119043
0.0187375
0.0251365
0.030234
-0.244366
-0.218862
-0.179149
-0.143821
-0.113193
-0.0871383
-0.0650545
-0.0463926
-0.0307164
-0.0176777
-0.00703511
0.00140937
0.00829332
0.0148606
0.0206508
-0.248594
-0.225657
-0.187654
-0.153421
-0.123433
-0.0976531
-0.0756618
-0.0570383
-0.0413336
-0.0281881
-0.0173584
-0.00873488
-0.00185972
0.00475995
0.0111874
-0.251169
-0.230944
-0.194947
-0.161967
-0.132735
-0.107371
-0.085596
-0.0670754
-0.0514128
-0.0382455
-0.0273035
-0.01852
-0.0116777
-0.00518988
0.00183332
-0.252323
-0.234906
-0.201175
-0.169528
-0.141115
-0.116275
-0.0948421
-0.0765272
-0.0609765
-0.0478436
-0.0368712
-0.0279562
-0.0211208
-0.0149797
-0.00743274
-0.252352
-0.23782
-0.2065
-0.176178
-0.148608
-0.12437
-0.103388
-0.0853829
-0.0700284
-0.0570068
-0.0460595
-0.0370735
-0.0301905
-0.0245299
-0.0166596
-0.25158
-0.240059
-0.211072
-0.181984
-0.155255
-0.131683
-0.11124
-0.0936353
-0.0785585
-0.0657246
-0.0548775
-0.0459106
-0.0389417
-0.0336942
-0.0259349
-0.250393
-0.241911
-0.214986
-0.186994
-0.161095
-0.138251
-0.118422
-0.101291
-0.0865593
-0.0739803
-0.0633156
-0.0544508
-0.0474695
-0.0423509
-0.0353476
-0.249215
-0.243482
-0.218254
-0.191221
-0.166167
-0.144117
-0.124969
-0.108367
-0.094035
-0.0817688
-0.0713569
-0.0626641
-0.0557421
-0.050651
-0.0447917
-0.248384
-0.244755
-0.22081
-0.194651
-0.170499
-0.149324
-0.130914
-0.114885
-0.100998
-0.0890947
-0.0789892
-0.0705261
-0.0637293
-0.0587239
-0.0538265
-0.248042
-0.245573
-0.222504
-0.197246
-0.174124
-0.153916
-0.136287
-0.120864
-0.107465
-0.0959681
-0.0862109
-0.0780266
-0.0714162
-0.0665697
-0.0622504
-0.248028
-0.245556
-0.223112
-0.198965
-0.17708
-0.157929
-0.141106
-0.126319
-0.113451
-0.102403
-0.0930295
-0.0851648
-0.0787887
-0.0741313
-0.070083
-0.247761
-0.243982
-0.222345
-0.199798
-0.179422
-0.161385
-0.145377
-0.131261
-0.118975
-0.108419
-0.0994579
-0.0919409
-0.0858286
-0.0813672
-0.0774451
-0.24622
-0.239886
-0.219984
-0.199819
-0.181204
-0.164281
-0.149098
-0.135706
-0.124058
-0.114036
-0.105511
-0.0983592
-0.0925262
-0.0882705
-0.0844577
-0.242135
-0.232391
-0.216055
-0.199212
-0.182444
-0.166584
-0.152269
-0.13968
-0.128728
-0.119271
-0.111203
-0.10443
-0.0988877
-0.0948599
-0.0912029
-0.235239
-0.221475
-0.211197
-0.198225
-0.183076
-0.16825
-0.154917
-0.143228
-0.133015
-0.124143
-0.116548
-0.11017
-0.104932
-0.101161
-0.0977226
-0.22619
-0.208882
-0.206791
-0.196924
-0.18298
-0.169296
-0.157116
-0.146405
-0.13695
-0.128669
-0.121558
-0.115594
-0.11068
-0.107197
-0.104034
-0.216305
-0.198081
-0.20347
-0.195013
-0.182125
-0.169851
-0.158979
-0.149267
-0.140556
-0.132865
-0.126251
-0.120722
-0.116152
-0.112983
-0.110142
-0.206957
-0.191898
-0.200643
-0.192177
-0.180693
-0.170144
-0.160622
-0.151853
-0.143851
-0.13675
-0.130644
-0.12557
-0.121367
-0.118534
-0.116051
-0.198971
-0.190514
-0.196856
-0.188466
-0.179097
-0.170427
-0.162119
-0.154181
-0.146856
-0.140346
-0.134758
-0.130155
-0.126338
-0.123862
-0.121772
-0.192777
-0.191626
-0.19098
-0.184435
-0.177854
-0.170839
-0.163469
-0.156262
-0.149599
-0.143683
-0.138614
-0.13449
-0.131077
-0.128983
-0.127329
-0.188334
-0.191972
-0.183379
-0.181178
-0.177314
-0.171315
-0.164628
-0.158119
-0.152121
-0.146791
-0.142227
-0.138581
-0.135586
-0.133901
-0.132744
-0.185146
-0.190555
-0.176347
-0.179952
-0.177278
-0.171625
-0.165584
-0.159809
-0.154466
-0.149694
-0.145608
-0.14243
-0.139867
-0.138619
-0.138032
-0.182853
-0.187297
-0.173754
-0.180213
-0.176922
-0.171643
-0.166421
-0.161398
-0.156664
-0.152407
-0.148764
-0.146036
-0.143913
-0.143126
-0.143199
-0.181054
-0.182909
-0.175701
-0.179329
-0.17568
-0.171506
-0.167258
-0.162926
-0.15873
-0.154934
-0.15169
-0.149389
-0.147715
-0.147411
-0.148232
-0.179438
-0.178931
-0.17843
-0.175295
-0.173864
-0.171523
-0.168137
-0.164386
-0.160666
-0.15728
-0.154384
-0.152474
-0.151256
-0.151457
-0.153109
-0.177961
-0.176334
-0.179276
-0.169898
-0.172808
-0.171755
-0.168979
-0.165773
-0.162485
-0.159442
-0.156827
-0.155266
-0.154514
-0.155248
-0.15779
-0.176577
-0.175051
-0.177667
-0.16861
-0.172824
-0.171889
-0.169746
-0.167122
-0.164204
-0.161415
-0.158995
-0.157725
-0.157451
-0.158756
-0.162247
-0.175273
-0.17435
-0.174824
-0.171668
-0.171813
-0.171713
-0.170589
-0.168502
-0.165837
-0.163177
-0.160841
-0.159795
-0.160021
-0.161952
-0.166449
-0.174094
-0.173691
-0.172764
-0.17437
-0.169235
-0.171666
-0.171585
-0.169933
-0.167396
-0.1647
-0.162307
-0.161402
-0.162156
-0.164807
-0.170387
-0.173004
-0.172942
-0.171948
-0.174284
-0.168626
-0.172142
-0.172645
-0.171438
-0.168889
-0.165923
-0.163296
-0.162459
-0.163786
-0.167278
-0.17405
-0.171927
-0.172084
-0.171718
-0.172802
-0.171641
-0.172084
-0.173687
-0.173111
-0.170312
-0.166751
-0.163687
-0.162851
-0.16483
-0.169336
-0.177439
-0.170796
-0.171156
-0.171451
-0.171998
-0.174487
-0.171581
-0.175054
-0.174981
-0.171591
-0.167024
-0.163324
-0.162475
-0.165206
-0.170924
-0.18055
-0.169584
-0.170195
-0.170965
-0.171921
-0.174617
-0.173221
-0.176595
-0.176966
-0.172587
-0.166533
-0.16203
-0.161197
-0.164827
-0.172005
-0.18338
-0.168327
-0.169198
-0.170331
-0.171956
-0.174145
-0.176804
-0.177729
-0.179007
-0.17301
-0.165011
-0.159638
-0.158912
-0.163588
-0.17251
-0.185941
-0.167128
-0.168236
-0.169629
-0.171723
-0.174152
-0.178587
-0.179429
-0.180908
-0.172346
-0.162216
-0.155991
-0.155475
-0.161405
-0.1724
-0.188232
-0.166163
-0.167466
-0.169016
-0.171389
-0.17422
-0.178185
-0.182462
-0.181342
-0.170028
-0.158018
-0.150991
-0.150762
-0.158178
-0.171649
-0.190296
-0.16566
-0.167121
-0.168784
-0.171289
-0.174115
-0.177497
-0.183831
-0.179295
-0.16574
-0.152423
-0.144498
-0.144662
-0.153926
-0.170254
-0.192162
-0.165844
-0.167444
-0.169266
-0.17188
-0.17448
-0.177145
-0.181334
-0.175288
-0.15943
-0.145528
-0.136422
-0.137201
-0.148723
-0.16832
-0.193911
-0.166848
-0.168571
-0.170654
-0.173494
-0.175969
-0.177558
-0.17773
-0.169615
-0.151712
-0.137429
-0.126738
-0.128816
-0.142838
-0.165989
-0.195678
-0.168605
-0.170416
-0.172877
-0.176063
-0.178643
-0.179197
-0.175544
-0.163827
-0.14482
-0.128154
-0.116044
-0.120387
-0.136625
-0.163725
-0.197587
-0.170861
-0.172658
-0.175454
-0.179147
-0.181912
-0.181825
-0.17559
-0.161221
-0.139466
-0.118651
-0.106346
-0.1134
-0.13049
-0.162412
-0.199905
-0.173254
-0.174884
-0.177831
-0.181704