/*--------------------------------*- C++ -*----------------------------------*\
  =========                 |
  \\      /  F ield         | OpenFOAM: The Open Source CFD Toolbox
   \\    /   O peration     | Website:  https://openfoam.org
    \\  /    A nd           | Version:  7
     \\/     M anipulation  |
\*---------------------------------------------------------------------------*/
FoamFile
{
    version     2.0;
    format      ascii;
    class       surfaceScalarField;
    location    "36.9996";
    object      phi;
}
// * * * * * * * * * * * * * * * * * * * * * * * * * * * * * * * * * * * * * //

dimensions      [0 3 -1 0 0 0 0];

internalField   nonuniform List<scalar> 
37105
(
-8.76801e-06
-9.5002e-06
1.82682e-05
-2.09795e-05
-1.78499e-05
3.00614e-05
-3.37895e-05
-2.37869e-05
3.65969e-05
-4.72482e-05
-3.09929e-05
4.44516e-05
-6.14932e-05
-3.94323e-05
5.36772e-05
-7.66137e-05
-4.89344e-05
6.40549e-05
-9.26902e-05
-5.93807e-05
7.54573e-05
-0.000109771
-7.05986e-05
8.76792e-05
-0.000127879
-8.24311e-05
0.000100539
-0.000147001
-9.46688e-05
0.00011379
-0.000167089
-0.000107041
0.000127128
-0.000188057
-0.00011916
0.000140129
-0.000209799
-0.000130589
0.000152332
-0.000232218
-0.000140955
0.000163374
-0.000150165
0.000173254
-0.000255306
-8.76762e-06
-7.32575e-07
-2.0964e-05
-5.65357e-06
-3.37548e-05
-1.09962e-05
-4.71995e-05
-1.75482e-05
-6.14355e-05
-2.51962e-05
-7.65587e-05
-3.38112e-05
-9.26636e-05
-4.32758e-05
-0.000109815
-5.34476e-05
-0.000128064
-6.41814e-05
-0.000147437
-7.52958e-05
-0.000167929
-8.65487e-05
-0.000189495
-9.75945e-05
-0.000212065
-0.00010802
-0.000235551
-0.000117469
-0.000125863
-0.000259853
-8.63899e-06
7.90641e-06
-2.06959e-05
6.40338e-06
-3.3347e-05
1.65489e-06
-4.66512e-05
-4.24394e-06
-6.07332e-05
-1.11143e-05
-7.56975e-05
-1.88469e-05
-9.16421e-05
-2.73312e-05
-0.000108637
-3.64525e-05
-0.000126757
-4.60613e-05
-0.000146055
-5.59986e-05
-0.000166556
-6.60477e-05
-0.000188247
-7.59034e-05
-0.000211083
-8.51832e-05
-0.000235003
-9.35492e-05
-0.0001009
-0.000259966
-8.3828e-06
1.62892e-05
-2.01749e-05
1.81954e-05
-3.2588e-05
1.40681e-05
-4.56217e-05
8.78975e-06
-5.94119e-05
2.67587e-06
-7.40692e-05
-4.18954e-06
-8.96755e-05
-1.17249e-05
-0.000106306
-1.98221e-05
-0.000124048
-2.83196e-05
-0.000142962
-3.70844e-05
-0.000163092
-4.59175e-05
-0.000184445
-5.45498e-05
-0.000206993
-6.26359e-05
-0.000230702
-6.98397e-05
-7.5999e-05
-0.000255603
-8.00754e-06
2.42967e-05
-1.9422e-05
2.96099e-05
-3.14721e-05
2.61182e-05
-4.41233e-05
2.14409e-05
-5.75161e-05
1.60687e-05
-7.1721e-05
1.00154e-05
-8.68235e-05
3.3776e-06
-0.000102904
-3.74183e-06
-0.000120045
-1.1178e-05
-0.000138296
-1.88337e-05
-0.000157722
-2.64918e-05
-0.000178334
-3.39376e-05
-0.000200102
-4.08675e-05
-0.000223015
-4.69271e-05
-5.18795e-05
-0.000247135
-7.51885e-06
3.18156e-05
-1.84448e-05
4.05359e-05
-3.0033e-05
3.77064e-05
-4.2199e-05
3.36069e-05
-5.50637e-05
2.89334e-05
-6.8694e-05
2.36457e-05
-8.3169e-05
1.78526e-05
-9.85463e-05
1.16355e-05
-0.000114888
5.16353e-06
-0.000132238
-1.48341e-06
-0.000150695
-8.0348e-06
-0.000170236
-1.43971e-05
-0.000190818
-2.02849e-05
-0.000212453
-2.52925e-05
-2.91412e-05
-0.000235191
-6.92372e-06
3.87393e-05
-1.72576e-05
5.08698e-05
-2.82928e-05
4.87416e-05
-3.98784e-05
4.51925e-05
-5.21161e-05
4.11711e-05
-6.50635e-05
3.6593e-05
-7.87814e-05
3.15705e-05
-9.33181e-05
2.61722e-05
-0.000108709
2.0554e-05
-0.000125032
1.48395e-05
-0.000142286
9.21937e-06
-0.000160495
3.81178e-06
-0.000179583
-1.19612e-06
-0.000199592
-5.28422e-06
-8.20231e-06
-0.000220531
-6.23192e-06
4.49712e-05
-1.58758e-05
6.05137e-05
-2.62739e-05
5.91396e-05
-3.71972e-05
5.61158e-05
-4.87266e-05
5.27006e-05
-6.09037e-05
4.87701e-05
-7.37717e-05
4.44385e-05
-8.736e-05
3.97605e-05
-0.00010169
3.48844e-05
-0.000116801
2.99503e-05
-0.000132713
2.51311e-05
-0.000149417
2.05158e-05
-0.000166898
1.62853e-05
-0.000185044
1.2862e-05
1.06663e-05
-0.000203913
-5.46019e-06
5.04314e-05
-1.43149e-05
6.93684e-05
-2.40003e-05
6.8825e-05
-3.41921e-05
6.63076e-05
-4.49442e-05
6.34527e-05
-5.62816e-05
6.01074e-05
-6.82289e-05
5.63858e-05
-8.0797e-05
5.23287e-05
-9.39921e-05
4.80794e-05
-0.000107821
4.3779e-05
-0.000122294
3.96045e-05
-0.000137409
3.56306e-05
-0.000153116
3.19926e-05
-0.000169304
2.90498e-05
2.73238e-05
-0.000185962
-4.61004e-06
5.50415e-05
-1.25867e-05
7.7345e-05
-2.14959e-05
7.77342e-05
-3.08996e-05
7.57113e-05
-4.08186e-05
7.33718e-05
-5.12623e-05
7.05511e-05
-6.22367e-05
6.73602e-05
-7.37362e-05
6.38282e-05
-8.57501e-05
6.00934e-05
-9.82612e-05
5.629e-05
-0.000111256
5.25997e-05
-0.000124731
4.91048e-05
-0.000138641
4.59036e-05
-0.000152866
4.32743e-05
4.17396e-05
-0.000167282
-3.66817e-06
5.87096e-05
-1.07e-05
8.43769e-05
-1.87841e-05
8.58183e-05
-2.73553e-05
8.42825e-05
-3.63979e-05
8.24143e-05
-4.59073e-05
8.00605e-05
-5.58725e-05
7.73254e-05
-6.62721e-05
7.42277e-05
-7.70797e-05
7.0901e-05
-8.82618e-05
6.74721e-05
-9.97871e-05
6.4125e-05
-0.000111638
6.09557e-05
-0.000123776
5.80421e-05
-0.00013606
5.55579e-05
5.40185e-05
-0.000148339
-2.6502e-06
6.13598e-05
-8.66929e-06
9.0396e-05
-1.58887e-05
9.30377e-05
-2.35936e-05
9.19875e-05
-3.17276e-05
9.05482e-05
-4.02747e-05
8.86077e-05
-4.92082e-05
8.62588e-05
-5.84922e-05
8.35118e-05
-6.8086e-05
8.04948e-05
-7.79418e-05
7.73279e-05
-8.80126e-05
7.41959e-05
-9.82619e-05
7.1205e-05
-0.000108656
6.84359e-05
-0.000119108
6.60105e-05
6.42602e-05
-0.00012935
-1.5625e-06
6.29223e-05
-6.5151e-06
9.53486e-05
-1.28351e-05
9.93577e-05
-1.9648e-05
9.88003e-05
-2.68513e-05
9.77515e-05
-3.44186e-05
9.61751e-05
-4.23092e-05
9.41494e-05
-5.04746e-05
9.16772e-05
-5.88616e-05
8.88817e-05
-6.7411e-05
8.58773e-05
-7.6069e-05
8.28538e-05
-8.47942e-05
7.99302e-05
-9.35137e-05
7.71554e-05
-0.000102103
7.45995e-05
7.25333e-05
-0.000110376
-3.91686e-07
6.3314e-05
-4.26832e-06
9.92252e-05
-9.64908e-06
0.000104738
-1.55511e-05
0.000104702
-2.18102e-05
0.000104011
-2.83894e-05
0.000102754
-3.52346e-05
0.000100995
-4.22864e-05
9.87291e-05
-4.94807e-05
9.60761e-05
-5.67469e-05
9.31435e-05
-6.4019e-05
9.0126e-05
-7.12639e-05
8.71751e-05
-7.84327e-05
8.43242e-05
-8.53182e-05
8.1485e-05
7.92989e-05
-9.20838e-05
7.27145e-07
6.25869e-05
-1.96874e-06
0.000101921
-6.35639e-06
0.000109126
-1.13355e-05
0.000109681
-1.6644e-05
0.000109319
-2.22338e-05
0.000108344
-2.80371e-05
0.000106798
-3.39856e-05
0.000104678
-4.00053e-05
0.000102096
-4.60158e-05
9.91541e-05
-5.19325e-05
9.60426e-05
-5.77075e-05
9.29501e-05
-6.33692e-05
8.99859e-05
-6.87114e-05
8.68271e-05
8.38491e-05
-7.32616e-05
1.832e-06
6.07549e-05
3.64077e-07
0.000103389
-2.99152e-06
0.000112482
-7.03418e-06
0.000113724
-1.13897e-05
0.000113675
-1.59959e-05
0.00011295
-2.07651e-05
0.000111567
-2.56233e-05
0.000109536
-3.04858e-05
0.000106958
-3.5267e-05
0.000103935
-3.98685e-05
0.000100644
-4.41948e-05
9.72764e-05
-4.83203e-05
9.41114e-05
-5.22013e-05
9.07082e-05
8.63687e-05
-5.47208e-05
2.94636e-06
5.78085e-05
2.77251e-06
0.000103563
3.84431e-07
0.00011487
-2.6788e-06
0.000116787
-6.08896e-06
0.000117085
-9.71946e-06
0.000116581
-1.34636e-05
0.000115311
-1.72474e-05
0.00011332
-2.09694e-05
0.00011068
-2.45384e-05
0.000107504
-2.78596e-05
0.000103965
-3.07821e-05
0.000100199
-3.32322e-05
9.65615e-05
-3.57618e-05
9.32377e-05
8.70672e-05
-3.64603e-05
4.02438e-06
5.37841e-05
5.16959e-06
0.000102418
3.91531e-06
0.000116124
1.71631e-06
0.000118986
-8.00761e-07
0.000119602
-3.44982e-06
0.00011923
-6.18176e-06
0.000118043
-8.90575e-06
0.000116044
-1.15041e-05
0.000113279
-1.38726e-05
0.000109873
-1.59276e-05
0.00010602
-1.7529e-05
0.0001018
-1.8371e-05
9.74035e-05
-1.93019e-05
9.41686e-05
8.63686e-05
-1.86033e-05
5.01881e-06
4.87653e-05
7.51407e-06
9.99224e-05
7.38039e-06
0.000116258
6.14591e-06
0.000120221
4.54629e-06
0.000121201
2.79819e-06
0.000120978
1.01283e-06
0.000119829
-6.67146e-07
0.000117724
-2.15026e-06
0.000114762
-3.33021e-06
0.000111053
-4.10354e-06
0.000106794
-4.39716e-06
0.000102094
-3.9426e-06
9.69489e-05
-2.57522e-06
9.28013e-05
8.53889e-05
-1.59554e-06
5.87387e-06
4.28914e-05
9.7435e-06
9.60528e-05
1.07844e-05
0.000115217
1.05096e-05
0.000120496
9.8161e-06
0.000121895
9.00184e-06
0.000121792
8.20304e-06
0.000120627
7.53028e-06
0.000118396
7.10918e-06
0.000115183
7.08287e-06
0.000111079
7.56751e-06
0.000106309
8.60622e-06
0.000101055
1.05957e-05
9.49594e-05
1.31541e-05
9.02429e-05
8.23186e-05
1.62244e-05
6.52373e-06
3.63677e-05
1.17877e-05
9.07888e-05
1.40719e-05
0.000112933
1.47795e-05
0.000119788
1.49762e-05
0.000121698
1.50608e-05
0.000121708
1.52e-05
0.000120488
1.55275e-05
0.000118069
1.61676e-05
0.000114543
1.72839e-05
0.000109963
1.90423e-05
0.000104551
2.13215e-05
9.87761e-05
2.49617e-05
9.13193e-05
2.89463e-05
8.62582e-05
7.75352e-05
3.37298e-05
6.89443e-06
2.94733e-05
1.35644e-05
8.41188e-05
1.71684e-05
0.000109329
1.89047e-05
0.000118052
1.99865e-05
0.000120616
2.09406e-05
0.000120754
2.19876e-05
0.000119441
2.32822e-05
0.000116774
2.49595e-05
0.000112865
2.71738e-05
0.000107748
3.02478e-05
0.000101477
3.3731e-05
9.52929e-05
3.89612e-05
8.60891e-05
4.46922e-05
8.05272e-05
7.11029e-05
5.11245e-05
6.9175e-06
2.25558e-05
1.498e-05
7.60563e-05
1.99829e-05
0.000104326
2.28159e-05
0.000115219
2.4795e-05
0.000118637
2.6595e-05
0.000118954
2.85125e-05
0.000117524
3.07347e-05
0.000114552
3.34323e-05
0.000110168
3.66574e-05
0.000104523
4.11014e-05
9.70326e-05
4.57612e-05
9.06331e-05
5.24823e-05
7.93679e-05
6.0112e-05
7.28975e-05
6.26569e-05
6.8558e-05
6.55961e-06
1.59962e-05
1.59316e-05
6.66843e-05
2.24039e-05
9.78534e-05
2.6427e-05
0.000111196
2.93389e-05
0.000115725
3.19685e-05
0.000116324
3.47149e-05
0.000114777
3.78087e-05
0.000111458
4.15235e-05
0.000106453
4.56663e-05
0.000100381
5.14857e-05
9.12132e-05
5.73784e-05
8.47404e-05
6.53729e-05
7.13735e-05
7.47609e-05
6.35095e-05
5.14529e-05
8.59649e-05
5.85357e-06
1.01426e-05
1.63108e-05
5.62271e-05
2.43006e-05
8.98636e-05
2.96311e-05
0.000105865
3.35391e-05
0.000111817
3.69926e-05
0.00011287
4.05329e-05
0.000111237
4.4412e-05
0.000107579
4.91502e-05
0.000101715
5.41265e-05
9.54042e-05
6.11977e-05
8.4142e-05
6.85628e-05
7.73753e-05
7.77513e-05
6.2185e-05
8.81713e-05
5.30895e-05
3.69033e-05
0.000102721
4.89747e-06
5.24513e-06
1.60151e-05
4.51094e-05
2.55293e-05
8.03495e-05
3.22956e-05
9.9099e-05
3.72913e-05
0.000106822
4.15822e-05
0.00010858
4.59006e-05
0.000106919
5.04559e-05
0.000103024
5.61855e-05
9.59852e-05
6.20193e-05
8.95704e-05
6.99698e-05
7.61914e-05
7.89457e-05
6.83995e-05
8.99454e-05
5.11853e-05
0.000100625
4.24098e-05
1.93217e-05
0.000118207
3.81756e-06
1.42757e-06
1.49798e-05
3.39471e-05
2.5944e-05
6.93852e-05
3.42539e-05
9.07891e-05
4.04584e-05
0.000100617
4.56214e-05
0.000103417
5.07306e-05
0.000101809
5.58856e-05
9.78689e-05
6.24455e-05
8.94253e-05
6.93468e-05
8.26691e-05
7.77611e-05
6.77771e-05
8.79143e-05
5.82463e-05
0.000101335
3.77643e-05
0.000112596
3.11487e-05
-4.05709e-07
0.000132324
2.74293e-06
-1.31536e-06
1.32418e-05
2.34482e-05
2.54121e-05
5.7215e-05
3.53042e-05
8.08969e-05
4.28537e-05
9.30676e-05
4.8963e-05
9.73072e-05
5.48862e-05
9.58861e-05
6.06486e-05
9.21064e-05
6.76688e-05
8.2405e-05
7.59431e-05
7.43948e-05
8.47947e-05
5.89255e-05
9.54993e-05
4.75417e-05
0.000110628
2.26359e-05
0.0001234
1.8376e-05
-2.14731e-05
0.000144468
1.79933e-06
-3.11469e-06
1.09874e-05
1.42601e-05
2.38375e-05
4.43649e-05
3.52203e-05
6.95142e-05
4.42398e-05
8.40481e-05
5.13997e-05
9.01473e-05
5.81533e-05
8.91326e-05
6.47438e-05
8.55159e-05
7.16899e-05
7.54589e-05
8.11677e-05
6.4917e-05
9.08635e-05
4.92297e-05
0.000102401
3.60041e-05
0.000116822
8.21476e-06
0.000133138
2.05989e-06
-4.22093e-05
0.000153875
1.08158e-06
-4.19627e-06
8.51274e-06
6.82895e-06
2.12129e-05
3.16648e-05
3.37919e-05
5.69351e-05
4.43212e-05
7.35188e-05
5.27113e-05
8.17573e-05
6.01618e-05
8.16821e-05
6.79115e-05
7.77662e-05
7.48156e-05
6.85549e-05
8.48844e-05
5.48482e-05
9.45394e-05
3.95748e-05
0.000108827
2.17164e-05
0.000119823
-2.78077e-06
0.000141533
-1.9651e-05
-5.89112e-05
0.000158235
6.07784e-07
-4.80405e-06
6.21345e-06
1.22329e-06
1.77342e-05
2.0144e-05
3.09125e-05
4.37569e-05
4.27749e-05
6.16564e-05
5.25675e-05
7.19647e-05
6.0686e-05
7.35636e-05
6.94566e-05
6.89956e-05
7.68658e-05
6.11457e-05
8.74255e-05
4.42885e-05
9.62864e-05
3.07138e-05
0.000112767
5.23546e-06
0.000123087
-1.31004e-05
0.000144663
-4.1227e-05
-7.28664e-05
0.000158618
3.34593e-07
-5.13864e-06
4.32753e-06
-2.76965e-06
1.38817e-05
1.05898e-05
2.67166e-05
3.09219e-05
3.93892e-05
4.89838e-05
5.05232e-05
6.08307e-05
5.93575e-05
6.47293e-05
6.90691e-05
5.9284e-05
7.66487e-05
5.35661e-05
8.89087e-05
3.20285e-05
9.5827e-05
2.37955e-05
0.000114795
-1.37327e-05
0.000121914
-2.02196e-05
0.000145566
-6.48787e-05
-8.61767e-05
0.000158876
2.11936e-07
-5.35058e-06
2.98279e-06
-5.5405e-06
1.02732e-05
3.29935e-06
2.16824e-05
1.95128e-05
3.42558e-05
3.64104e-05
4.62546e-05
4.88319e-05
5.57987e-05
5.51852e-05
6.61826e-05
4.89001e-05
7.41384e-05
4.56103e-05
8.64565e-05
1.97104e-05
9.4815e-05
1.5437e-05
0.000112975
-3.18922e-05
0.000119059
-2.63037e-05
0.000146663
-9.24827e-05
-8.89607e-05
0.000149447
1.9486e-07
-5.54544e-06
2.13581e-06
-7.48145e-06
7.34676e-06
-1.91161e-06
1.6529e-05
1.03306e-05
2.79151e-05
2.50242e-05
3.97474e-05
3.69996e-05
4.98367e-05
4.50959e-05
5.99595e-05
3.87772e-05
6.91055e-05
3.64643e-05
7.9095e-05
9.72084e-06
9.00236e-05
4.50841e-06
0.000102339
-4.42074e-05
0.000112628
-3.65926e-05
0.00013765
-0.000117505
-9.36169e-05
0.000142306
2.26779e-07
-5.77222e-06
1.60459e-06
-8.85926e-06
5.1452e-06
-5.45221e-06
1.18571e-05
3.61872e-06
2.11632e-05
1.57181e-05
3.15506e-05
2.66122e-05
4.15221e-05
3.51244e-05
5.06433e-05
2.9656e-05
5.99237e-05
2.7184e-05
6.78968e-05
1.7477e-06
7.86177e-05
-6.2125e-06
8.46535e-05
-5.02431e-05
0.000102238
-5.41775e-05
0.000120054
-0.00013532
-0.000129806
0.000156243
2.34726e-07
-6.00694e-06
1.14843e-06
-9.77296e-06
3.38054e-06
-7.68432e-06
7.81787e-06
-8.18605e-07
1.45801e-05
8.9559e-06
2.26226e-05
1.85697e-05
3.13203e-05
2.64267e-05
3.89242e-05
2.20521e-05
4.70248e-05
1.90833e-05
5.37848e-05
-5.01226e-06
6.39252e-05
-1.6353e-05
7.34121e-05
-5.973e-05
0.000104287
-8.50526e-05
0.000133697
-0.00016473
-0.000193278
0.000197168
1.47686e-07
-6.15463e-06
5.5054e-07
-1.01758e-05
1.65396e-06
-8.78774e-06
4.12496e-06
-3.28961e-06
8.29322e-06
4.78765e-06
1.36726e-05
1.31903e-05
2.00855e-05
2.00138e-05
2.57722e-05
1.63654e-05
3.21376e-05
1.27179e-05
3.81586e-05
-1.10332e-05
5.35994e-05
-3.17938e-05
7.86814e-05
-8.48119e-05
0.00012579
-0.000132161
0.000172147
-0.000211087
-0.000251258
0.000230128
-7.77605e-08
-6.07687e-06
-3.12214e-07
-9.94136e-06
-3.39657e-07
-8.7603e-06
3.9898e-07
-4.02824e-06
2.13104e-06
3.05558e-06
4.90258e-06
1.04188e-05
8.46606e-06
1.64504e-05
1.21167e-05
1.27147e-05
1.81041e-05
6.73049e-06
2.92175e-05
-2.21466e-05
5.95999e-05
-6.21762e-05
0.000102138
-0.00012735
0.000157516
-0.000187539
0.000199849
-0.000253421
-0.000289918
0.000238509
-4.38175e-07
-5.63869e-06
-1.42939e-06
-8.95015e-06
-2.55294e-06
-7.63675e-06
-3.442e-06
-3.13918e-06
-3.83067e-06
3.44425e-06
-3.59245e-06
1.01806e-05
-2.53046e-06
1.53884e-05
6.29501e-07
9.55475e-06
1.1741e-05
-4.38105e-06
3.78173e-05
-4.82229e-05
8.35318e-05
-0.000107891
0.000133115
-0.000176933
0.000180738
-0.000235162
0.000212381
-0.000285064
-0.000320689
0.000243151
-8.83485e-07
-4.75521e-06
-2.67909e-06
-7.15454e-06
-4.87713e-06
-5.43871e-06
-7.16189e-06
-8.54427e-07
-9.20776e-06
5.49012e-06
-1.07596e-05
1.17324e-05
-1.03781e-05
1.50069e-05
-3.63949e-06
2.81613e-06
1.99035e-05
-2.79241e-05
6.17976e-05
-9.0117e-05
0.000112535
-0.000158628
0.000156457
-0.000220855
0.000192151
-0.000270856
0.000219193
-0.000312106
-0.000343968
0.000242473
-1.32208e-06
-3.43313e-06
-3.83004e-06
-4.64658e-06
-6.88842e-06
-2.38034e-06
-1.0091e-05
2.34816e-06
-1.29212e-05
8.32029e-06
-1.4367e-05
1.31782e-05
-1.14141e-05
1.2054e-05
4.4376e-06
-1.30356e-05
4.14934e-05
-6.49799e-05
8.9368e-05
-0.000137992
0.000134291
-0.000203551
0.000170012
-0.000256576
0.00019852
-0.000299364
0.000220036
-0.000333623
-0.000361663
0.00023773
-1.64894e-06
-1.78419e-06
-4.62788e-06
-1.66764e-06
-8.12207e-06
1.11385e-06
-1.15313e-05
5.75745e-06
-1.39452e-05
1.07342e-05
-1.33311e-05
1.25641e-05
-4.68676e-06
3.40967e-06
2.286e-05
-4.05823e-05
6.7471e-05
-0.000109591
0.000111594
-0.000182114
0.000148543
-0.0002405
0.000177796
-0.000285829
0.000199965
-0.000321533
0.000217096
-0.000350754
-0.000377513
0.000232946
-1.78753e-06
3.34237e-09
-4.90308e-06
1.44791e-06
-8.3319e-06
4.54267e-06
-1.12023e-05
8.6278e-06
-1.21927e-05
1.17246e-05
-8.49893e-06
8.87027e-06
8.44445e-06
-1.35337e-05
4.54797e-05
-7.76176e-05
8.93921e-05
-0.000153503
0.000127347
-0.000220069
0.000157457
-0.000270609
0.000180498
-0.00030887
0.000198218
-0.000339253
0.00021309
-0.000365625
-0.000390634
0.000226211
-1.72099e-06
1.72433e-06
-4.64099e-06
4.36791e-06
-7.57205e-06
7.47373e-06
-9.38293e-06
1.04387e-05
-8.37686e-06
1.07186e-05
-7.73539e-07
1.26695e-06
2.54737e-05
-3.9781e-05
6.67187e-05
-0.000118863
0.000105938
-0.000192723
0.000137729
-0.00025186
0.000161697
-0.000294577
0.000180136
-0.00032731
0.000194924
-0.000354042
0.000207282
-0.000377983
-0.000402633
0.000219281
-1.48408e-06
3.20841e-06
-3.96058e-06
6.84442e-06
-6.11857e-06
9.63172e-06
-6.67148e-06
1.09916e-05
-3.78965e-06
7.83674e-06
9.92939e-06
-1.24521e-05
4.437e-05
-7.42215e-05
8.39105e-05
-0.000158403
0.000117733
-0.000226545
0.000143578
-0.000277705
0.000162788
-0.000313788
0.000177786
-0.000342307
0.000189958
-0.000366214
0.000201216
-0.000389241
-0.000413753
0.000212335
-1.15284e-06
4.36125e-06
-3.05461e-06
8.74618e-06
-4.35297e-06
1.09301e-05
-3.61042e-06
1.0249e-05
1.27611e-06
2.95022e-06
2.27947e-05
-3.39707e-05
6.18128e-05
-0.00011324
9.71913e-05
-0.000193782
0.000125259
-0.000254613
0.000146084
-0.000298529
0.000161525
-0.000329229
0.000173833
-0.000354615
0.000184578
-0.00037696
0.000194759
-0.000399422
-0.000423672
0.000204678
-8.09465e-07
5.17071e-06
-2.11797e-06
1.00547e-05
-2.58801e-06
1.14001e-05
-9.85303e-07
8.64633e-06
8.06863e-06
-6.10371e-06
3.76151e-05
-6.35171e-05
7.55034e-05
-0.000151128
0.000106416
-0.000224694
0.000129424
-0.000277622
0.000146064
-0.000315168
0.000158617
-0.000341782
0.000169203
-0.000365202
0.000178611
-0.000386367
0.00018789
-0.000408701
-0.000433213
0.000197431
-5.22391e-07
5.6931e-06
-1.30834e-06
1.08406e-05
-1.03825e-06
1.113e-05
1.31582e-06
6.29225e-06
1.68338e-05
-2.16217e-05
5.22446e-05
-9.8928e-05
8.61534e-05
-0.000185037
0.000112251
-0.000250792
0.00013089
-0.000296261
0.000144251
-0.00032853
0.00015473
-0.000352261
0.000163844
-0.000374316
0.000172376
-0.0003949
0.000181157
-0.000417482
-0.000441824
0.000189768
-3.3377e-07
6.02687e-06
-6.72876e-07
1.11797e-05
-3.59505e-09
1.04608e-05
4.43479e-06
1.85387e-06
2.75379e-05
-4.47248e-05
6.39192e-05
-0.000135309
9.37072e-05
-0.000214825
0.000115244
-0.000272329
0.000130312
-0.000311329
0.000141209
-0.000339426
0.000150068
-0.00036112
0.000158215
-0.000382462
0.000166061
-0.000402746
0.000174076
-0.000425496
-0.000449908
0.00018216
-2.4962e-07
6.27649e-06
-1.88111e-07
1.11182e-05
6.30472e-07
9.64217e-06
9.59988e-06
-7.11553e-06
3.96362e-05
-7.47611e-05
7.27899e-05
-0.000168463
9.83931e-05
-0.000240428
0.000116071
-0.000290007
0.000128267
-0.000323524
0.000137272
-0.000348431
0.000145018
-0.000368866
0.000152325
-0.00038977
0.000159503
-0.000409924
0.000167088
-0.000433082
-0.000457403
0.000174584
-2.54916e-07
6.53141e-06
3.29918e-08
1.08303e-05
1.2491e-06
8.42607e-06
1.62549e-05
-2.21213e-05
5.03637e-05
-0.00010887
7.94684e-05
-0.000197568
0.000100771
-0.000261731
0.000115169
-0.000304405
0.000125133
-0.000333489
0.00013278
-0.000356078
0.000139625
-0.000375711
0.000146266
-0.000396411
0.000152987
-0.000416644
0.000159967
-0.000440062
-0.000464229
0.000166793
-2.64645e-07
6.79606e-06
3.52467e-08
1.05304e-05
3.05939e-06
5.40192e-06
2.48155e-05
-4.38774e-05
5.80897e-05
-0.000142144
8.37728e-05
-0.000223251
0.000101347
-0.000279305
0.00011303
-0.000316088
0.000121283
-0.000341741
0.000127874
-0.000362669
0.00013405
-0.000381887
0.00014014
-0.000402501
0.00014631
-0.000422814
0.000152786
-0.000446538
-0.000470625
0.000159182
-2.39675e-07
7.03573e-06
-1.28409e-07
1.04192e-05
6.79956e-06
-1.52604e-06
3.4308e-05
-7.13858e-05
6.38983e-05
-0.000171734
8.5982e-05
-0.000245335
0.00010048
-0.000293802
0.000109992
-0.000325601
0.000116908
-0.000348657
0.000122724
-0.000368486
0.000128333
-0.000387496
0.000133892
-0.00040806
0.000139645
-0.000428568
0.000145612
-0.000452505
-0.000476377
0.000151364
-2.30889e-07
7.26662e-06
-1.9565e-07
1.03839e-05
1.14721e-05
-1.31938e-05
4.23884e-05
-0.000102302
6.81469e-05
-0.000197493
8.65253e-05
-0.000263713
9.84417e-05
-0.000305719
0.000106296
-0.000333455
0.000112217
-0.000354577
0.000117397
-0.000373666
0.000122514
-0.000392613
0.000127634
-0.00041318
0.000132912
-0.000433846
0.000138325
-0.000457917
-0.000481704
0.000143652
-1.63336e-07
7.42995e-06
5.56472e-07
9.66412e-06
1.70869e-05
-2.97242e-05
4.77759e-05
-0.000132991
7.07412e-05
-0.000220458
8.59353e-05
-0.000278907
9.56278e-05
-0.000315411
0.00010216
-0.000339987
0.00010729
-0.000359707
0.000111959
-0.000378336
0.00011664
-0.000397294
0.000121303
-0.000417843
0.000126156
-0.000438698
0.000131097
-0.000462858
-0.000486475
0.000135868
-1.28928e-07
7.55888e-06
2.35584e-06
7.17935e-06
2.38615e-05
-5.12299e-05
5.14517e-05
-0.000160581
7.16976e-05
-0.000240704
8.43505e-05
-0.00029156
9.22303e-05
-0.000323291
9.77072e-05
-0.000345464
0.000102223
-0.000364223
0.000106449
-0.000382562
0.000110706
-0.000401551
0.000114967
-0.000422104
0.000119386
-0.000443117
0.000123785
-0.000467257
-0.000490783
0.000128093
-1.46546e-07
7.70543e-06
5.08612e-06
1.94668e-06
3.01457e-05
-7.62894e-05
5.42404e-05
-0.000184676
7.13609e-05
-0.000257825
8.19034e-05
-0.000302102
8.84182e-05
-0.000329806
9.30757e-05
-0.000350121
9.70657e-05
-0.000368213
0.000100886
-0.000386382
0.000104754
-0.000405419
0.000108597
-0.000425947
0.000112576
-0.000447097
0.00011652
-0.0004712
-0.000494622
0.000120359
-1.52933e-07
7.85836e-06
8.09877e-06
-6.30502e-06
3.48945e-05
-0.000103085
5.59601e-05
-0.000205742
7.01621e-05
-0.000272027
7.884e-05
-0.00031078
8.4282e-05
-0.000335248
8.83017e-05
-0.000354141
9.18546e-05
-0.000371766
9.53e-05
-0.000389827
9.87709e-05
-0.00040889
0.000102219
-0.000429395
0.000105776
-0.000450654
0.000109219
-0.000474643
-0.000497999
0.000112596
-9.84545e-08
7.95682e-06
1.13072e-05
-1.77107e-05
3.77871e-05
-0.000129565
5.66435e-05
-0.000224598
6.83485e-05
-0.000283732
7.53911e-05
-0.000317823
7.99465e-05
-0.000339804
8.34542e-05
-0.000357649
8.66169e-05
-0.000374929
8.96955e-05
-0.000392906
9.27879e-05
-0.000411982
9.58357e-05
-0.000432443
9.89497e-05
-0.000453768
0.000101946
-0.000477639
-0.000500974
0.000104921
2.65475e-09
7.95416e-06
1.51195e-05
-3.28276e-05
3.91542e-05
-0.0001536
5.61648e-05
-0.000241609
6.6012e-05
-0.000293579
7.17119e-05
-0.000323523
7.5504e-05
-0.000343596
7.85554e-05
-0.0003607
8.13605e-05
-0.000377734
8.40899e-05
-0.000395635
8.67986e-05
-0.000414691
8.9451e-05
-0.000435095
9.21457e-05
-0.000456463
9.4684e-05
-0.000480177
-0.000503514
9.72242e-05
3.27478e-07
7.62668e-06
1.85006e-05
-5.10007e-05
4.00788e-05
-0.000175178
5.48312e-05
-0.000256361
6.31794e-05
-0.000301927
6.7862e-05
-0.000328205
7.10207e-05
-0.000346754
7.36556e-05
-0.000363335
7.61106e-05
-0.000380189
7.8486e-05
-0.000398011
8.082e-05
-0.000417025
8.30793e-05
-0.000437354
8.53384e-05
-0.000458722
8.74436e-05
-0.000482283
-0.000505662
8.95913e-05
9.7953e-07
6.64715e-06
2.13185e-05
-7.13397e-05
4.0414e-05
-0.000194273
5.29776e-05
-0.000268925
5.99735e-05
-0.000308923
6.38731e-05
-0.000332105
6.65232e-05
-0.000349404
6.87676e-05
-0.000365579
7.0872e-05
-0.000382294
7.28968e-05
-0.000400036
7.48528e-05
-0.000418981
7.67166e-05
-0.000439218
7.85594e-05
-0.000460564
8.02385e-05
-0.000483962
-0.00050737
8.19463e-05
2.00829e-06
4.63886e-06
2.33932e-05
-9.27246e-05
4.02491e-05
-0.000211129
5.07816e-05
-0.000279457
5.65414e-05
-0.000314683
5.97883e-05
-0.000335352
6.20203e-05
-0.000351636
6.3909e-05
-0.000367468
6.56646e-05
-0.000384049
6.73287e-05
-0.0004017
6.89076e-05
-0.00042056
7.03801e-05
-0.000440691
7.1796e-05
-0.00046198
7.3048e-05
-0.000485214
-0.000508668
7.43461e-05
3.45872e-06
1.18014e-06
2.46855e-05
-0.000113951
3.96672e-05
-0.000226111
4.83698e-05
-0.00028816
5.30089e-05
-0.000319322
5.56656e-05
-0.000338008
5.75239e-05
-0.000353495
5.90768e-05
-0.000369021
6.04859e-05
-0.000385458
6.17901e-05
-0.000403004
6.29895e-05
-0.000421759
6.4066e-05
-0.000441767
6.50649e-05
-0.000462979
6.58887e-05
-0.000486037
-0.000509493
6.67142e-05
5.23115e-06
-4.05101e-06
2.52364e-05
-0.000133957
3.86608e-05
-0.000239535
4.58031e-05
-0.000295302
4.9445e-05
-0.000322964
5.15493e-05
-0.000340113
5.30484e-05
-0.000354994
5.42772e-05
-0.00037025
5.53462e-05
-0.000386527
5.6287e-05
-0.000403945
5.71052e-05
-0.000422577
5.77885e-05
-0.00044245
5.83641e-05
-0.000463555
5.87479e-05
-0.000486421
-0.000509859
5.91136e-05
7.15063e-06
-1.12016e-05
2.51267e-05
-0.000151933
3.71725e-05
-0.000251581
4.30947e-05
-0.000301224
4.58854e-05
-0.000325754
4.74732e-05
-0.000341701
4.86114e-05
-0.000356132
4.95135e-05
-0.000371152
5.02426e-05
-0.000387256
5.08231e-05
-0.000404525
5.126e-05
-0.000423014
5.15442e-05
-0.000442735
5.17007e-05
-0.000463711
5.16529e-05
-0.000486373
-0.000509745
5.15385e-05
9.06219e-06
-2.02638e-05
2.50397e-05
-0.00016791
3.53579e-05
-0.000261899
4.02236e-05
-0.00030609
4.23273e-05
-0.000327858
4.34482e-05
-0.000342821
4.42247e-05
-0.000356908
4.4795e-05
-0.000371722
4.5185e-05
-0.000387646
4.54048e-05
-0.000404745
4.54586e-05
-0.000423068
4.5343e-05
-0.000442619
4.50765e-05
-0.000463445
4.45954e-05
-0.000485892
-0.000509156
4.40066e-05
1.04198e-05
-3.06836e-05
2.46893e-05
-0.00018218
3.33443e-05
-0.000270554
3.72182e-05
-0.000309964
3.87565e-05
-0.000329396
3.9473e-05
-0.000343538
3.98969e-05
-0.000357332
4.01291e-05
-0.000371954
4.01756e-05
-0.000387693
4.00359e-05
-0.000404605
3.97077e-05
-0.00042274
3.91865e-05
-0.000442098
3.84939e-05
-0.000462752
3.75917e-05
-0.00048499
-0.000508089
3.65252e-05
1.12385e-05
-4.19222e-05
2.39776e-05
-0.000194919
3.11644e-05
-0.000277741
3.41396e-05
-0.000312939
3.51846e-05
-0.000330441
3.5543e-05
-0.000343896
3.56292e-05
-0.000357419
3.55225e-05
-0.000371848
3.52237e-05
-0.000387394
3.47237e-05
-0.000404105
3.40146e-05
-0.000422031
3.30891e-05
-0.000441172
3.19634e-05
-0.000461627
3.06301e-05
-0.000483657
-0.000506555
2.90954e-05
1.15681e-05
-5.34903e-05
2.29571e-05
-0.000206308
2.88623e-05
-0.000283647
3.10395e-05
-0.000315116
3.16368e-05
-0.000331039
3.16625e-05
-0.000343922
3.14233e-05
-0.000357179
3.09794e-05
-0.000371404
3.03325e-05
-0.000386747
2.94721e-05
-0.000403245
2.83866e-05
-0.000420945
2.70629e-05
-0.000439849
2.55055e-05
-0.000460069
2.37138e-05
-0.000481865
-0.000504563
2.17224e-05
1.1508e-05
-6.49983e-05
2.16681e-05
-0.000216468
2.6464e-05
-0.000288442
2.79493e-05
-0.000316601
2.81337e-05
-0.000331223
2.7838e-05
-0.000343626
2.72804e-05
-0.000356622
2.65031e-05
-0.000370626
2.55091e-05
-0.000385753
2.42877e-05
-0.000402023
2.28277e-05
-0.000419485
2.11197e-05
-0.000438141
1.91546e-05
-0.000458104
1.68477e-05
-0.000479558
-0.000502114
1.43985e-05
1.11714e-05
-7.61697e-05
2.01854e-05
-0.000225482
2.40096e-05
-0.000292267
2.48904e-05
-0.000317482
2.46906e-05
-0.000331023
2.40784e-05
-0.000343014
2.32049e-05
-0.000355748
2.20967e-05
-0.000369518
2.07566e-05
-0.000384413
1.91747e-05
-0.000400442
1.73407e-05
-0.000417651
1.52513e-05
-0.000436051
1.2914e-05
-0.000455767
1.01138e-05
-0.000476758
-0.000499093
7.09246e-06
1.06387e-05
-8.68085e-05
1.85618e-05
-0.000233405
2.15269e-05
-0.000295232
2.18781e-05
-0.000317833
2.13183e-05
-0.000330463
2.03911e-05
-0.000342087
1.9201e-05
-0.000354558
1.77635e-05
-0.000368081
1.60799e-05
-0.00038273
1.41399e-05
-0.000398502
1.19311e-05
-0.000415442
9.4526e-06
-0.000433573
6.7295e-06
-0.000453044
3.65789e-06
-0.000473686
-0.000495037
-3.97897e-07
9.96304e-06
-9.67715e-05
1.68499e-05
-0.000240292
1.9051e-05
-0.000297433
1.89283e-05
-0.000317711
1.80248e-05
-0.00032956
1.67823e-05
-0.000340844
1.52739e-05
-0.00035305
1.35068e-05
-0.000366314
1.14801e-05
-0.000380703
9.18466e-06
-0.000396206
6.60577e-06
-0.000412863
3.73759e-06
-0.000430704
4.60042e-07
-0.000449766
-2.72753e-06
-0.000470499
-0.000490833
-6.93173e-06
9.13434e-06
-0.000105906
1.509e-05
-0.000246247
1.66093e-05
-0.000298952
1.6054e-05
-0.000317155
1.48162e-05
-0.000328322
1.32561e-05
-0.000339284
1.14272e-05
-0.000351221
9.32882e-06
-0.000364215
6.95684e-06
-0.000378331
4.3078e-06
-0.000393557
1.36287e-06
-0.000409918
-1.88235e-06
-0.000427459
-5.33009e-06
-0.000446318
-9.28977e-06
-0.000466539
-0.000486539
-1.35833e-05
8.29158e-06
-0.000114197
1.33291e-05
-0.000251285
1.42227e-05
-0.000299846
1.32639e-05
-0.000316197
1.16955e-05
-0.000326754
9.81585e-06
-0.000337405
7.66315e-06
-0.000349068
5.22741e-06
-0.00036178
2.50315e-06
-0.000375607
-5.05093e-07
-0.000390549
-3.77107e-06
-0.000406652
-7.32456e-06
-0.000423906
-1.11495e-05
-0.000442493
-1.56018e-05
-0.000462087
-0.000481963
-2.01777e-05
7.47936e-06
-0.000121677
1.16015e-05
-0.000255407
1.19013e-05
-0.000300146
1.05569e-05
-0.000314852
8.66338e-06
-0.00032486
6.46306e-06
-0.000335204
3.97776e-06
-0.000346583
1.18627e-06
-0.000358988
-1.85252e-06
-0.000372568
-5.16682e-06
-0.000387235
-8.79419e-06
-0.000403025
-1.2696e-05
-0.000420004
-1.69364e-05
-0.000438253
-2.17539e-05
-0.000457269
-0.00047703
-2.66868e-05
6.67565e-06
-0.000128352
9.92558e-06
-0.000258657
9.65745e-06
-0.000299877
7.93591e-06
-0.000313131
5.71968e-06
-0.000322644
3.19263e-06
-0.000332677
3.37911e-07
-0.000343728
-2.72161e-06
-0.000355929
-6.08359e-06
-0.000369206
-9.75524e-06
-0.000383563
-1.37239e-05
-0.000399056
-1.79904e-05
-0.000415738
-2.26481e-05
-0.000433595
-2.77793e-05
-0.000452138
-0.000471715
-3.30947e-05
5.88559e-06
-0.000134238
8.31134e-06
-0.000261083
7.49426e-06
-0.00029906
5.40293e-06
-0.000311039
2.86093e-06
-0.000320102
-5.2926e-08
-0.000329764
-3.12521e-06
-0.000340656
-6.52854e-06
-0.000352525
-1.02359e-05
-0.000365498
-1.4249e-05
-0.00037955
-1.85604e-05