/*--------------------------------*- C++ -*----------------------------------*\
  =========                 |
  \\      /  F ield         | OpenFOAM: The Open Source CFD Toolbox
   \\    /   O peration     | Website:  https://openfoam.org
    \\  /    A nd           | Version:  7
     \\/     M anipulation  |
\*---------------------------------------------------------------------------*/
FoamFile
{
    version     2.0;
    format      ascii;
    class       volVectorField;
    location    "36.9996";
    object      U;
}
// * * * * * * * * * * * * * * * * * * * * * * * * * * * * * * * * * * * * * //

dimensions      [0 1 -1 0 0 0 0];

internalField   nonuniform List<vector> 
18750
(
(-0.0277956 -0.0606222 -2.42917e-20)
(-0.103445 -0.100285 7.02084e-21)
(-0.188807 -0.12114 5.43704e-20)
(-0.263705 -0.14457 1.04478e-20)
(-0.338548 -0.170199 -1.99318e-20)
(-0.409674 -0.196823 -4.49982e-20)
(-0.479779 -0.223744 4.24112e-20)
(-0.547448 -0.250124 2.69224e-20)
(-0.61363 -0.275346 -2.0052e-20)
(-0.677204 -0.298715 -5.21041e-20)
(-0.738487 -0.319526 1.97765e-19)
(-0.796796 -0.336898 -1.62588e-19)
(-0.852362 -0.350049 9.67374e-20)
(-0.90425 -0.358579 -1.91287e-19)
(-0.951292 -0.363 4.40018e-20)
(-0.027863 -0.0232847 1.61116e-20)
(-0.102782 -0.0525907 1.43075e-20)
(-0.187378 -0.0757673 8.84052e-22)
(-0.261548 -0.101151 6.04677e-20)
(-0.335632 -0.128354 1.13921e-19)
(-0.406037 -0.156287 1.41497e-19)
(-0.475507 -0.184389 -1.12373e-19)
(-0.542744 -0.211894 1.7376e-19)
(-0.608815 -0.238281 1.57756e-19)
(-0.672707 -0.26293 -4.74681e-20)
(-0.734793 -0.285218 -2.09179e-19)
(-0.794494 -0.304333 1.21291e-20)
(-0.85226 -0.319557 4.50323e-20)
(-0.907569 -0.330471 1.25341e-19)
(-0.959769 -0.337393 -1.88793e-19)
(-0.0292317 0.0137521 3.58956e-20)
(-0.10325 -0.00515974 3.70556e-20)
(-0.186292 -0.0305268 -1.18696e-19)
(-0.25899 -0.0578362 9.7897e-22)
(-0.331565 -0.0865307 -2.16119e-19)
(-0.400498 -0.115698 6.21685e-20)
(-0.468524 -0.14487 -1.64788e-19)
(-0.534434 -0.173361 -2.33723e-20)
(-0.599383 -0.200729 -1.24198e-19)
(-0.662433 -0.226417 3.53403e-19)
(-0.72398 -0.24985 4.62175e-19)
(-0.783538 -0.270296 4.0255e-19)
(-0.841771 -0.287132 2.34442e-19)
(-0.898547 -0.299968 1.60696e-19)
(-0.953655 -0.309026 -2.98681e-19)
(-0.0318368 0.0498987 -1.35988e-19)
(-0.104782 0.0414615 1.46435e-19)
(-0.185557 0.0140796 -9.9306e-20)
(-0.256102 -0.0149642 -1.88872e-19)
(-0.326444 -0.045007 2.98761e-19)
(-0.393206 -0.0753331 -2.65957e-19)
(-0.459036 -0.105457 3.67492e-19)
(-0.522802 -0.134811 -2.9831e-19)
(-0.585707 -0.163004 1.99965e-19)
(-0.646848 -0.189505 -4.90396e-19)
(-0.70661 -0.213796 -6.93845e-19)
(-0.764576 -0.235277 3.12325e-20)
(-0.82157 -0.253403 -1.35488e-19)
(-0.877798 -0.267768 -2.84396e-19)
(-0.933426 -0.278476 1.08832e-18)
(-0.0355992 0.0846026 -8.09423e-20)
(-0.107364 0.0867771 1.80282e-19)
(-0.185113 0.0576529 4.99628e-20)
(-0.252816 0.027063 1.57479e-19)
(-0.320354 -0.00420726 -1.79846e-19)
(-0.384326 -0.0354912 7.39719e-20)
(-0.447271 -0.0664058 8.45083e-19)
(-0.508171 -0.0965076 1.25099e-19)
(-0.568198 -0.125369 2.12416e-19)
(-0.62648 -0.152436 -7.1351e-20)
(-0.6834 -0.177353 6.99401e-20)
(-0.738555 -0.199634 -3.09643e-20)
(-0.792819 -0.218763 -7.22015e-19)
(-0.846674 -0.234302 -4.00695e-19)
(-0.900599 -0.246229 -1.20982e-18)
(-0.0403753 0.117357 1.89531e-19)
(-0.110886 0.130389 3.23797e-20)
(-0.184984 0.0999499 -8.36387e-20)
(-0.249239 0.0679231 -5.75849e-20)
(-0.313328 0.035558 4.99833e-20)
(-0.373925 0.00347979 -7.46688e-19)
(-0.433473 -0.028123 -9.85705e-20)
(-0.490917 -0.05878 4.57977e-20)
(-0.547352 -0.0880654 -3.24049e-19)
(-0.602 -0.115531 -4.29277e-19)
(-0.655252 -0.141041 3.12204e-19)
(-0.70662 -0.16389 -3.0876e-19)
(-0.756942 -0.183741 9.46601e-19)
(-0.80694 -0.200101 -7.24829e-19)
(-0.857343 -0.21292 1.61571e-18)
(-0.045982 0.147681 -1.48438e-19)
(-0.115212 0.171868 -2.68946e-19)
(-0.185121 0.140626 9.79686e-20)
(-0.2454 0.10741 7.11498e-19)
(-0.305524 0.0741457 6.83639e-19)
(-0.362242 0.0413405 -2.21744e-19)
(-0.417844 0.00912247 1.08992e-19)
(-0.471261 -0.0219876 6.71087e-20)
(-0.523589 -0.0516468 6.767e-19)
(-0.574167 -0.0794507 9.28543e-19)
(-0.623143 -0.105222 -4.48811e-19)
(-0.669944 -0.128328 -8.43585e-19)
(-0.71547 -0.148539 -1.55351e-18)
(-0.760521 -0.165644 2.77233e-19)
(-0.806125 -0.179233 -1.94424e-18)
(-0.052205 0.175135 -1.13792e-19)
(-0.120178 0.210814 -1.40759e-19)
(-0.18545 0.179375 -1.03118e-18)
(-0.2413 0.145268 3.44387e-19)
(-0.297044 0.111339 -4.20584e-19)
(-0.349495 0.0779731 2.66581e-19)
(-0.400766 0.0452765 2.65813e-19)
(-0.44977 0.0137395 -1.17035e-18)
(-0.497518 -0.0163423 -7.63776e-19)
(-0.543415 -0.0444692 -1.26701e-18)
(-0.587632 -0.0703241 -2.13168e-19)
(-0.629462 -0.0936683 8.95306e-19)
(-0.6698 -0.114255 3.46823e-18)
(-0.709416 -0.131821 -5.19186e-19)
(-0.749381 -0.145858 9.38732e-19)
(-0.0588095 0.199343 6.31774e-19)
(-0.125593 0.246851 2.60621e-19)
(-0.18588 0.215935 1.11958e-18)
(-0.236926 0.181274 -8.02645e-19)
(-0.287954 0.146929 3.60224e-19)
(-0.335837 0.113207 -5.82955e-19)
(-0.382493 0.0801982 -1.30363e-18)
(-0.42683 0.0483726 1.14392e-18)
(-0.469753 0.0180023 1.32289e-19)
(-0.510695 -0.0104104 1.88368e-18)
(-0.549877 -0.0365245 -6.05387e-19)
(-0.58654 -0.060152 -2.69736e-18)
(-0.621286 -0.0811441 -1.63346e-18)
(-0.654988 -0.0989477 1.7364e-19)
(-0.689017 -0.113267 -7.8886e-19)
(-0.06556 0.219978 -5.08507e-19)
(-0.13125 0.27964 -2.96739e-19)
(-0.186294 0.250087 3.63705e-19)
(-0.232254 0.215254 5.59825e-20)
(-0.278314 0.180758 -1.40399e-19)
(-0.321404 0.146886 -1.57975e-19)
(-0.363245 0.113723 5.97719e-19)
(-0.402744 0.0817319 -6.8626e-19)
(-0.440704 0.0511855 6.66052e-19)
(-0.476584 0.0225942 8.15753e-19)
(-0.51063 -0.00370398 -1.43574e-18)
(-0.542082 -0.0274912 2.69572e-18)
(-0.571262 -0.0487271 3.15758e-19)
(-0.598957 -0.0669573 4.19908e-19)
(-0.626938 -0.081701 9.52578e-19)
(-0.072189 0.236704 9.32139e-19)
(-0.13691 0.308889 -3.10169e-19)
(-0.186549 0.281669 -1.38139e-18)
(-0.227246 0.247077 5.31598e-19)
(-0.26817 0.212706 -3.05019e-19)
(-0.306314 0.178904 3.52617e-19)
(-0.34321 0.145754 2.51851e-18)
(-0.377775 0.11372 1.18318e-18)
(-0.410705 0.0830821 7.72231e-19)
(-0.441484 0.0543641 -2.55734e-18)
(-0.470405 0.0279238 2.75468e-18)
(-0.49678 0.00403592 9.86638e-19)
(-0.520697 -0.0172885 -1.58023e-18)
(-0.542628 -0.0357494 1.90332e-18)
(-0.564551 -0.0509507 -7.17077e-20)
(-0.0783883 0.249209 1.82095e-19)
(-0.142321 0.334376 5.04247e-20)
(-0.186501 0.310559 -8.62123e-20)
(-0.22186 0.27665 -9.47266e-19)
(-0.257553 0.24269 1.85965e-18)
(-0.290666 0.209192 -9.31293e-19)
(-0.322557 0.176236 -2.67238e-18)
(-0.35216 0.144298 7.96967e-19)
(-0.380068 0.113676 -1.25452e-18)
(-0.40578 0.0848996 1.91626e-18)
(-0.429614 0.0583431 -3.40804e-18)
(-0.450967 0.0343348 2.61428e-19)
(-0.46977 0.0128841 1.40868e-18)
(-0.486234 -0.00587561 -2.91745e-18)
(-0.502613 -0.0215982 -6.82863e-19)
(-0.0838118 0.257243 -6.07994e-19)
(-0.147198 0.35592 1.7696e-19)
(-0.186009 0.336671 5.44065e-19)
(-0.216047 0.303905 -2.32043e-20)
(-0.246485 0.270648 -2.52166e-18)
(-0.274544 0.237699 2.40675e-19)
(-0.301426 0.20513 8.6608e-19)
(-0.326092 0.173441 -2.31691e-18)
(-0.349042 0.142956 1.69933e-18)
(-0.369795 0.114219 -1.53973e-18)
(-0.388681 0.0876248 4.15287e-18)
(-0.405219 0.0635525 -1.71597e-18)
(-0.419282 0.0420303 2.04254e-18)
(-0.43064 0.0230044 4.0901e-18)
(-0.4411 0.00642685 1.74089e-18)
(-0.0880525 0.260554 -2.41117e-19)
(-0.151261 0.373413 -5.40171e-21)
(-0.184935 0.359914 -2.18298e-20)
(-0.209768 0.3288 -6.36699e-20)
(-0.234976 0.296545 -1.22534e-18)
(-0.258017 0.264396 -5.3184e-19)
(-0.279935 0.232417 8.46309e-19)
(-0.29973 0.201138 4.98526e-19)
(-0.317815 0.170917 -2.89733e-18)
(-0.333729 0.142324 -1.65805e-19)
(-0.347799 0.115783 -8.14737e-19)
(-0.359658 0.0917305 1.64411e-18)
(-0.369212 0.0702779 -2.25694e-18)
(-0.376175 0.0513311 -3.05173e-19)
(-0.382395 0.0343739 -1.96397e-18)
(-0.0906914 0.25917 1.08285e-18)
(-0.154201 0.386758 -9.7104e-19)
(-0.183183 0.380181 -1.30892e-18)
(-0.202961 0.351303 2.30617e-18)
(-0.223035 0.320361 2.00563e-18)
(-0.241136 0.289272 2.52204e-18)
(-0.258177 0.25809 1.01623e-19)
(-0.273194 0.227391 1.65989e-18)
(-0.286527 0.197575 2.19708e-18)
(-0.297728 0.169241 3.22624e-18)
(-0.307114 0.142846 -1.4633e-18)
(-0.314418 0.118869 3.04832e-18)
(-0.319553 0.0974778 -2.29151e-20)
(-0.321973 0.0786194 -1.50657e-18)
(-0.323479 0.0621089 -3.67355e-18)
(-0.0914908 0.253314 -6.92608e-19)
(-0.155733 0.395788 1.07277e-18)
(-0.180618 0.397352 7.15525e-19)
(-0.195589 0.371414 -2.18265e-18)
(-0.210656 0.342103 -9.97272e-19)
(-0.223943 0.312324 -1.78557e-19)
(-0.236226 0.282146 -1.30957e-18)
(-0.24658 0.252211 -2.20339e-18)
(-0.255275 0.222949 -3.68958e-18)
(-0.261886 0.195001 -1.57237e-18)
(-0.2667 0.168869 2.18278e-18)
(-0.269565 0.145081 -4.49842e-18)
(-0.270521 0.123882 1.60366e-19)
(-0.268515 0.105082 2.77916e-18)
(-0.264219 0.088183 3.93645e-18)
(-0.0902527 0.243096 -1.69106e-18)
(-0.155625 0.400314 1.30332e-18)
(-0.177118 0.411368 -2.23795e-18)
(-0.187562 0.389099 -1.06794e-18)
(-0.19785 0.361771 -4.9366e-20)
(-0.206485 0.333565 1.41773e-18)
(-0.214142 0.304586 2.22815e-18)
(-0.219954 0.275591 7.15363e-19)
(-0.224134 0.247039 1.02687e-18)
(-0.226267 0.219616 -2.92055e-18)
(-0.226597 0.193868 8.57493e-20)
(-0.225012 0.170369 -2.16939e-18)
(-0.221899 0.14949 -1.58147e-18)
(-0.216288 0.131101 -4.46337e-18)
(-0.204694 0.113481 -5.5656e-20)
(-0.0868536 0.22863 1.48681e-18)
(-0.153645 0.400183 2.38125e-19)
(-0.17261 0.422191 3.40042e-19)
(-0.178879 0.404365 2.64961e-18)
(-0.18461 0.379438 1.11123e-18)
(-0.188775 0.352982 -1.31106e-18)
(-0.191988 0.325406 1.02825e-18)
(-0.193395 0.297539 -5.82268e-19)
(-0.193167 0.269849 -1.14609e-18)
(-0.19092 0.243087 1.27243e-18)
(-0.186863 0.217856 -4.26458e-18)
(-0.180799 0.194733 -1.83282e-19)
(-0.173263 0.17418 -2.34611e-18)
(-0.165273 0.156592 3.5771e-18)
(-0.145235 0.138706 3.40898e-19)
(-0.0812848 0.210137 -5.79805e-19)
(-0.149652 0.395242 -1.61754e-18)
(-0.166943 0.429587 4.12881e-19)
(-0.169558 0.417269 -3.0762e-18)
(-0.171004 0.395149 -2.05645e-18)
(-0.170906 0.37059 -1.14781e-18)
(-0.169822 0.344607 -1.95169e-18)
(-0.166958 0.318029 1.87595e-18)
(-0.162431 0.291332 2.57317e-18)
(-0.155878 0.265378 4.94797e-18)
(-0.147529 0.240809 -2.25552e-19)
(-0.137106 0.218207 5.39851e-18)
(-0.12446 0.198114 2.07803e-18)
(-0.114917 0.180896 1.61057e-18)
(-0.0863467 0.164901 -3.49754e-18)
(-0.0736943 0.188002 1.00646e-18)
(-0.143617 0.385336 2.46927e-18)
(-0.16002 0.433319 1.68362e-18)
(-0.159573 0.427728 2.14797e-18)
(-0.157056 0.40885 -6.98788e-21)
(-0.152953 0.386441 8.06743e-19)
(-0.147757 0.362231 3.07547e-20)
(-0.140747 0.337038 -1.41789e-18)
(-0.132018 0.311469 2.2216e-18)
(-0.121197 0.286454 -7.607e-18)
(-0.108576 0.262675 2.17019e-18)
(-0.0940243 0.240787 -1.41651e-18)
(-0.0758937 0.221352 2.67804e-19)
(-0.0643934 0.203968 -2.04656e-18)
(-0.0289097 0.191972 -2.26388e-18)
(-0.0644413 0.162799 -1.64524e-18)
(-0.135586 0.370273 2.19616e-18)
(-0.151824 0.433108 -5.26512e-19)
(-0.148918 0.435564 -9.25173e-19)
(-0.142812 0.420507 1.89037e-18)
(-0.134957 0.400495 1.80185e-19)
(-0.125865 0.378184 -5.43834e-19)
(-0.114861 0.354493 -6.31412e-20)
(-0.10204 0.330215 -1.42593e-18)
(-0.0869931 0.306248 3.65186e-18)
(-0.0700168 0.283353 2.21639e-18)
(-0.0516555 0.26237 1.17304e-18)
(-0.0274595 0.243757 -1.05334e-19)
(-0.0143891 0.22623 2.66594e-18)
(0.0296634 0.219627 -2.33486e-19)
(-0.0541369 0.135312 4.8355e-19)
(-0.125672 0.349799 -5.09063e-19)
(-0.142365 0.42855 4.21376e-19)
(-0.137628 0.440525 1.71672e-18)
(-0.128347 0.430045 -1.08223e-18)
(-0.117009 0.412702 -7.03397e-19)
(-0.104231 0.392399 -1.2581e-18)
(-0.0894121 0.370349 9.85063e-19)
(-0.0726117 0.347459 -1.00256e-18)
(-0.053434 0.324645 -1.16365e-18)
(-0.031841 0.3027 -1.91043e-18)
(-0.0102641 0.282785 -1.09183e-18)
(0.0211101 0.265195 3.94067e-18)
(0.0343386 0.247112 -5.3201e-18)
(0.0898582 0.24796 -1.31575e-19)
(-0.0435883 0.106597 2.07583e-18)
(-0.114063 0.323639 -7.969e-19)
(-0.13165 0.419124 -2.08578e-18)
(-0.125761 0.442242 -5.43145e-19)
(-0.113759 0.437308 2.85359e-18)
(-0.0992245 0.423 -7.65959e-20)
(-0.0829926 0.404832 1.33181e-18)
(-0.0645256 0.384512 -7.26673e-19)
(-0.043859 0.363065 -2.73812e-18)
(-0.020778 0.341523 6.22977e-18)
(0.00600403 0.320492 -4.51881e-18)
(0.0297388 0.301777 1.31199e-18)
(0.0701121 0.285824 -5.63329e-18)
(0.080972 0.265296 1.98089e-18)
(0.151769 0.276971 1.6001e-18)
(-0.03355 0.0780878 -7.37204e-19)
(-0.101007 0.291609 -2.40363e-18)
(-0.119694 0.404235 1.09211e-18)
(-0.113378 0.440178 1.94277e-19)
(-0.099159 0.442016 -2.58475e-18)
(-0.0817449 0.431273 1.57535e-18)
(-0.0623033 0.415418 8.24753e-20)
(-0.0403949 0.396875 -3.9186e-19)
(-0.0158693 0.376856 -2.8808e-18)
(0.010561 0.356714 -3.27284e-19)
(0.04361 0.336572 3.62446e-18)
(0.0678465 0.318783 3.12818e-19)
(0.11992 0.306324 8.31423e-19)
(0.124623 0.27919 2.34567e-18)
(0.21455 0.305239 -5.79853e-18)
(-0.0243713 0.0515522 -1.12814e-18)
(-0.0868062 0.253839 2.80162e-20)
(-0.106536 0.383259 -1.37831e-18)
(-0.100544 0.433601 1.11413e-18)
(-0.084676 0.443719 1.47305e-18)
(-0.0647248 0.437323 -1.08835e-18)
(-0.0423488 0.424023 -1.78664e-19)
(-0.0172717 0.407318 -8.80739e-19)
(0.011299 0.388656 2.13196e-18)
(0.0400946 0.369982 4.28589e-19)
(0.0810107 0.35084 -5.31647e-18)
(0.103262 0.332641 1.45766e-18)
(0.171128 0.328116 8.56337e-19)
(0.165398 0.289009 -3.8177e-18)
(0.276487 0.328616 8.02044e-19)
(-0.015917 0.0287581 2.58894e-19)
(-0.0718535 0.211115 6.9645e-19)
(-0.0922874 0.355597 1.3089e-18)
(-0.0873338 0.421585 -1.09058e-18)
(-0.0704448 0.441752 -2.93636e-20)
(-0.0483725 0.440795 2.68541e-18)
(-0.0232807 0.430467 -1.07738e-19)
(0.00444111 0.415701 3.1405e-22)
(0.037653 0.398231 3.53385e-18)
(0.0672601 0.380867 -1.999e-18)
(0.118357 0.363963 1.35445e-18)
(0.134943 0.340894 -3.81241e-18)
(0.22285 0.35068 3.17888e-19)
(0.205484 0.299696 -9.79543e-19)
(0.336247 0.344436 1.62739e-18)
(-0.00797054 0.0109372 -1.88002e-19)
(-0.0566997 0.165303 8.76188e-19)
(-0.0771943 0.320775 -1.15385e-18)
(-0.073854 0.403055 2.43552e-18)
(-0.056627 0.43519 -2.00607e-18)
(-0.0329295 0.441141 -1.76508e-18)
(-0.00530021 0.434388 -1.09723e-18)
(0.024321 0.421808 -2.32159e-18)
(0.0630585 0.405567 -4.39191e-18)
(0.0915775 0.388296 6.17987e-19)
(0.155478 0.37742 3.29865e-18)
(0.163141 0.34297 2.57986e-18)
(0.272522 0.367756 4.02666e-19)
(0.245506 0.31404 -2.05409e-18)
(0.393606 0.354656 -9.82229e-19)
(-0.000743881 -0.00155527 4.67134e-19)
(-0.0418579 0.119615 8.16295e-19)
(-0.0616774 0.278692 -3.50513e-18)
(-0.0602826 0.376906 -2.41438e-18)
(-0.0434042 0.422837 -7.14753e-20)
(-0.0187766 0.437473 1.88307e-18)
(0.0114724 0.435329 -6.76117e-19)
(0.0418062 0.425132 5.15758e-18)
(0.0872549 0.410867 3.53455e-19)
(0.112566 0.390355 -2.82176e-18)
(0.191196 0.391523 -2.56254e-18)
(0.189814 0.343442 -3.97273e-18)
(0.316936 0.374401 4.33234e-18)
(0.285555 0.326862 2.78128e-18)
(0.44491 0.359395 -2.80096e-20)
(0.00520208 -0.00931766 -1.29882e-18)
(-0.0275488 0.0781623 -2.40635e-18)
(-0.046251 0.23012 1.74549e-18)
(-0.0469089 0.342228 2.13538e-18)
(-0.0310159 0.403259 1.31789e-18)
(-0.00633046 0.428545 -1.30846e-18)
(0.0265659 0.432341 3.33642e-18)
(0.0567419 0.424848 -4.67058e-18)
(0.10939 0.415298 5.12062e-18)
(0.130828 0.385609 3.20548e-18)
(0.221066 0.400294 -1.00609e-18)
(0.220325 0.348968 -1.35544e-18)
(0.348541 0.370432 -1.75217e-18)
(0.329451 0.337511 -3.37835e-18)
(0.485404 0.352749 3.97206e-18)
(0.00958201 -0.0136114 3.65862e-18)
(-0.013979 0.0444242 2.80231e-18)
(-0.0314363 0.177479 6.41583e-19)
(-0.0341498 0.298713 -3.94225e-20)
(-0.019764 0.374918 -4.58747e-19)
(0.00386119 0.412641 -5.36416e-19)
(0.0395238 0.424571 -2.6138e-18)
(0.0684575 0.418433 4.49567e-18)
(0.127835 0.418512 -3.49144e-18)
(0.150195 0.380129 -8.1955e-21)
(0.237675 0.3939 3.24752e-18)
(0.258911 0.358893 2.21444e-18)
(0.362978 0.358206 2.15473e-18)
(0.376957 0.347594 -1.02605e-20)
(0.517088 0.338958 -2.42281e-18)
(0.012588 -0.0156762 -2.19488e-18)
(-0.00167311 0.0195577 -2.27115e-18)
(-0.0176766 0.125422 7.02965e-19)
(-0.0224681 0.247355 -1.14604e-18)
(-0.0100364 0.336652 -5.42858e-19)
(0.0113846 0.38752 1.92737e-18)
(0.0488847 0.410581 -5.10153e-19)
(0.0785371 0.405577 -4.56372e-19)
(0.136695 0.41273 -1.46923e-18)
(0.175627 0.379931 -3.31284e-18)
(0.239792 0.378524 1.52287e-18)
(0.301363 0.359297 -1.75555e-18)
(0.363678 0.349263 -2.57143e-18)
(0.43951 0.344941 -1.11095e-18)
(0.497438 0.32086 4.33207e-18)
(0.0146222 -0.0163901 2.46795e-18)
(0.0087696 0.00268325 -1.93686e-18)
(-0.00510859 0.079975 -3.19054e-18)
(-0.0120992 0.19149 3.32237e-19)
(-0.00230499 0.28855 7.58158e-19)
(0.0161514 0.351321 -5.40315e-19)
(0.0528702 0.387395 1.46818e-18)
(0.0865522 0.386184 3.25479e-19)
(0.138051 0.396937 -2.71871e-19)
(0.194209 0.369584 1.55746e-20)
(0.246037 0.371729 -1.60145e-18)
(0.321429 0.335122 1.7828e-19)
(0.387472 0.35587 8.1629e-19)
(0.438308 0.30439 -6.1474e-19)
(0.555307 0.342257 4.27708e-18)
(0.0161669 -0.0163327 5.15657e-19)
(0.0172228 -0.00799168 -1.10628e-18)
(0.00631141 0.0450992 3.09206e-18)
(-0.00283806 0.136961 2.38814e-18)
(0.00317158 0.233257 -2.39599e-18)
(0.0181699 0.30368 -1.66848e-19)
(0.0507129 0.352538 -1.10624e-18)
(0.0902827 0.356857 -4.13743e-19)
(0.131731 0.371983 3.08993e-18)
(0.209116 0.347649 1.55388e-18)
(0.234904 0.349732 2.18098e-18)
(0.361154 0.322008 -1.68099e-18)
(0.363798 0.328691 1.0775e-18)
(0.488433 0.290476 -6.00561e-19)
(0.555583 0.33217 -5.4537e-18)
(0.0176194 -0.0159128 4.11326e-19)
(0.0240217 -0.0143596 6.63907e-19)
(0.0163024 0.0209217 -1.69904e-18)
(0.00550408 0.0900524 -1.93235e-18)
(0.00655155 0.176254 -1.75622e-18)
(0.0174885 0.247338 1.52358e-19)
(0.0426323 0.304996 1.30154e-18)
(0.0880809 0.316579 -2.38644e-18)
(0.116244 0.330889 -1.29991e-18)
(0.216313 0.322028 7.42504e-19)
(0.208333 0.296725 -2.03724e-18)
(0.3917 0.313652 1.84711e-19)
(0.296774 0.248237 1.32463e-18)
(0.570926 0.301607 -1.69768e-18)
(0.45673 0.244259 1.34822e-18)
(0.0191683 -0.0154432 -9.26268e-19)
(0.0294441 -0.018106 2.10047e-18)
(0.0242278 0.00496418 1.38322e-18)
(0.0124001 0.0539941 9.20257e-19)
(0.00818539 0.123738 1.49974e-18)
(0.0135626 0.188006 -1.50854e-19)
(0.0307594 0.247423 -1.20081e-18)
(0.0759581 0.264576 2.49322e-19)
(0.0986311 0.277094 1.7111e-18)
(0.196968 0.275106 -2.86657e-18)
(0.193387 0.24148 -1.38292e-18)
(0.35809 0.262467 7.82762e-20)
(0.262768 0.172257 -3.95814e-19)
(0.589729 0.278678 2.10288e-18)
(0.392144 0.15301 -1.85695e-18)
(0.0207342 -0.0151198 1.01068e-18)
(0.0333519 -0.0205721 6.73434e-19)
(0.0293038 -0.00596558 -7.91395e-20)
(0.0165872 0.0276313 -5.93582e-19)
(0.00762458 0.0794401 1.34378e-19)
(0.00575098 0.131422 -1.7337e-18)
(0.016636 0.185745 3.98056e-19)
(0.0534871 0.201766 -8.11086e-19)
(0.0792748 0.217996 -8.99203e-19)
(0.158656 0.20453 1.98428e-18)
(0.179717 0.190001 2.91168e-18)
(0.301665 0.184623 1.35395e-18)
(0.313432 0.15923 1.30033e-18)
(0.600238 0.247378 -1.63767e-18)
(0.592525 0.224858 -1.6304e-18)
(0.021974 -0.0149666 8.3778e-19)
(0.0352165 -0.0226221 -1.58745e-18)
(0.0307191 -0.0145437 -7.6363e-19)
(0.0166784 0.00738213 -1.69483e-18)
(0.00332134 0.043129 7.54194e-19)
(-0.00593475 0.0806861 1.83469e-18)
(-0.000805919 0.124786 -2.13399e-18)
(0.0247734 0.134162 7.57007e-19)
(0.0527406 0.15272 1.5237e-18)
(0.117306 0.129174 4.40994e-19)
(0.160703 0.128306 -1.92074e-18)
(0.307913 0.139021 -7.7124e-19)
(0.445957 0.191644 2.82654e-21)
(0.708113 0.271975 9.21827e-19)
(0.859435 0.346646 3.47689e-18)
(0.0223669 -0.0148352 -1.35565e-18)
(0.0343796 -0.0245866 -1.35831e-18)
(0.0277944 -0.0223552 7.54789e-19)
(0.0115958 -0.00991603 3.00695e-18)
(-0.00620555 0.0124163 -1.93892e-18)
(-0.0215721 0.0359786 5.50384e-19)
(-0.0233328 0.0668844 8.42726e-19)
(-0.00694042 0.0679282 -5.74365e-20)
(0.0207324 0.0833859 1.8493e-19)
(0.0910082 0.0659623 8.99449e-19)
(0.193599 0.0893111 -8.36756e-19)
(0.417823 0.157668 -1.70425e-18)
(0.627296 0.243138 -1.4594e-18)
(0.870727 0.336178 1.20072e-18)
(0.976754 0.384055 3.54603e-19)
(0.0213742 -0.0144646 -3.35108e-19)
(0.0303936 -0.0263045 2.69725e-18)
(0.0204527 -0.0297622 5.65114e-19)
(0.00115162 -0.0255663 7.95204e-19)
(-0.021145 -0.0145529 7.18306e-19)
(-0.0414295 -0.00305014 6.86859e-19)
(-0.0503548 0.0143881 -2.55058e-19)
(-0.0368525 0.00879759 4.68433e-19)
(0.00264364 0.0233082 2.49441e-19)
(0.126883 0.0403209 1.13624e-18)
(0.330805 0.113552 7.48645e-20)
(0.588042 0.213233 1.18963e-18)
(0.805536 0.306004 -9.07579e-19)
(0.963143 0.366382 -8.564e-19)
(1.04071 0.40018 5.67672e-19)
(0.018618 -0.0135698 1.21609e-18)
(0.0232218 -0.0272943 -1.10475e-18)
(0.00930885 -0.0360801 1.18778e-19)
(-0.0134709 -0.0389646 -1.62245e-18)
(-0.0396967 -0.0370651 -1.33986e-18)
(-0.0633405 -0.0342589 2.30995e-18)
(-0.0745088 -0.0269425 6.8173e-19)
(-0.0471093 -0.0315787 -9.93642e-19)
(0.0401693 -0.00383133 2.51601e-19)
(0.257394 0.0692836 -3.06524e-18)
(0.519599 0.174931 1.07656e-18)
(0.754242 0.272766 -1.24091e-18)
(0.914784 0.33951 1.45396e-18)
(1.02412 0.382708 -1.75055e-19)
(1.09304 0.414338 -8.40429e-19)
(0.014048 -0.0119283 -1.89967e-18)
(0.0134033 -0.0269041 -1.92875e-18)
(-0.00429616 -0.0400043 -1.96641e-18)
(-0.0297926 -0.0481053 -1.47366e-18)
(-0.0575832 -0.0519874 9.80875e-19)
(-0.0795483 -0.0529916 -3.97687e-18)
(-0.0806369 -0.048341 3.65745e-19)
(-0.0131492 -0.0406977 3.50761e-19)
(0.158864 0.0216859 1.94226e-19)
(0.440467 0.13214 1.43383e-18)
(0.689718 0.234303 -1.14524e-18)
(0.870083 0.310808 2.71867e-18)
(0.989755 0.360509 -5.62984e-19)
(1.0716 0.39599 -1.0691e-18)
(1.11035 0.411949 5.94927e-19)
(0.00801564 -0.00947485 3.35919e-19)
(0.00202923 -0.0246017 1.56665e-18)
(-0.01832 -0.0402557 2.22872e-18)
(-0.044342 -0.0509898 3.58635e-19)
(-0.0692904 -0.0566364 1.76046e-18)
(-0.0813754 -0.0561581 9.77129e-19)
(-0.0585003 -0.0476012 3.01278e-19)
(0.0758288 -0.0149332 -1.5915e-18)
(0.334771 0.0874467 -1.02021e-19)
(0.611367 0.194537 7.24226e-19)
(0.816526 0.278044 2.80797e-18)
(0.955143 0.337703 -3.73331e-19)
(1.04356 0.375832 9.53732e-19)
(1.09254 0.397168 8.89365e-19)
(1.12397 0.410034 1.41043e-18)
(0.00118322 -0.00635456 6.18053e-19)
(-0.00956123 -0.0202907 -2.06614e-18)
(-0.030703 -0.0364576 -4.43417e-19)
(-0.0540706 -0.0471827 1.95712e-20)
(-0.0712344 -0.0511096 -3.29218e-18)
(-0.0658688 -0.0459122 8.54654e-19)
(-0.00472904 -0.0319484 -4.31669e-19)
(0.217498 0.0409342 5.16074e-19)
(0.509498 0.153718 1.7641e-18)
(0.749509 0.243438 -6.37098e-19)
(0.912944 0.310965 -2.13682e-18)
(1.01587 0.356727 -2.98454e-19)
(1.07284 0.380934 -3.21806e-19)
(1.10929 0.398271 -6.97298e-19)
(1.13241 0.406922 -1.52313e-18)
(-0.00563515 -0.00292931 1.29143e-19)
(-0.0201801 -0.0144321 5.58708e-19)
(-0.0400696 -0.0292928 -1.44143e-18)
(-0.057725 -0.037973 6.00634e-19)
(-0.0632282 -0.0382565 1.36615e-18)
(-0.0362431 -0.0292508 -5.81649e-19)
(0.0844234 -0.000743073 -1.15877e-19)
(0.382955 0.1063 -1.35782e-18)
(0.658205 0.208254 2.86086e-19)
(0.858131 0.282067 -1.02586e-18)
(0.982663 0.335618 1.01079e-18)
(1.05362 0.366892 -8.31676e-19)
(1.09466 0.385051 1.4481e-18)
(1.11803 0.396859 -5.38972e-19)
(1.13252 0.40034 -1.10707e-18)
(-0.0117401 0.000383129 6.61298e-19)
(-0.0290327 -0.00784973 4.14161e-19)
(-0.0459298 -0.0201763 3.73252e-19)
(-0.0556034 -0.0257126 9.18238e-20)
(-0.0470333 -0.0219367 6.26303e-19)
(0.00903149 -0.0140076 -1.50449e-18)
(0.215989 0.0524741 8.29953e-19)
(0.535955 0.164063 1.96178e-18)
(0.780274 0.25339 -2.12252e-19)
(0.939978 0.311967 1.52039e-18)
(1.03021 0.351948 9.15185e-19)
(1.08086 0.374181 1.62186e-19)
(1.10621 0.385599 2.94201e-19)
(1.12141 0.393392 5.69506e-19)
(1.13608 0.396615 1.2994e-18)
(-0.016716 0.00319605 1.00169e-18)
(-0.0357992 -0.00151058 1.42694e-18)
(-0.0484855 -0.0107479 -1.28375e-18)
(-0.0488479 -0.0128027 1.16512e-18)
(-0.0260557 -0.0077974 -2.68694e-18)
(0.0776955 0.00470532 6.52986e-19)
(0.372257 0.112396 -2.30897e-19)
(0.671215 0.214375 -1.2187e-18)
(0.876277 0.289181 -2.2054e-18)
(0.998912 0.333538 -8.58984e-19)
(1.06372 0.363992 -2.15164e-18)
(1.09632 0.377167 1.33284e-18)
(1.11296 0.385071 -1.78608e-18)
(1.1253 0.391311 1.20222e-18)
(1.13481 0.391251 8.11714e-19)
(-0.0204093 0.00524526 -2.37157e-18)
(-0.0405336 0.00375775 8.06448e-20)
(-0.0482975 -0.00241224 1.7031e-19)
(-0.0390228 -0.00089267 3.24127e-19)
(0.00206769 -0.000329488 1.81758e-19)
(0.183304 0.0448668 1.26901e-18)
(0.518487 0.165747 6.9853e-19)
(0.783131 0.255768 -1.96333e-19)
(0.948792 0.316482 9.88237e-19)
(1.04101 0.349782 6.47023e-19)
(1.08453 0.371294 2.96977e-19)
(1.10665 0.378777 -7.49609e-19)
(1.1176 0.384701 2.45519e-18)
(1.12512 0.387558 4.19833e-19)
(1.13422 0.386741 -8.78406e-19)
(-0.0229546 0.00643829 2.17748e-18)
(-0.0435357 0.00740212 -1.55709e-18)
(-0.0459474 0.00412203 4.97831e-19)
(-0.0282748 0.00722183 -5.10571e-20)
(0.0463823 0.00299407 2.55818e-18)
(0.324332 0.100048 -2.10534e-19)
(0.647879 0.212686 -8.40539e-19)
(0.872657 0.289368 2.05916e-18)
(1.00269 0.337457 1.94235e-19)
(1.0691 0.36085 8.41108e-19)
(1.09849 0.376361 -1.69773e-18)
(1.11263 0.379269 3.81452e-20)
(1.1187 0.383276 -7.68562e-19)
(1.12588 0.384816 -1.56347e-19)
(1.13357 0.383228 -5.11454e-19)
(-0.0246835 0.00681993 -5.82652e-19)
(-0.0451368 0.00919905 1.62223e-18)
(-0.0422459 0.0090329 9.80363e-19)
(-0.0158438 0.00896872 7.82536e-19)
(0.119986 0.0223767 -4.21322e-19)
(0.466685 0.151811 -1.68189e-19)
(0.757818 0.252031 1.10059e-18)
(0.942201 0.315803 -8.72294e-19)
(1.04092 0.352578 2.6861e-19)
(1.08812 0.368943 -1.41496e-18)
(1.10654 0.379343 1.02093e-19)
(1.11554 0.378945 2.15108e-19)
(1.12 0.382718 -3.17963e-19)
(1.12525 0.381844 -1.87802e-18)
(1.13098 0.379129 7.82603e-19)
(-0.0260085 0.00647992 -1.02162e-18)
(-0.0454663 0.00944871 -1.27925e-18)
(-0.0383051 0.0123118 6.72573e-19)
(0.00668543 0.0033522 -8.88301e-20)
(0.233594 0.0680772 -1.04354e-18)
(0.592403 0.197618 -4.1829e-20)
(0.84672 0.284856 -7.72245e-19)
(0.994336 0.336442 -1.53075e-18)
(1.06784 0.363961 -6.25876e-19)
(1.09981 0.374402 5.83069e-19)
(1.1112 0.381138 5.35808e-19)
(1.11736 0.378828 -5.57496e-20)
(1.11934 0.381652 -8.51874e-19)
(1.12409 0.378852 1.54667e-18)
(1.12986 0.376647 4.76997e-19)
(-0.0273118 0.00550381 1.00358e-18)
(-0.0447053 0.00904462 1.35745e-21)
(-0.0345462 0.0118931 -1.64987e-18)
(0.0498452 -0.000392141 -3.67903e-20)
(0.371925 0.120903 2.5168e-19)
(0.7037 0.237034 4.56934e-19)
(0.91786 0.311227 -8.18965e-19)
(1.03311 0.35225 4.23526e-19)
(1.08583 0.371924 -1.89108e-20)
(1.10707 0.378303 4.73584e-19)
(1.11363 0.382305 -4.25894e-19)
(1.1173 0.378321 -1.19513e-18)
(1.1187 0.380992 -5.70772e-20)
(1.12317 0.376494 -7.46894e-19)
(1.12688 0.373795 -6.42404e-19)
(-0.0287161 0.00408385 4.07561e-19)
(-0.0434447 0.0090614 -8.33338e-19)
(-0.0281311 0.00725187 8.39133e-19)
(0.121136 0.0186899 -2.64964e-19)
(0.500492 0.167262 -1.44678e-19)
(0.796374 0.270521 -4.10418e-19)
(0.97245 0.332563 6.46471e-19)
(1.0604 0.364275 4.18073e-19)
(1.09758 0.377928 -2.49529e-19)
(1.11094 0.381146 -7.08987e-19)
(1.11426 0.382899 -2.56943e-19)
(1.117 0.378241 1.22228e-18)
(1.11737 0.380326 7.46068e-19)
(1.12108 0.373812 7.33495e-19)
(1.12464 0.371905 -2.25116e-19)
(-0.0300568 0.00269215 -2.56669e-19)
(-0.0426746 0.00935096 9.21642e-20)
(-0.011953 -0.00170767 -3.46255e-19)
(0.225606 0.0643906 -4.53691e-21)
(0.612054 0.208675 -2.67343e-19)
(0.872275 0.299045 -3.98623e-19)
(1.01437 0.349611 1.40056e-19)
(1.07987 0.373437 -8.28866e-19)
(1.10486 0.382224 7.3752e-19)
(1.11274 0.383224 9.41956e-19)
(1.1142 0.383474 1.20661e-19)
(1.11569 0.378101 -1.05773e-18)
(1.11558 0.379628 -1.02792e-18)
(1.11949 0.371886 -7.74743e-19)
(1.12167 0.370309 3.11094e-19)
(-0.031148 0.00225337 -8.25082e-19)
(-0.0427119 0.00807351 2.26394e-19)
(0.0229185 -0.00907226 -1.6473e-19)
(0.352758 0.115857 -2.02453e-21)
(0.711465 0.243896 -6.76962e-20)
(0.933198 0.322149 -1.51043e-19)
(1.04528 0.36306 2.8287e-19)
(1.09262 0.380414 -1.61534e-19)
(1.10886 0.385619 -2.11549e-19)
(1.11305 0.385032 -4.08327e-19)
(1.11308 0.383859 -3.61986e-19)
(1.11414 0.378244 -1.65411e-19)
(1.11373 0.379159 6.37627e-19)
(1.11691 0.369859 -2.45796e-20)
(1.11842 0.368956 4.97859e-19)
(-0.0318238 0.0036907 3.43123e-19)
(-0.0419591 0.00419818 5.7204e-19)
(0.0789592 -0.00146237 9.57586e-20)
(0.475059 0.160342 3.55753e-19)
(0.796023 0.27468 7.74249e-19)
(0.980797 0.341556 2.84792e-19)
(1.06768 0.373868 1.04695e-18)
(1.1011 0.385957 5.51616e-19)
(1.11085 0.38835 3.48928e-19)
(1.1124 0.386515 8.00256e-19)
(1.11174 0.384395 2.48128e-19)
(1.11212 0.378507 4.5252e-19)
(1.11125 0.378536 2.23966e-19)
(1.1145 0.368388 1.05165e-19)
(1.11523 0.368215 3.43106e-19)
(-0.0321698 0.00694347 4.77308e-19)
(-0.0367218 -0.00211671 -8.12781e-19)
(0.15587 0.0284095 -1.56094e-19)
(0.578908 0.199525 3.70106e-19)
(0.866375 0.302171 -7.80484e-19)
(1.01807 0.35775 -3.17819e-19)
(1.08359 0.382481 -6.45601e-19)
(1.10599 0.390367 -2.12793e-20)
(1.11116 0.390723 -1.73546e-19)
(1.11107 0.38804 -6.73008e-19)
(1.10973 0.384962 5.10782e-19)
(1.10973 0.378898 3.8344e-20)
(1.10882 0.378184 -2.19245e-20)
(1.11152 0.367115 1.83692e-19)
(1.11132 0.367373 -4.2161e-19)
(-0.032627 0.0102604 -3.49263e-20)
(-0.0222407 -0.00957822 3.54951e-19)
(0.254195 0.0735137 9.80707e-20)
(0.670168 0.234149 -5.17393e-19)
(0.923669 0.325476 3.44909e-19)
(1.04624 0.371285 1.09536e-19)
(1.09439 0.389636 -2.87173e-19)
(1.10865 0.394197 -1.35885e-19)
(1.11059 0.392974 -4.1225e-19)
(1.10922 0.389489 7.31676e-20)
(1.10756 0.385693 -4.94065e-19)
(1.10714 0.379474 -3.49035e-19)
(1.10584 0.377752 9.28467e-20)
(1.10834 0.366176 9.59573e-20)
(1.10772 0.367065 -1.66609e-19)
(-0.0334572 0.0108665 -1.77097e-19)
(0.005026 -0.0136036 -1.12164e-19)
(0.3638 0.11987 2.44365e-19)
(0.750033 0.263988 4.43833e-19)
(0.969314 0.345147 8.58504e-20)
(1.06718 0.382585 -2.36473e-19)
(1.10155 0.395675 2.97276e-19)
(1.10958 0.397603 2.58442e-19)
(1.10913 0.395151 1.3437e-19)
(1.10697 0.391076 2.55921e-20)
(1.10492 0.386559 1.58678e-19)
(1.1041 0.380103 7.0205e-20)
(1.10281 0.377554 -4.89881e-20)
(1.1049 0.365578 -6.1572e-20)
(1.10346 0.366583 5.43314e-20)
(-0.0344707 0.00661803 -8.23917e-20)
(0.0453522 -0.00989632 -9.64635e-20)
(0.469636 0.161829 7.88828e-20)
(0.820007 0.291331 -1.04898e-19)
(1.00571 0.361882 -2.23923e-19)