/*--------------------------------*- C++ -*----------------------------------*\
  =========                 |
  \\      /  F ield         | OpenFOAM: The Open Source CFD Toolbox
   \\    /   O peration     | Website:  https://openfoam.org
    \\  /    A nd           | Version:  7
     \\/     M anipulation  |
\*---------------------------------------------------------------------------*/
FoamFile
{
    version     2.0;
    format      ascii;
    class       surfaceScalarField;
    location    "24.0009";
    object      phi;
}
// * * * * * * * * * * * * * * * * * * * * * * * * * * * * * * * * * * * * * //

dimensions      [0 3 -1 0 0 0 0];

internalField   nonuniform List<scalar> 
37105
(
-1.11245e-05
1.07587e-05
3.65742e-07
-2.59794e-05
1.43906e-05
4.64351e-07
-4.14058e-05
1.49745e-05
4.51899e-07
-5.75488e-05
1.57065e-05
4.36512e-07
-7.44967e-05
1.65302e-05
4.17746e-07
-9.22942e-05
1.74017e-05
3.95828e-07
-0.000110963
1.82971e-05
3.71287e-07
-0.000130491
1.91837e-05
3.44528e-07
-0.00015086
2.0053e-05
3.16239e-07
-0.000172047
2.08996e-05
2.86954e-07
-0.000194039
2.17351e-05
2.56961e-07
-0.00021682
2.25553e-05
2.25593e-07
-0.000240368
2.33574e-05
1.91401e-07
-0.000264683
2.41618e-05
1.53027e-07
2.507e-05
1.10543e-07
-0.000289864
-1.09561e-05
2.17148e-05
-2.56475e-05
2.9082e-05
-4.09124e-05
3.02394e-05
-5.68766e-05
3.16707e-05
-7.36239e-05
3.32775e-05
-9.11914e-05
3.49691e-05
-0.000109593
3.66985e-05
-0.000128809
3.83996e-05
-0.00014881
4.00546e-05
-0.000169563
4.16519e-05
-0.000191042
4.32148e-05
-0.000213226
4.47392e-05
-0.000236094
4.6225e-05
-0.00025964
4.77075e-05
4.93717e-05
-0.000283941
-1.06192e-05
3.2334e-05
-2.49842e-05
4.3447e-05
-3.99276e-05
4.51828e-05
-5.55371e-05
4.72802e-05
-7.18881e-05
4.96286e-05
-8.90038e-05
5.20848e-05
-0.000106884
5.45782e-05
-0.000125493
5.70091e-05
-0.000144787
5.93484e-05
-0.00016471
6.15751e-05
-0.000185221
6.37253e-05
-0.000206286
6.58042e-05
-0.000227887
6.78261e-05
-0.000250014
6.98351e-05
7.20576e-05
-0.0002727
-1.01205e-05
4.24545e-05
-2.4002e-05
5.73285e-05
-3.84708e-05
5.96516e-05
-5.35609e-05
6.23703e-05
-6.93359e-05
6.54036e-05
-8.57997e-05
6.85486e-05
-0.000102934
7.17121e-05
-0.000120685
7.47603e-05
-0.000138988
7.76515e-05
-0.000157766
8.03535e-05
-0.000176958
8.29166e-05
-0.000196519
8.5366e-05
-0.000216439
8.77454e-05
-0.000236705
9.0102e-05
9.26605e-05
-0.000257308
-9.47134e-06
5.19258e-05
-2.27185e-05
7.05757e-05
-3.6569e-05
7.35021e-05
-5.09907e-05
7.67919e-05
-6.60309e-05
8.04439e-05
-8.16716e-05
8.41892e-05
-9.78738e-05
8.79143e-05
-0.000114566
9.14524e-05
-0.000131664
9.47499e-05
-0.000149073
9.77624e-05
-0.000166713
0.000100557
-0.000184536
0.000103189
-0.000202539
0.000105748
-0.000220721
0.000108284
0.000110991
-0.000239052
-8.70116e-06
6.0627e-05
-2.11543e-05
8.30288e-05
-3.42546e-05
8.66024e-05
-4.78778e-05
9.04152e-05
-6.20489e-05
9.46149e-05
-7.67264e-05
9.88667e-05
-9.18518e-05
0.00010304
-0.000107337
0.000106938
-0.000123084
0.000110497
-0.000138984
0.000113663
-0.000154949
0.000116521
-0.000170927
0.000119168
-0.000186929
0.000121749
-0.000202979
0.000124334
0.000127064
-0.000219053
-7.78998e-06
6.8417e-05
-1.93208e-05
9.45596e-05
-3.15624e-05
9.8844e-05
-4.42792e-05
0.000103132
-5.74717e-05
0.000107807
-7.10773e-05
0.000112472
-8.50201e-05
0.000116982
-9.91987e-05
0.000121116
-0.000113506
0.000124805
-0.00012783
0.000127986
-0.000142077
0.000130768
-0.000156199
0.00013329
-0.00017022
0.00013577
-0.000184197
0.000138311
0.000141001
-0.000198133
-6.73468e-06
7.51516e-05
-1.72333e-05
0.000105058
-2.85293e-05
0.00011014
-4.02539e-05
0.000114857
-5.23831e-05
0.000119937
-6.48372e-05
0.000124926
-7.75262e-05
0.000129671
-9.03397e-05
0.00013393
-0.000103167
0.000137632
-0.000115897
0.000140716
-0.00012844
0.000143311
-0.000140751
0.000145601
-0.000152863
0.000147882
-0.000164866
0.000150314
0.000152933
-0.000176798
-5.55432e-06
8.0706e-05
-1.49139e-05
0.000114418
-2.51942e-05
0.00012042
-3.58614e-05
0.000125524
-4.68648e-05
0.00013094
-5.81134e-05
0.000136175
-6.95067e-05
0.000141065
-8.09284e-05
0.000145351
-9.22678e-05
0.000148971
-0.00010342
0.000151869
-0.000114304
0.000154195
-0.000124874
0.000156171
-0.000135164
0.000158172
-0.000145281
0.000160432
0.000162952
-0.0001553
-4.26181e-06
8.49678e-05
-1.23875e-05
0.000122544
-2.15987e-05
0.000129631
-3.11598e-05
0.000135085
-4.09944e-05
0.000140775
-5.10056e-05
0.000146186
-6.10844e-05
0.000151144
-7.11113e-05
0.000155378
-8.09773e-05
0.000158837
-9.05861e-05
0.000161478
-9.9865e-05
0.000163474
-0.00010877
0.000165076
-0.000117315
0.000166717
-0.000125605
0.000168722
0.000171093
-0.000133746
-2.8639e-06
8.78317e-05
-9.68223e-06
0.000129362
-1.77831e-05
0.000137732
-2.62039e-05
0.000143506
-3.48441e-05
0.000149415
-4.36037e-05
0.000154946
-5.23668e-05
0.000159907
-6.10121e-05
0.000164023
-6.94331e-05
0.000167258
-7.75401e-05
0.000169585
-8.52691e-05
0.000171203
-9.25743e-05
0.000172381
-9.94396e-05
0.000173582
-0.000105927
0.00017521
0.000177347
-0.000112182
-1.35248e-06
8.91841e-05
-6.837e-06
0.000134846
-1.37876e-05
0.000144683
-2.10442e-05
0.000150762
-2.848e-05
0.000156851
-3.5989e-05
0.000162455
-4.3448e-05
0.000167366
-5.0736e-05
0.000171311
-5.77479e-05
0.00017427
-6.43964e-05
0.000176233
-7.0622e-05
0.000177428
-7.63808e-05
0.00017814
-8.16218e-05
0.000178823
-8.6318e-05
0.000179906
0.000181679
-9.06499e-05
2.67559e-07
8.89166e-05
-3.89774e-06
0.000139012
-9.6416e-06
0.000150427
-1.57276e-05
0.000156848
-2.19635e-05
0.000163087
-2.82336e-05
0.000168725
-3.44093e-05
0.000173541
-4.03705e-05
0.000177273
-4.60121e-05
0.000179912
-5.12464e-05
0.000181467
-5.60086e-05
0.00018219
-6.02563e-05
0.000182388
-6.39305e-05
0.000182497
-6.68731e-05
0.000182849
0.00018397
-6.91638e-05
1.68974e-06
8.72268e-05
-9.17092e-07
0.000141619
-5.38089e-06
0.000154891
-1.03008e-05
0.000161768
-1.53506e-05
0.000168136
-2.04027e-05
0.000173777
-2.53226e-05
0.000178461
-2.99923e-05
0.000181942
-3.43036e-05
0.000184223
-3.81667e-05
0.000185331
-4.15018e-05
0.000185526
-4.4254e-05
0.00018514
-4.63996e-05
0.000184643
-4.77223e-05
0.000184172
0.000183916
-4.76685e-05
3.22485e-06
8.4002e-05
2.21464e-06
0.000142629
-1.06607e-06
0.000158171
-4.81036e-06
0.000165513
-8.6965e-06
0.000172023
-1.2556e-05
0.000177636
-1.62526e-05
0.000182158
-1.96686e-05
0.000185358
-2.26874e-05
0.000187242
-2.52206e-05
0.000187864
-2.71699e-05
0.000187475
-2.84384e-05
0.000186408
-2.90082e-05
0.000185213
-2.88234e-05
0.000183987
0.000181883
-2.67905e-05
4.78155e-06
7.92205e-05
5.38978e-06
0.000142021
3.39076e-06
0.00016017
6.92791e-07
0.00016821
-2.06772e-06
0.000174783
-4.75505e-06
0.000180324
-7.26423e-06
0.000184667
-9.46515e-06
0.000187559
-1.12309e-05
0.000189008
-1.24696e-05
0.000189103
-1.307e-05
0.000188075
-1.28921e-05
0.00018623
-1.18447e-05
0.000184165
-9.94357e-06
0.000182086
0.000178657
-6.71725e-06
6.29862e-06
7.29218e-05
8.55778e-06
0.000139761
7.85396e-06
0.000160874
6.29957e-06
0.000169765
4.60745e-06
0.000176475
2.99167e-06
0.00018194
1.58375e-06
0.000186075
5.23463e-07
0.00018862
-6.68435e-08
0.000189598
-2.86804e-08
0.000189064
7.41737e-07
0.000187305
2.32808e-06
0.000184644
4.86205e-06
0.000181631
8.45827e-06
0.000178489
0.00017386
1.32547e-05
7.71434e-06
6.52075e-05
1.16598e-05
0.000135816
1.22768e-05
0.000160257
1.18199e-05
0.000170222
1.12009e-05
0.000177094
1.06722e-05
0.000182468
1.03822e-05
0.000186365
1.04638e-05
0.000188538
1.10566e-05
0.000189005
1.22785e-05
0.000187842
1.42507e-05
0.000185333
1.71895e-05
0.000181705
2.12733e-05
0.000177547
2.62068e-05
0.000173556
0.000167198
3.28693e-05
8.94738e-06
5.62601e-05
1.46102e-05
0.000130153
1.66133e-05
0.000158254
1.72529e-05
0.000169582
1.76554e-05
0.000176692
1.81557e-05
0.000181968
1.89154e-05
0.000185605
2.00724e-05
0.000187381
2.17717e-05
0.000187306
2.41645e-05
0.00018545
2.7361e-05
0.000182136
3.15714e-05
0.000177495
3.72026e-05
0.000171916
4.36278e-05
0.000167131
0.000158984
5.18415e-05
9.88323e-06
4.63769e-05
1.73024e-05
0.000122734
2.0795e-05
0.000154761
2.25559e-05
0.000167821
2.39423e-05
0.000175305
2.54195e-05
0.000180491
2.71776e-05
0.000183847
2.93585e-05
0.0001852
3.21151e-05
0.000184549
3.56398e-05
0.000181925
4.00463e-05
0.00017773
4.54346e-05
0.000172107
5.26178e-05
0.000164733
6.06007e-05
0.000159148
0.000149338
7.02473e-05
1.03673e-05
3.60096e-05
1.96107e-05
0.00011349
2.4734e-05
0.000149638
2.76674e-05
0.000164888
3.00192e-05
0.000172954
3.24268e-05
0.000178083
3.51303e-05
0.000181144
3.82842e-05
0.000182046
4.20429e-05
0.000180791
4.66443e-05
0.000177324
5.22715e-05
0.000172102
5.87295e-05
0.000165649
6.73851e-05
0.000156077
7.69948e-05
0.000149538
0.000138121
8.82117e-05
1.02273e-05
2.57823e-05
2.14043e-05
0.000102313
2.83146e-05
0.000142728
3.25076e-05
0.000160695
3.58343e-05
0.000169627
3.91366e-05
0.000174781
4.27318e-05
0.000177548
4.68067e-05
0.000177971
5.15095e-05
0.000176088
5.70847e-05
0.000171748
6.3978e-05
0.000165209
7.14297e-05
0.000158197
8.14437e-05
0.000146063
9.26646e-05
0.000138317
0.000125065
0.00010572
9.37182e-06
1.64105e-05
2.25585e-05
8.91268e-05
3.13851e-05
0.000133901
3.69727e-05
0.000155107
4.13294e-05
0.00016527
4.55051e-05
0.000170605
4.99312e-05
0.000173122
5.48708e-05
0.000173032
6.049e-05
0.000170469
6.68827e-05
0.000165356
7.50894e-05
0.000157002
8.35113e-05
0.000149775
9.46743e-05
0.0001349
0.000107392
0.0001256
0.000109638
0.000122819
7.91612e-06
8.49436e-06
2.29215e-05
7.41214e-05
3.37568e-05
0.000123066
4.09402e-05
0.000147924
4.64276e-05
0.000159783
5.14797e-05
0.000165553
5.66848e-05
0.000167917
6.24038e-05
0.000167313
6.89504e-05
0.000163922
7.59997e-05
0.000158306
8.55029e-05
0.000147499
9.50337e-05
0.000140244
0.000107237
0.000122697
0.000120703
0.000112134
9.13241e-05
0.000139016
6.1452e-06
2.34916e-06
2.22959e-05
5.79707e-05
3.52263e-05
0.000110136
4.42587e-05
0.000138891
5.10313e-05
0.00015301
5.69862e-05
0.000159598
6.29372e-05
0.000161966
6.93105e-05
0.000160939
7.68473e-05
0.000156385
8.4421e-05
0.000150733
9.50015e-05
0.000136919
0.000105813
0.000129433
0.000119657
0.000108853
0.000133094
9.86965e-05
7.05942e-05
0.000153824
4.3196e-06
-1.97044e-06
2.04903e-05
4.18e-05
3.55945e-05
9.50312e-05
4.67435e-05
0.000127742
5.49849e-05
0.000144769
6.19235e-05
0.000152659
6.86534e-05
0.000155237
7.55057e-05
0.000154087
8.40406e-05
0.00014785
9.2207e-05
0.000142566
0.000103509
0.000125616
0.00011529
0.000117653
0.000131594
9.25486e-05
0.000145335
8.49552e-05
4.80204e-05
0.000167909
2.61251e-06
-4.58295e-06
1.75104e-05
2.69021e-05
3.46877e-05
7.7854e-05
4.81312e-05
0.000114299
5.80903e-05
0.00013481
6.61135e-05
0.000144636
7.37382e-05
0.000147612
8.09838e-05
0.000146841
9.03457e-05
0.000138488
9.93281e-05
0.000133584
0.000111213
0.000113731
0.00012337
0.000105495
0.000141982
7.39364e-05
0.000156923
7.00145e-05
2.37508e-05
0.000181193
1.23506e-06
-5.81801e-06
1.37356e-05
1.44015e-05
3.2374e-05
5.92156e-05
4.80894e-05
9.85835e-05
6.00497e-05
0.00012285
6.93511e-05
0.000135335
7.80077e-05
0.000138955
8.56534e-05
0.000139196
9.54987e-05
0.000128643
0.000105592
0.00012349
0.000118198
0.000101126
0.00013059
9.31032e-05
0.000150309
5.42175e-05
0.000167221
5.31028e-05
-1.76937e-06
0.000192741
3.90738e-07
-6.20875e-06
9.83809e-06
4.95416e-06
2.84715e-05
4.05822e-05
4.62476e-05
8.08074e-05
6.05217e-05
0.000108575
7.12739e-05
0.000124583
8.11951e-05
0.000129034
8.95825e-05
0.000130808
9.92326e-05
0.000118993
0.000110317
0.000112406
0.000123847
8.75958e-05
0.000137603
7.93469e-05
0.000155569
3.62517e-05
0.000176019
3.26527e-05
-2.79546e-05
0.000202204
3.13071e-08
-6.24005e-06
6.49745e-06
-1.51198e-06
2.31055e-05
2.39742e-05
4.23037e-05
6.16092e-05
5.90446e-05
9.18345e-05
7.15931e-05
0.000112034
8.26218e-05
0.000118006
9.24542e-05
0.000120976
0.000101983
0.000109464
0.000113507
0.000100882
0.000125941
7.51617e-05
0.000143674
6.16145e-05
0.000157346
2.25794e-05
0.00018332
6.67905e-06
-5.0923e-05
0.000206288
-4.40681e-08
-6.19599e-06
4.08381e-06
-5.63986e-06
1.72298e-05
1.08281e-05
3.63061e-05
4.25329e-05
5.50903e-05
7.30503e-05
6.97999e-05
9.73246e-05
8.20237e-05
0.000105782
9.30698e-05
0.00010993
0.000102985
9.95492e-05
0.000116034
8.78333e-05
0.000125961
6.52342e-05
0.000146931
4.06451e-05
0.000158549
1.0961e-05
0.000185898
-2.06697e-05
-6.79466e-05
0.000202921
9.22194e-08
-6.2882e-06
2.83983e-06
-8.38747e-06
1.21547e-05
1.51328e-06
2.89835e-05
2.57041e-05
4.84531e-05
5.35807e-05
6.52111e-05
8.05666e-05
7.86686e-05
9.23242e-05
9.16095e-05
9.69886e-05
0.000100822
9.03369e-05
0.000116846
7.18094e-05
0.000124061
5.8019e-05
0.000147501
1.72048e-05
0.000155524
2.93777e-06
0.000185474
-5.06192e-05
-8.08771e-05
0.000198404
3.62039e-07
-6.65024e-06
2.51429e-06
-1.05397e-05
8.71618e-06
-4.68861e-06
2.18038e-05
1.26165e-05
3.96933e-05
3.56912e-05
5.75909e-05
6.2669e-05
7.1879e-05
7.80361e-05
8.66523e-05
8.22154e-05
9.61353e-05
8.08539e-05
0.000112101
5.58442e-05
0.000121902
4.82178e-05
0.000143927
-4.82081e-06
0.000151504
-4.63892e-06
0.000184252
-8.3367e-05
-7.87124e-05
0.000182087
6.83058e-07
-7.3333e-06
2.6189e-06
-1.24756e-05
6.83431e-06
-8.90403e-06
1.60203e-05
3.4305e-06
3.02965e-05
2.14151e-05
4.73325e-05
4.5633e-05
6.20259e-05
6.33427e-05
7.6742e-05
6.74992e-05
8.83498e-05
6.92461e-05
0.000101626
4.25684e-05
0.000114603
3.52401e-05
0.000129777
-1.99945e-05
0.000141462
-1.63234e-05
0.000164504
-0.000106409
-8.33399e-05
0.000169131
9.21336e-07
-8.25464e-06
2.68078e-06
-1.4235e-05
5.67553e-06
-1.18988e-05
1.16927e-05
-2.58669e-06
2.16768e-05
1.1431e-05
3.56155e-05
3.16943e-05
4.95223e-05
4.94359e-05
6.27314e-05
5.42901e-05
7.47592e-05
5.72183e-05
8.65485e-05
3.07791e-05
9.91009e-05
2.26876e-05
0.000106672
-2.75653e-05
0.000123659
-3.33105e-05
0.000137499
-0.000120249
-0.000129962
0.000184121
9.4887e-07
-9.20351e-06
2.30961e-06
-1.55958e-05
4.2901e-06
-1.38793e-05
7.93052e-06
-6.22711e-06
1.40773e-05
5.28421e-06
2.38212e-05
2.19503e-05
3.52753e-05
3.79819e-05
4.59584e-05
4.36069e-05
5.66095e-05
4.65672e-05
6.66964e-05
2.06922e-05
7.80985e-05
1.12855e-05
8.64338e-05
-3.59006e-05
0.000118377
-6.52536e-05
0.000155725
-0.000157597
-0.000201327
0.00022709
6.84484e-07
-9.88799e-06
1.29386e-06
-1.62051e-05
2.09045e-06
-1.46758e-05
3.75565e-06
-7.8923e-06
6.79279e-06
2.24706e-06
1.25047e-05
1.62384e-05
2.03179e-05
3.01687e-05
2.81479e-05
3.57769e-05
3.62826e-05
3.84325e-05
4.30043e-05
1.39705e-05
5.87567e-05
-4.46681e-06
8.47915e-05
-6.19354e-05
0.000139158
-0.00011962
0.000192779
-0.000211217
-0.000260464
0.000251916
1.19586e-07
-1.00076e-05
-3.67034e-07
-1.57185e-05
-1.01631e-06
-1.40266e-05
-1.28001e-06
-7.62859e-06
-9.50099e-07
1.91715e-06
1.37723e-06
1.39111e-05
5.03202e-06
2.65139e-05
9.80531e-06
3.10036e-05
1.55803e-05
3.26574e-05
2.59628e-05
3.58803e-06
5.95469e-05
-3.80509e-05
0.000109184
-0.000111572
0.00017235
-0.000182787
0.000217697
-0.000256564
-0.000302744
0.000259978
-6.73105e-07
-9.33447e-06
-2.44794e-06
-1.39437e-05
-4.68191e-06
-1.17926e-05
-6.90422e-06
-5.40628e-06
-8.89639e-06
3.90931e-06
-1.01968e-05
1.52115e-05
-1.01737e-05
2.64908e-05
-7.25946e-06
2.80894e-05
3.99328e-06
2.14047e-05
3.23952e-05
-2.48139e-05
8.5499e-05
-9.11548e-05
0.000142516
-0.000168589
0.000194874
-0.000235145
0.000230684
-0.000292374
-0.000335454
0.000263394
-1.55105e-06
-7.78343e-06
-4.64256e-06
-1.08522e-05
-8.43042e-06
-8.00475e-06
-1.24953e-05
-1.3414e-06
-1.65335e-05
7.94756e-06
-2.01564e-05
1.88343e-05
-2.16051e-05
2.79394e-05
-1.53066e-05
2.1791e-05
1.13646e-05
-5.26652e-06
5.96448e-05
-7.30941e-05
0.000117612
-0.000149122
0.000167001
-0.000217979
0.000206967
-0.00027511
0.000236565
-0.000321973
-0.000358798
0.000259909
-2.32048e-06
-5.46295e-06
-6.47743e-06
-6.69521e-06
-1.14387e-05
-3.04349e-06
-1.66401e-05
3.86003e-06
-2.15485e-05
1.2856e-05
-2.48629e-05
2.21487e-05
-2.34978e-05
2.65743e-05
-6.48035e-06
4.77354e-06
3.60859e-05
-4.78328e-05
9.0804e-05
-0.000127812
0.000141286
-0.000199604
0.000181578
-0.00025827
0.000212866
-0.000306399
0.000235514
-0.00034462
-0.000378007
0.000254723
-2.79954e-06
-2.66341e-06
-7.53357e-06
-1.96118e-06
-1.29153e-05
2.33828e-06
-1.81675e-05
9.11219e-06
-2.22343e-05
1.69228e-05
-2.26267e-05
2.25411e-05
-1.46898e-05
1.86374e-05
1.55691e-05
-2.54853e-05
6.61251e-05
-9.83888e-05
0.000115545
-0.000177232
0.00015697
-0.000241029
0.000189295
-0.000290595
0.000213257
-0.000330361
0.000232125
-0.000363488
-0.000394158
0.000248276
-2.90171e-06
2.38303e-07
-7.63629e-06
2.7734e-06
-1.26824e-05
7.38436e-06
-1.69339e-05
1.33637e-05
-1.88748e-05
1.88637e-05
-1.55439e-05
1.92101e-05
1.73247e-06
1.36105e-06
4.19571e-05
-6.57099e-05
9.09071e-05
-0.000147339
0.000133122
-0.000219446
0.000166302
-0.00027421
0.000191608
-0.000315901
0.000211155
-0.000349907
0.000226649
-0.000378983
-0.000407691
0.000240182
-2.66241e-06
2.90071e-06
-6.92074e-06
7.03173e-06
-1.10868e-05
1.15504e-05
-1.37866e-05
1.60636e-05
-1.31576e-05
1.82347e-05
-6.10247e-06
1.2155e-05
2.09475e-05
-2.56889e-05
6.60898e-05
-0.000110852
0.000109389
-0.000190639
0.000144343
-0.0002544
0.000170699
-0.000300566
0.000191044
-0.000336246
0.000206729
-0.000365592
0.000219921
-0.000392175
-0.000420422
0.000232653
-2.19081e-06
5.09152e-06
-5.68444e-06
1.05254e-05
-8.73238e-06
1.45983e-05
-9.87761e-06
1.72088e-05
-7.22846e-06
1.55856e-05
5.69429e-06
-7.67767e-07
4.19828e-05
-6.19774e-05
8.52624e-05
-0.000154132
0.00012234
-0.000227716
0.000150721
-0.000282781
0.000171784
-0.000321629
0.000187959
-0.000352421
0.000201162
-0.000378795
0.000213146
-0.000404159
-0.000431518
0.000224241
-1.62625e-06
6.71777e-06
-4.25715e-06
1.31563e-05
-6.19998e-06
1.65412e-05
-5.98679e-06
1.69956e-05
-1.99006e-06
1.15888e-05
1.91465e-05
-2.19043e-05
6.16489e-05
-0.00010448
0.000100037
-0.000192519
0.000130689
-0.000258369
0.000153424
-0.000305515
0.000170192
-0.000338397
0.000183661
-0.00036589
0.000195078
-0.000390212
0.000205582
-0.000414663
-0.000441927
0.000215992
-1.08889e-06
7.80665e-06
-2.90573e-06
1.49731e-05
-3.9078e-06
1.75432e-05
-2.83405e-06
1.59219e-05
4.78525e-06
3.96951e-06
3.5056e-05
-5.21751e-05
7.6912e-05
-0.000146336
0.000110428
-0.000226035
0.00013534
-0.000283281
0.000153402
-0.000323577
0.000167102
-0.000352097
0.000178424
-0.000377212
0.000188336
-0.000400124
0.000198212
-0.00042454
-0.000451544
0.000207829
-6.59027e-07
8.46568e-06
-1.79709e-06
1.61112e-05
-1.96953e-06
1.77157e-05
-6.24649e-07
1.4577e-05
1.3909e-05
-1.05641e-05
5.15727e-05
-8.98388e-05
8.86002e-05
-0.000183363
0.000116976
-0.000254411
0.000137123
-0.000303428
0.000151581
-0.000338036
0.000162813
-0.000363329
0.000172579
-0.000386978
0.000181639
-0.000409184
0.000190619
-0.00043352
-0.000460218
0.000199293
-3.76804e-07
8.84248e-06
-9.59241e-07
1.66936e-05
-5.50878e-07
1.73073e-05
2.39852e-06
1.16276e-05
2.50868e-05
-3.32524e-05
6.48433e-05
-0.000129595
9.71071e-05
-0.000215627
0.00012045
-0.000277754
0.0001367
-0.000319678
0.00014836
-0.000349696
0.000157868
-0.000372836
0.000166506
-0.000395616
0.000174612
-0.00041729
0.000182945
-0.000441852
-0.000468451
0.000191178
-2.48634e-07
9.09112e-06
-3.39667e-07
1.67846e-05
-9.13184e-09
1.69768e-05
7.71914e-06
3.89931e-06
3.85488e-05
-6.40821e-05
7.46187e-05
-0.000165665
0.000102447
-0.000243456
0.000121564
-0.000296872
0.000134658
-0.000332772
0.000144284
-0.000359322
0.000152468
-0.000381019
0.000160106
-0.000403254
0.000167625
-0.000424809
0.000175389
-0.000449617
-0.000475787
0.000182725
-2.23041e-07
9.31416e-06
1.84004e-08
1.65432e-05
3.81858e-07
1.66133e-05
1.45599e-05
-1.02787e-05
5.08531e-05
-0.000100375
8.22063e-05
-0.000197018
0.000105274
-0.000266523
0.000120803
-0.000312401
0.000131471
-0.000343439
0.000139546
-0.000367397
0.000146735
-0.000388209
0.000153681
-0.0004102
0.000160555
-0.000431683
0.000167622
-0.000456684
-0.000482663
0.000174498
-2.31986e-07
9.54614e-06
9.48119e-08
1.62164e-05
1.92751e-06
1.47806e-05
2.33385e-05
-3.16897e-05
5.95384e-05
-0.000136575
8.72157e-05
-0.000224696
0.00010615
-0.000285457
0.000118699
-0.00032495
0.000127468
-0.000352208
0.000134411
-0.00037434
0.00014085
-0.000394648
0.000147099
-0.00041645
0.000153431
-0.000438015
0.000160017
-0.00046327
-0.000488868
0.000166222
-1.86654e-07
9.7328e-06
-1.19678e-07
1.61494e-05
5.59267e-06
9.06828e-06
3.37743e-05
-5.98714e-05
6.59858e-05
-0.000168787
8.99083e-05
-0.000248618
0.000105478
-0.000301027
0.000115617
-0.000335089
0.000122927
-0.000359518
0.000128994
-0.000380407
0.000134783
-0.000400437
0.000140506
-0.000422172
0.000146342
-0.000443851
0.000152262
-0.00046919
-0.00049452
0.000157914
-2.045e-07
9.9373e-06
-4.57608e-07
1.64025e-05
1.03369e-05
-1.72619e-06
4.31012e-05
-9.26357e-05
7.08709e-05
-0.000196556
9.07279e-05
-0.000268475
0.000103496
-0.000313795
0.000111824
-0.000343417
0.000118023
-0.000365717
0.000123397
-0.000385781
0.000128669
-0.000405709
0.000133863
-0.000427366
0.000139175
-0.000449163
0.000144597
-0.000474611
-0.000499673
0.00014975
-2.26198e-07
1.01635e-05
-2.35656e-07
1.6412e-05
1.58409e-05
-1.78028e-05
4.93501e-05
-0.000126145
7.39975e-05
-0.000221204
9.03131e-05
-0.000284791
0.000100662
-0.000324145
0.00010754
-0.000350295
0.00011288
-0.000371056
0.000117692
-0.000390593
0.000122463
-0.00041048
0.000127192
-0.000432095
0.000132066
-0.000454036
0.000136902
-0.000479447
-0.000504239
0.000141467
-1.57354e-07
1.03209e-05
1.31738e-06
1.49373e-05
2.30576e-05
-3.9543e-05
5.33616e-05
-0.000156449
7.53041e-05
-0.000243146
8.88429e-05
-0.000298329
9.71884e-05
-0.00033249
0.000102916
-0.000356023
0.00010758
-0.00037572
0.000111904
-0.000394918
0.000116241
-0.000414817
0.000120523
-0.000436377
0.000124903
-0.000458416
0.000129225
-0.00048377
-0.000508379
0.000133366
-2.01765e-07
1.05226e-05
4.07478e-06
1.06607e-05
3.01997e-05
-6.5668e-05
5.65251e-05
-0.000182774
7.51324e-05
-0.000261754
8.64112e-05
-0.000309608
9.32659e-05
-0.000339345
9.80915e-05
-0.000360849
0.000102187
-0.000379815
0.000106081
-0.000398813
0.000109984
-0.000418719
0.000113827
-0.000440221
0.000117774
-0.000462363
0.000121588
-0.000487584
-0.000511982
0.000125191
-2.85224e-07
1.08078e-05
7.2352e-06
3.14029e-06
3.58704e-05
-9.43031e-05
5.86024e-05
-0.000205506
7.3994e-05
-0.000277145
8.32788e-05
-0.000318893
8.8978e-05
-0.000345044
9.31165e-05
-0.000364987
9.67403e-05
-0.000383439
0.000100228
-0.0004023
0.000103724
-0.000422215
0.000107153
-0.000443649
0.00011063
-0.00046584
0.000113941
-0.000490895
-0.000515192
0.000117151
-3.25678e-07
1.11335e-05
1.05606e-05
-7.746e-06
3.94294e-05
-0.000123172
5.96213e-05
-0.000225698
7.21945e-05
-0.000289718
7.97073e-05
-0.000326406
8.44658e-05
-0.000349803
8.80577e-05
-0.000368579
9.12659e-05
-0.000386647
9.43726e-05
-0.000405407
9.74628e-05
-0.000425305
0.000100468
-0.000446655
0.000103509
-0.000468882
0.000106363
-0.000493749
-0.00051794
0.000109112
-3.92964e-07
1.15265e-05
1.45943e-05
-2.27332e-05
4.0994e-05
-0.000149572
5.93493e-05
-0.000244053
6.98565e-05
-0.000300226
7.58886e-05
-0.000332438
7.98287e-05
-0.000353743
8.29438e-05
-0.000371694
8.57797e-05
-0.000389483
8.85157e-05
-0.000408143
9.12109e-05
-0.000428
9.38132e-05
-0.000449257
9.64065e-05
-0.000471475
9.8789e-05
-0.000496132
-0.000520304
0.000101153
-1.89724e-07
1.17162e-05
1.84827e-05
-4.14056e-05
4.20474e-05
-0.000173136
5.80507e-05
-0.000260057
6.69709e-05
-0.000309146
7.18888e-05
-0.000337356
7.51493e-05
-0.000357003
7.78285e-05
-0.000374373
8.02997e-05
-0.000391954
8.26731e-05
-0.000410516
8.49781e-05
-0.000430305
8.71682e-05
-0.000451447
8.93281e-05
-0.000473635
9.12833e-05
-0.000498087
-0.000522244
9.32224e-05
4.50396e-07
1.12658e-05
2.18009e-05
-6.27561e-05
4.25282e-05
-0.000193864
5.61576e-05
-0.000273686
6.3654e-05
-0.000316642
6.77391e-05
-0.000341441
7.0456e-05
-0.00035972
7.27284e-05
-0.000376646
7.48403e-05
-0.000394066
7.68496e-05
-0.000412525
7.87662e-05
-0.000432222
8.05579e-05
-0.000453239
8.22871e-05
-0.000475364
8.38014e-05
-0.000499602
-0.000523773
8.53311e-05
1.41947e-06
9.84633e-06
2.43115e-05
-8.56482e-05
4.24706e-05
-0.000212023
5.3885e-05
-0.0002851
6.00714e-05
-0.000322829
6.34765e-05
-0.000344846
6.57594e-05
-0.000362003
6.76637e-05
-0.00037855
6.94151e-05
-0.000395817
7.10567e-05
-0.000414167
7.25875e-05
-0.000433753
7.39749e-05
-0.000454626
7.52761e-05
-0.000476665
7.63724e-05
-0.000500698
-0.000524874
7.74733e-05
2.88336e-06
6.96298e-06
2.5914e-05
-0.000108679
4.19874e-05
-0.000228096
5.13902e-05
-0.000294503
5.63767e-05
-0.000327815
5.91685e-05
-0.000347638
6.10685e-05
-0.000363903
6.26292e-05
-0.000380111
6.40282e-05
-0.000397216
6.53011e-05
-0.00041544
6.64437e-05
-0.000434895
6.74335e-05
-0.000455616
6.83115e-05
-0.000477543
6.89677e-05
-0.000501354
-0.000525509
6.9603e-05
4.79492e-06
2.16806e-06
2.66667e-05
-0.000130551
4.10749e-05
-0.000242504
4.87439e-05
-0.000302172
5.26499e-05
-0.000331721
5.48639e-05
-0.000349852
5.64002e-05
-0.000365439
5.76329e-05
-0.000381343
5.86845e-05
-0.000398268
5.95884e-05
-0.000416344
6.03447e-05
-0.000435652
6.09334e-05
-0.000456205
6.13855e-05
-0.000477995
6.161e-05
-0.000501579
-0.000525681
6.17812e-05
6.93476e-06
-4.7667e-06
2.65727e-05
-0.000150189
3.96067e-05
-0.000255538
4.596e-05
-0.000308526
4.8937e-05
-0.000334698
5.06053e-05
-0.00035152
5.17732e-05
-0.000366607
5.2676e-05
-0.000382246
5.33851e-05
-0.000398977
5.39236e-05
-0.000416882
5.42925e-05
-0.000436021
5.44814e-05
-0.000456394
5.45121e-05
-0.000478026
5.42985e-05
-0.000501365
-0.000525376
5.3994e-05
9.20504e-06
-1.39717e-05
2.65453e-05
-0.000167529
3.77442e-05
-0.000266737
4.2992e-05
-0.000313773
4.52307e-05
-0.000336937
4.64046e-05
-0.000352694
4.72019e-05
-0.000367404
4.77703e-05
-0.000382814
4.81365e-05
-0.000399344
4.83106e-05
-0.000417056
4.82943e-05
-0.000436004
4.808e-05
-0.000456179
4.76858e-05
-0.000477632
4.70455e-05
-0.000500725
-0.000524602
4.62714e-05
1.08897e-05
-2.48614e-05
2.62799e-05
-0.000182919
3.56612e-05
-0.000276118
3.98592e-05
-0.000317971
4.15064e-05
-0.000338584
4.22597e-05
-0.000353448
4.26959e-05
-0.000367841
4.29224e-05
-0.000383041
4.29435e-05
-0.000399365
4.27558e-05
-0.000416869
4.23547e-05
-0.000435603
4.17353e-05
-0.00045556
4.09157e-05
-0.000476812
3.98505e-05
-0.000499659
-0.000523354
3.86027e-05
1.19443e-05
-3.68057e-05
2.56226e-05
-0.000196597
3.33957e-05
-0.000283892
3.66355e-05
-0.000321211
3.77739e-05
-0.000339722
3.81624e-05
-0.000353836
3.82563e-05
-0.000367934
3.8141e-05
-0.000382926
3.78141e-05
-0.000399038
3.72642e-05
-0.000416319
3.64816e-05
-0.000434821
3.54574e-05
-0.000454536
3.42049e-05
-0.00047556
3.27108e-05
-0.000498165
-0.000521651
3.10078e-05
1.24056e-05
-4.92113e-05
2.4616e-05
-0.000208808
3.09965e-05
-0.000290272
3.33849e-05
-0.0003236
3.40633e-05
-0.000340401
3.41173e-05
-0.00035389
3.3884e-05
-0.000367701
3.34291e-05
-0.000382471
3.27531e-05
-0.000398362
3.18422e-05
-0.000415408
3.06819e-05
-0.00043366
2.92595e-05
-0.000453113
2.7577e-05
-0.000473877
2.56224e-05
-0.000496211
-0.000519501
2.34726e-05
1.23966e-05
-6.16079e-05
2.32992e-05
-0.00021971
2.84891e-05
-0.000295462
3.01441e-05
-0.000325254
3.03986e-05
-0.000340655
3.0131e-05
-0.000353623
2.95797e-05
-0.00036715
2.87908e-05
-0.000381682
2.77664e-05
-0.000397337
2.64943e-05
-0.000414136
2.49599e-05
-0.000432126
2.3151e-05
-0.000451304
2.10586e-05
-0.000471785
1.86011e-05
-0.000493753
-0.000516894
1.5994e-05
1.20623e-05
-7.36702e-05
2.17568e-05
-0.000229405
2.59167e-05
-0.000299622
2.69366e-05
-0.000326274
2.6798e-05
-0.000340517
2.62144e-05
-0.000353039
2.53482e-05
-0.000366284
2.42281e-05
-0.000380562
2.28573e-05
-0.000395967
2.12256e-05
-0.000412504
1.93189e-05
-0.000430219
1.71291e-05
-0.000449115
1.46583e-05
-0.000469314
1.17124e-05
-0.000490807
-0.000513723
8.54141e-06
1.15037e-05
-8.5174e-05
2.00516e-05
-0.000237953
2.33087e-05
-0.000302879
2.37781e-05
-0.000326744
2.32734e-05
-0.000340012
2.2375e-05
-0.00035214
2.11938e-05
-0.000365102
1.97451e-05
-0.000379113
1.80302e-05
-0.000394252
1.604e-05
-0.000410514
1.37616e-05
-0.000427941
1.11928e-05
-0.000446546
8.33572e-06
-0.000466457
5.07234e-06
-0.000487544
-0.000509621
9.70244e-07
1.0789e-05
-9.5963e-05
1.82458e-05
-0.000245409
2.07034e-05
-0.000305337
2.06851e-05
-0.000326726
1.98339e-05
-0.000339161
1.86205e-05
-0.000350927
1.71219e-05
-0.000363604
1.53445e-05
-0.000377336
1.32875e-05
-0.000392195
1.09411e-05
-0.000408167
8.2918e-06
-0.000425291
5.34886e-06
-0.000443603
2.00454e-06
-0.000463113
-1.30886e-06
-0.000484231
-0.000505107
-5.82304e-06
9.93302e-06
-0.000105896
1.63837e-05
-0.00025186
1.81305e-05
-0.000307083
1.76718e-05
-0.000326267
1.64857e-05
-0.000337975
1.49552e-05
-0.000349397
1.31362e-05
-0.000361785
1.10288e-05
-0.000375228
8.63037e-06
-0.000389796
5.9289e-06
-0.000405466
2.91127e-06
-0.000422274
-4.5446e-07
-0.000440237
-4.02461e-06
-0.000459542
-8.06492e-06
-0.00048019
-0.000500607
-1.25653e-05
8.98992e-06
-0.000114886
1.45132e-05
-0.000257383
1.5617e-05
-0.000308187
1.47498e-05
-0.0003254
1.32325e-05
-0.000336457
1.13827e-05
-0.000347547
9.23937e-06
-0.000359641
6.7968e-06
-0.000372786
4.05436e-06
-0.000387054
9.91919e-07
-0.000402403
-2.35517e-06
-0.000418927
-5.99641e-06
-0.000436596
-9.93798e-06
-0.000455601
-1.45134e-05
-0.000475615
-0.000495867
-1.92533e-05
8.11144e-06
-0.000122997
1.26767e-05
-0.000261949
1.31742e-05
-0.000308685
1.19181e-05
-0.000324144
1.00749e-05
-0.000334614
7.9035e-06
-0.000345375
5.4297e-06
-0.000357168
2.64251e-06
-0.000369999
-4.57275e-07
-0.000383954
-3.8095e-06
-0.000399051
-7.498e-06
-0.000415238
-1.1483e-05
-0.000432611
-1.58274e-05
-0.000451256
-2.07838e-05
-0.000470658
-0.000490794
-2.58566e-05
7.25141e-06
-0.000130249
1.08985e-05
-0.000265596
1.08143e-05
-0.0003086
9.17871e-06
-0.000322508
7.0126e-06
-0.000332448
4.51399e-06
-0.000342877
1.69425e-06
-0.000354348
-1.40993e-06
-0.000366894
-4.78818e-06
-0.000380576
-8.51046e-06
-0.000395329
-1.25409e-05
-0.000411208
-1.68875e-05
-0.000428264
-2.16487e-05
-0.000446495
-2.69111e-05
-0.000465396
-0.000485347
-3.23576e-05
6.40805e-06
-0.000136657
9.18869e-06
-0.000268376
8.54187e-06
-0.000307954
6.53532e-06
-0.000320501
4.04216e-06
-0.000329955
1.19552e-06
-0.00034003
-1.91696e-06
-0.000351235
-5.32104e-06
-0.00036349
-9.05272e-06
-0.000376844
-1.31126e-05
-0.000391269
-1.74859e-05
-0.000406834
-2.22018e-05
-0.000423548
-2.73743e-05
-0.000441323
-3.29225e-05
-0.000459848
-0.000479536