/*--------------------------------*- C++ -*----------------------------------*\
  =========                 |
  \\      /  F ield         | OpenFOAM: The Open Source CFD Toolbox
   \\    /   O peration     | Website:  https://openfoam.org
    \\  /    A nd           | Version:  7
     \\/     M anipulation  |
\*---------------------------------------------------------------------------*/
FoamFile
{
    version     2.0;
    format      ascii;
    class       volVectorField;
    location    "24.0009";
    object      U;
}
// * * * * * * * * * * * * * * * * * * * * * * * * * * * * * * * * * * * * * //

dimensions      [0 1 -1 0 0 0 0];

internalField   nonuniform List<vector> 
18750
(
(-0.0375813 0.0220644 -6.14181e-21)
(-0.13234 0.027015 2.22845e-21)
(-0.234788 0.0254497 2.65871e-20)
(-0.32499 0.0242888 6.38477e-21)
(-0.414665 0.023235 -1.61735e-20)
(-0.498757 0.0222623 -3.98311e-20)
(-0.580496 0.0212834 4.20655e-20)
(-0.657565 0.0202792 2.82057e-20)
(-0.731404 0.0192265 -2.13663e-20)
(-0.800751 0.0181431 -5.78591e-20)
(-0.866504 0.0170396 2.22086e-19)
(-0.927718 0.0159302 -1.84163e-19)
(-0.984824 0.0148224 1.10117e-19)
(-1.03709 0.0137728 -2.16727e-19)
(-1.08514 0.0128886 5.04725e-20)
(-0.0391471 0.068991 3.58102e-21)
(-0.133547 0.0845566 7.26029e-21)
(-0.234912 0.0796366 4.41146e-21)
(-0.324078 0.0758892 4.395e-20)
(-0.412684 0.0724543 9.2626e-20)
(-0.495669 0.0692537 1.26135e-19)
(-0.576207 0.0660342 -1.09482e-19)
(-0.651963 0.0627434 1.81811e-19)
(-0.724338 0.0593171 1.71443e-19)
(-0.792056 0.0558116 -5.60251e-20)
(-0.856019 0.0522624 -2.35693e-19)
(-0.915285 0.0487154 1.15086e-20)
(-0.970254 0.0451926 5.33485e-20)
(-1.02013 0.0418495 1.41335e-19)
(-1.06547 0.0389857 -2.16488e-19)
(-0.0422419 0.114792 1.25177e-20)
(-0.135938 0.141134 2.13246e-20)
(-0.235154 0.133041 -6.77689e-20)
(-0.322259 0.126774 5.87883e-21)
(-0.408745 0.121014 -1.71611e-19)
(-0.489544 0.115617 5.78634e-20)
(-0.567729 0.110174 -1.67125e-19)
(-0.640927 0.104604 -1.88643e-20)
(-0.710471 0.098803 -1.31226e-19)
(-0.775071 0.0928672 3.99448e-19)
(-0.835633 0.086865 5.34272e-19)
(-0.891245 0.0808939 4.74074e-19)
(-0.942259 0.0750075 2.79829e-19)
(-0.987756 0.0694398 1.90128e-19)
(-1.02823 0.0646174 -3.53686e-19)
(-0.0467497 0.158736 -7.29266e-20)
(-0.13944 0.196117 8.91207e-20)
(-0.235504 0.185152 -6.86037e-20)
(-0.31958 0.176484 -1.4761e-19)
(-0.40297 0.168496 2.60902e-19)
(-0.480601 0.160961 -2.45445e-19)
(-0.555402 0.153331 3.69796e-19)
(-0.624965 0.145501 -3.17413e-19)
(-0.690533 0.137337 2.26869e-19)
(-0.750809 0.128973 -5.59607e-19)
(-0.806719 0.120521 -8.09788e-19)
(-0.857412 0.112157 4.4886e-20)
(-0.903217 0.103988 -1.55704e-19)
(-0.943091 0.0963031 -3.40282e-19)
(-0.977432 0.0895744 1.29836e-18)
(-0.0525007 0.200132 -5.90218e-20)
(-0.143939 0.248897 1.34736e-19)
(-0.235942 0.235486 2.97386e-20)
(-0.3161 0.224595 1.15588e-19)
(-0.395523 0.21452 -1.59366e-19)
(-0.469129 0.204937 6.94782e-20)
(-0.539676 0.195183 8.79991e-19)
(-0.604731 0.185136 1.39242e-19)
(-0.665444 0.174642 2.49977e-19)
(-0.720523 0.163875 -8.90623e-20)
(-0.770932 0.153003 7.52568e-20)
(-0.815927 0.142301 -3.17633e-20)
(-0.855865 0.131958 -8.85101e-19)
(-0.889608 0.122298 -4.97391e-19)
(-0.917439 0.113771 -1.47102e-18)
(-0.0593037 0.238375 1.33053e-19)
(-0.149301 0.298887 4.89428e-20)
(-0.23643 0.283598 -6.53975e-20)
(-0.311877 0.270728 -4.87712e-20)
(-0.386588 0.258754 5.56152e-20)
(-0.455457 0.24725 -7.43649e-19)
(-0.521055 0.235467 -9.47487e-20)
(-0.580945 0.22328 4.76515e-20)
(-0.636188 0.210523 -3.67316e-19)
(-0.68552 0.197417 -5.09347e-19)
(-0.729952 0.184192 3.74957e-19)
(-0.768895 0.171243 -3.73364e-19)
(-0.802795 0.158862 1.16287e-18)
(-0.830474 0.14741 -9.11536e-19)
(-0.852081 0.13726 2.00572e-18)
(-0.0669408 0.272888 -1.22841e-19)
(-0.155347 0.345525 -2.07529e-19)
(-0.236888 0.329099 8.63258e-20)
(-0.306963 0.314561 6.55522e-19)
(-0.376356 0.300919 6.73522e-19)
(-0.439925 0.287661 -2.3899e-19)
(-0.500051 0.273982 1.23453e-19)
(-0.554319 0.259768 8.13171e-20)
(-0.603718 0.244858 7.96203e-19)
(-0.647023 0.229522 1.10909e-18)
(-0.685303 0.21406 -5.41056e-19)
(-0.718151 0.198993 -1.04838e-18)
(-0.746167 0.184738 -1.95692e-18)
(-0.768193 0.171707 3.39048e-19)
(-0.784215 0.160172 -2.45216e-18)
(-0.0751502 0.303082 -1.11813e-19)
(-0.161865 0.388342 -1.31436e-19)
(-0.237205 0.371679 -9.53108e-19)
(-0.301398 0.355831 3.45002e-19)
(-0.365009 0.34079 -4.01705e-19)
(-0.422862 0.325986 2.79485e-19)
(-0.477152 0.310586 3.04658e-19)
(-0.525517 0.294498 -1.32919e-18)
(-0.568885 0.277587 -8.94123e-19)
(-0.606094 0.260179 -1.52376e-18)
(-0.638261 0.242643 -2.53611e-19)
(-0.665167 0.225628 1.11435e-18)
(-0.687603 0.209686 4.38299e-18)
(-0.7045 0.195309 -6.73271e-19)
(-0.715648 0.182663 1.20319e-18)
(-0.0836017 0.328381 6.00329e-19)
(-0.168593 0.426922 2.42484e-19)
(-0.237265 0.411102 1.05001e-18)
(-0.295213 0.394336 -7.74593e-19)
(-0.352715 0.378194 3.72742e-19)
(-0.404566 0.36209 -6.28126e-19)
(-0.452797 0.345183 -1.45965e-18)
(-0.495117 0.327416 1.30693e-18)
(-0.532417 0.308696 1.58436e-19)
(-0.563602 0.289415 2.27881e-18)
(-0.589824 0.270013 -7.47314e-19)
(-0.611032 0.251252 -3.39974e-18)
(-0.628214 0.233822 -2.08335e-18)
(-0.640445 0.218326 2.1861e-19)
(-0.647306 0.204838 -1.01683e-18)
(-0.0919144 0.348317 -5.02504e-19)
(-0.175239 0.460963 -2.85284e-19)
(-0.236941 0.447193 3.72466e-19)
(-0.288432 0.42993 5.79356e-20)
(-0.339614 0.413009 -1.46632e-19)
(-0.385302 0.395887 -1.71058e-19)
(-0.427367 0.377724 6.65466e-19)
(-0.463616 0.358507 -8.02015e-19)
(-0.494905 0.338203 7.94562e-19)
(-0.520224 0.317281 1.00386e-18)
(-0.540732 0.296251 -1.78807e-18)
(-0.556505 0.275969 3.40122e-18)
(-0.5687 0.257252 3.99238e-19)
(-0.576574 0.240835 5.46247e-19)
(-0.579537 0.226743 1.2566e-18)
(-0.0996376 0.36243 9.53101e-19)
(-0.18144 0.490139 -3.13042e-19)
(-0.23609 0.479833 -1.3908e-18)
(-0.281061 0.462511 5.56129e-19)
(-0.325827 0.445156 -3.21905e-19)
(-0.36529 0.427328 3.78876e-19)
(-0.401182 0.408184 2.85258e-18)
(-0.431412 0.387772 1.38886e-18)
(-0.456814 0.366136 9.28425e-19)
(-0.476466 0.343828 -3.12326e-18)
(-0.491511 0.321428 3.43258e-18)
(-0.502099 0.299866 1.26317e-18)
(-0.509485 0.280053 -2.03966e-18)
(-0.513132 0.26287 2.47562e-18)
(-0.512383 0.248345 -8.4881e-20)
(-0.106296 0.370467 2.00342e-19)
(-0.186861 0.514385 4.79194e-20)
(-0.234589 0.508925 -9.79806e-20)
(-0.273106 0.49202 -9.94525e-19)
(-0.31144 0.474597 1.99579e-18)
(-0.344712 0.456396 -1.02355e-18)
(-0.374504 0.43657 -3.02851e-18)
(-0.398833 0.415243 9.4283e-19)
(-0.41851 0.39254 -1.5055e-18)
(-0.432701 0.369107 2.34837e-18)
(-0.442517 0.345598 -4.25375e-18)
(-0.44814 0.323 3.34834e-19)
(-0.450825 0.302276 1.82154e-18)
(-0.450206 0.284418 -3.82587e-18)
(-0.445786 0.269544 -8.999e-19)
(-0.111231 0.371904 -6.34637e-19)
(-0.19108 0.533454 1.81904e-19)
(-0.232292 0.534379 5.65049e-19)
(-0.264541 0.51843 -2.72608e-20)
(-0.296526 0.501334 -2.72893e-18)
(-0.323715 0.483102 2.61785e-19)
(-0.347544 0.462898 9.86615e-19)
(-0.366131 0.440939 -2.70055e-18)
(-0.380261 0.417444 2.04725e-18)
(-0.389191 0.393148 -1.8917e-18)
(-0.393992 0.368786 5.19922e-18)
(-0.394837 0.345391 -2.16987e-18)
(-0.392907 0.323935 2.64683e-18)
(-0.387896 0.305461 5.37524e-18)
(-0.37969 0.290219 2.32394e-18)
(-0.113926 0.367165 -2.54001e-19)
(-0.193798 0.547508 -7.01651e-21)
(-0.22915 0.556045 -2.0525e-20)
(-0.255345 0.54177 -6.51698e-20)
(-0.281122 0.525401 -1.33964e-18)
(-0.302417 0.507472 -5.99192e-19)
(-0.320472 0.4872 9.70572e-19)
(-0.333511 0.464907 5.949e-19)
(-0.34229 0.440892 -3.46107e-18)
(-0.346149 0.415987 -1.94933e-19)
(-0.346096 0.391002 -1.02036e-18)
(-0.342313 0.367027 2.08784e-18)
(-0.335877 0.345041 -2.92426e-18)
(-0.326317 0.326002 -4.11142e-19)
(-0.313902 0.310132 -2.62793e-18)
(-0.114034 0.356457 1.13838e-18)
(-0.194592 0.556085 -1.0157e-18)
(-0.225008 0.573868 -1.37792e-18)
(-0.245435 0.562091 2.46125e-18)
(-0.26528 0.546857 2.17548e-18)
(-0.280915 0.529556 2.80238e-18)
(-0.293422 0.50951 1.22138e-19)
(-0.301127 0.48716 1.94207e-18)
(-0.304748 0.462886 2.62e-18)
(-0.303708 0.437615 3.93853e-18)
(-0.298949 0.412223 -1.83207e-18)
(-0.290636 0.387864 3.8678e-18)
(-0.279823 0.365538 -2.13556e-20)
(-0.265782 0.346016 -1.9679e-18)
(-0.248252 0.329276 -4.89444e-18)
(-0.111337 0.339776 -7.23821e-19)
(-0.193142 0.558914 1.12297e-18)
(-0.219738 0.587891 7.50232e-19)
(-0.234803 0.579499 -2.32496e-18)
(-0.249014 0.565783 -1.08598e-18)
(-0.259287 0.549392 -2.0069e-19)
(-0.266508 0.529872 -1.48938e-18)
(-0.269114 0.507748 -2.56638e-18)
(-0.267784 0.483465 -4.41028e-18)
(-0.262022 0.458052 -1.92725e-18)
(-0.252669 0.432444 2.71886e-18)
(-0.239845 0.407833 -5.6992e-18)
(-0.224743 0.385328 1.99452e-19)
(-0.206629 0.365544 3.64269e-18)
(-0.182561 0.347962 5.24972e-18)
(-0.105658 0.31713 -1.74895e-18)
(-0.189242 0.555884 1.35416e-18)
(-0.213161 0.598061 -2.33626e-18)
(-0.223469 0.594129 -1.12879e-18)
(-0.232403 0.58228 -6.28542e-20)
(-0.237609 0.567058 1.56221e-18)
(-0.239827 0.548333 2.54399e-18)
(-0.23758 0.526668 8.49306e-19)
(-0.23149 0.502598 1.24201e-18)
(-0.22115 0.477247 -3.51753e-18)
(-0.207333 0.45157 9.82315e-20)
(-0.190041 0.426871 -2.73722e-18)
(-0.170532 0.404276 -2.03016e-18)
(-0.148918 0.38431 -5.83025e-18)
(-0.118033 0.366691 -7.27754e-20)
(-0.0969375 0.288732 1.53878e-18)
(-0.18279 0.546893 2.44784e-19)
(-0.205186 0.604242 3.60135e-19)
(-0.211414 0.605973 2.79551e-18)
(-0.215503 0.596438 1.18548e-18)
(-0.215978 0.582653 -1.45626e-18)
(-0.21348 0.564968 1.1527e-18)
(-0.206645 0.543988 -6.74581e-19)
(-0.196009 0.520339 -1.35993e-18)
(-0.181236 0.495181 1.54635e-18)
(-0.163051 0.46959 -5.26061e-18)
(-0.141321 0.444931 -2.17466e-19)
(-0.117279 0.422322 -3.00665e-18)
(-0.0925202 0.402297 4.65535e-18)
(-0.0543374 0.385755 4.31801e-19)
(-0.0853679 0.255039 -5.91014e-19)
(-0.173791 0.531748 -1.65296e-18)
(-0.195812 0.606187 4.33295e-19)
(-0.198654 0.61498 -3.22874e-18)
(-0.198354 0.608296 -2.2049e-18)
(-0.194449 0.596216 -1.24843e-18)
(-0.187549 0.579771 -2.1954e-18)
(-0.176383 0.559664 2.13266e-18)
(-0.161425 0.536621 3.02389e-18)
(-0.142359 0.511828 5.936e-18)
(-0.119939 0.486501 -2.70883e-19)
(-0.0938575 0.461988 6.75245e-18)
(-0.0648977 0.439372 2.66475e-18)
(-0.0378061 0.4193 2.09368e-18)
(0.00904473 0.404926 -4.63477e-18)
(-0.0715474 0.216747 1.0184e-18)
(-0.162381 0.510106 2.51717e-18)
(-0.185085 0.60347 1.72367e-18)
(-0.185254 0.621019 2.25122e-18)
(-0.181015 0.617888 6.61524e-21)
(-0.173103 0.607773 8.89675e-19)
(-0.162106 0.592753 2.2708e-20)
(-0.14689 0.573704 -1.64736e-18)
(-0.127822 0.551423 2.58937e-18)
(-0.104601 0.527138 -9.07114e-18)
(-0.0780607 0.502216 2.66916e-18)
(-0.0478835 0.477954 -1.76953e-18)
(-0.013276 0.45536 3.48235e-19)
(0.0148801 0.435137 -2.65526e-18)
(0.072406 0.42429 -2.99768e-18)
(-0.0566805 0.174823 -1.66215e-18)
(-0.148847 0.481437 2.21148e-18)
(-0.173062 0.595444 -5.51291e-19)
(-0.171285 0.623825 -9.55675e-19)
(-0.163587 0.625187 1.99928e-18)
(-0.152015 0.617366 2.11722e-19)
(-0.137261 0.603934 -5.97801e-19)
(-0.118243 0.58608 -7.0426e-20)
(-0.0953108 0.564717 -1.67132e-18)
(-0.0680483 0.541069 4.35212e-18)
(-0.0373843 0.5166 2.67983e-18)
(-0.00373237 0.492812 1.42383e-18)
(0.0378255 0.470231 -1.32974e-19)
(0.0650444 0.448781 3.41569e-18)
(0.135768 0.444257 -3.07301e-19)
(-0.0426666 0.130777 4.86505e-19)
(-0.133602 0.44501 -5.26977e-19)
(-0.159771 0.581248 4.14629e-19)
(-0.156816 0.622943 1.76962e-18)
(-0.146163 0.630083 -1.13183e-18)
(-0.131318 0.624975 -7.40903e-19)
(-0.113086 0.613326 -1.39249e-18)
(-0.0905647 0.596813 1.10361e-18)
(-0.063987 0.576445 -1.15424e-18)
(-0.0328636 0.553501 -1.33759e-18)
(0.00221579 0.529493 -2.31414e-18)
(0.0382119 0.506361 -1.34754e-18)
(0.0886245 0.484428 4.9368e-18)
(0.112429 0.459726 -6.79534e-18)
(0.199091 0.463963 -1.81255e-19)
(-0.0312892 0.0872298 2.08033e-18)
(-0.117113 0.399989 -8.06965e-19)
(-0.145191 0.559888 -2.09762e-18)
(-0.141877 0.617683 -5.60942e-19)
(-0.128869 0.632258 2.9683e-18)
(-0.111088 0.630556 -6.26357e-20)
(-0.0897543 0.620902 1.44987e-18)
(-0.0639219 0.60581 -7.97128e-19)
(-0.0339721 0.586566 -3.12465e-18)
(0.000669031 0.564449 7.27178e-18)
(0.0410315 0.540697 -5.37211e-18)
(0.0774966 0.518284 1.59741e-18)
(0.139502 0.498246 -7.02904e-18)
(0.156319 0.466989 2.48615e-18)
(0.262155 0.483177 2.04389e-18)
(-0.0225769 0.0478773 -7.41522e-19)
(-0.0996635 0.345716 -2.38443e-18)
(-0.129253 0.530351 1.07821e-18)
(-0.126496 0.607054 1.90896e-19)
(-0.111772 0.631198 -2.67138e-18)
(-0.0915055 0.633878 1.65693e-18)
(-0.0673251 0.626644 8.75429e-20)
(-0.0385318 0.613096 -4.08724e-19)
(-0.00521808 0.594878 -3.20306e-18)
(0.0320125 0.573778 -3.71031e-19)
(0.0793666 0.550175 4.28585e-18)
(0.113682 0.52784 3.62309e-19)
(0.191108 0.513311 1.01917e-18)
(0.197043 0.470475 2.93119e-18)
(0.323252 0.497481 -7.46407e-18)
(-0.014662 0.016225 -1.12591e-18)
(-0.0814533 0.282432 3.61741e-20)
(-0.111901 0.491688 -1.36782e-18)
(-0.110671 0.58972 1.11004e-18)
(-0.0949976 0.626025 1.51193e-18)
(-0.0726037 0.634668 -1.13632e-18)
(-0.04609 0.630345 -1.97119e-19)
(-0.0145365 0.618517 -9.57313e-19)
(0.0223454 0.601346 2.39331e-18)
(0.0606324 0.581425 4.6263e-19)
(0.117531 0.558047 -6.21247e-18)
(0.145882 0.533231 1.69833e-18)
(0.24359 0.529639 1.05313e-18)
(0.236644 0.475796 -4.74122e-18)
(0.382343 0.505178 1.07319e-18)
(-0.00602075 -0.00572418 2.5449e-19)
(-0.0633753 0.212618 6.85519e-19)
(-0.0933061 0.442901 1.27835e-18)
(-0.0944187 0.564024 -1.08412e-18)
(-0.0785914 0.61558 -4.40427e-20)
(-0.0546846 0.632213 2.7504e-18)
(-0.0259581 0.631889 -1.27533e-19)
(0.00737809 0.622041 -5.73084e-21)
(0.0491202 0.605439 3.89106e-18)
(0.0857527 0.58687 -2.2347e-18)
(0.156025 0.565742 1.59655e-18)
(0.173758 0.532919 -4.51485e-18)
(0.2952 0.542772 3.88264e-19)
(0.276293 0.484861 -1.19942e-18)
(0.440278 0.511775 2.06085e-18)
(0.00258365 -0.0180146 -1.90581e-19)
(-0.0466724 0.142578 8.52971e-19)
(-0.0741439 0.383155 -1.13669e-18)
(-0.0777979 0.528047 2.39287e-18)
(-0.062717 0.598231 -2.01738e-18)
(-0.0378252 0.625692 -1.80943e-18)
(-0.00735247 0.630419 -1.12795e-18)
(0.0269379 0.6235 -2.44404e-18)
(0.0750019 0.607588 -4.75077e-18)
(0.107035 0.588509 7.21018e-19)
(0.194512 0.574441 3.74262e-18)
(0.198475 0.529303 3.00269e-18)
(0.344749 0.547676 5.07151e-19)
(0.314958 0.493266 -2.50181e-18)
(0.496794 0.51601 -1.25646e-18)
(0.00933935 -0.0229792 4.56104e-19)
(-0.0309261 0.081452 7.98929e-19)
(-0.0551327 0.312468 -3.41485e-18)
(-0.0610679 0.480063 -2.36516e-18)
(-0.0474837 0.571951 -7.00711e-20)
(-0.02271 0.613448 1.89937e-18)
(0.0102415 0.6255 -7.01336e-19)
(0.0426841 0.621863 5.43461e-18)
(0.100374 0.607628 4.43726e-19)
(0.123696 0.584867 -3.06653e-18)
(0.232125 0.582974 -2.88265e-18)
(0.221499 0.527081 -4.60651e-18)
(0.389876 0.545232 5.07958e-18)
(0.354168 0.497872 3.3684e-18)
(0.548108 0.514107 -1.21193e-20)
(0.0135821 -0.023813 -1.27037e-18)
(-0.0147767 0.0361693 -2.35307e-18)
(-0.0369647 0.232824 1.69898e-18)
(-0.04468 0.418746 2.08314e-18)
(-0.0331147 0.534333 1.29917e-18)
(-0.00977695 0.593448 -1.32436e-18)
(0.0258506 0.614917 3.39041e-18)
(0.0553864 0.616792 -4.85875e-18)
(0.123274 0.607095 5.4123e-18)
(0.137002 0.573374 3.47904e-18)
(0.263868 0.585476 -1.08796e-18)
(0.248382 0.527864 -1.52331e-18)
(0.422699 0.536898 -2.03717e-18)
(0.396709 0.500101 -4.05286e-18)
(0.591023 0.502337 4.86123e-18)
(0.0158043 -0.0228796 3.57584e-18)
(0.000902322 0.00715332 2.74232e-18)
(-0.0206201 0.152553 6.23013e-19)
(-0.0295791 0.344285 -3.62949e-20)
(-0.0199064 0.48258 -4.51044e-19)
(2.13883e-05 0.562972 -5.31294e-19)
(0.0397053 0.597437 -2.65007e-18)
(0.0624324 0.602861 4.62529e-18)
(0.14429 0.607042 -3.62736e-18)
(0.148688 0.561334 -3.09422e-20)
(0.282524 0.571623 3.51328e-18)
(0.280345 0.529378 2.46975e-18)
(0.440536 0.519951 2.45917e-18)
(0.438125 0.501431 -2.46847e-20)
(0.628831 0.479108 -2.90463e-18)
(0.0170297 -0.0214242 -2.14574e-18)
(0.0140999 -0.00922921 -2.22493e-18)
(-0.00520633 0.0862182 6.90019e-19)
(-0.0165519 0.260641 -1.11871e-18)
(-0.00817018 0.415045 -5.304e-19)
(0.00594059 0.517991 1.91778e-18)
(0.0497245 0.570989 -5.06543e-19)
(0.0672239 0.5801 -4.7317e-19)
(0.15206 0.594365 -1.46875e-18)
(0.171079 0.555991 -3.39435e-18)
(0.279463 0.551284 1.57903e-18)
(0.321573 0.517386 -1.86691e-18)
(0.437133 0.509483 -2.8655e-18)
(0.498373 0.48175 -1.28922e-18)
(0.612803 0.460363 5.17854e-18)
(0.0184012 -0.019934 2.41768e-18)
(0.0247464 -0.0174229 -1.89863e-18)
(0.0107306 0.0419238 -3.12176e-18)
(-0.00474527 0.178245 3.21301e-19)
(0.00165444 0.333539 7.52689e-19)
(0.00831382 0.455846 -5.34953e-19)
(0.0530022 0.530122 1.45796e-18)
(0.0696649 0.54784 3.08381e-19)
(0.149504 0.570512 -2.23823e-19)
(0.184708 0.532545 1.03688e-19)
(0.281772 0.54439 -1.64223e-18)
(0.338546 0.477963 2.07398e-19)
(0.456485 0.513917 9.17724e-19)
(0.493977 0.425475 -7.21804e-19)
(0.674532 0.483575 4.92033e-18)
(0.0206533 -0.0187807 5.06848e-19)
(0.034154 -0.0211618 -1.08794e-18)
(0.0262155 0.0167138 3.03592e-18)
(0.00776116 0.111248 2.35163e-18)
(0.00952139 0.247271 -2.36524e-18)
(0.00767354 0.377251 -1.62375e-19)
(0.0483571 0.472335 -1.09882e-18)
(0.0676191 0.498472 -4.2356e-19)
(0.134989 0.535697 3.04721e-18)
(0.197969 0.496277 1.55168e-18)
(0.256693 0.510799 2.14658e-18)
(0.387835 0.46232 -1.70442e-18)
(0.413673 0.470568 1.14796e-18)
(0.563978 0.412673 -6.49871e-19)
(0.644792 0.453759 -6.27721e-18)
(0.0240143 -0.0183268 4.04448e-19)
(0.0430227 -0.0231346 6.49959e-19)
(0.0394371 0.00313152 -1.67132e-18)
(0.02093 0.0663469 -1.90786e-18)
(0.0153048 0.170355 -1.75579e-18)
(0.00557586 0.290168 1.50569e-19)
(0.0346829 0.39743 1.28501e-18)
(0.0618994 0.433575 -2.33449e-18)
(0.10491 0.474547 -1.23692e-18)
(0.206504 0.459663 6.83141e-19)
(0.212528 0.43811 -1.96982e-18)
(0.420051 0.446755 1.9843e-19)
(0.33124 0.370837 1.36109e-18)
(0.640444 0.412183 -1.8397e-18)
(0.483088 0.324981 1.48811e-18)
(0.028243 -0.0187664 -9.1066e-19)
(0.0509477 -0.0251812 2.06537e-18)
(0.0491562 -0.0056846 1.36632e-18)
(0.0316205 0.0383117 9.167e-19)
(0.0185051 0.111217 1.50111e-18)
(0.00157357 0.207046 -1.50946e-19)
(0.0159193 0.31144 -1.18734e-18)
(0.0449879 0.355012 2.59046e-19)
(0.0741209 0.394978 1.63013e-18)
(0.178622 0.390574 -2.59568e-18)
(0.191262 0.367904 -1.21847e-18)
(0.367328 0.368217 1.03217e-19)
(0.293621 0.284105 -3.87653e-19)
(0.603781 0.352019 2.2018e-18)
(0.426107 0.228722 -2.09305e-18)
(0.0326187 -0.0199786 9.92927e-19)
(0.0566806 -0.0282705 6.62124e-19)
(0.0541028 -0.0143117 -7.94231e-20)
(0.0362405 0.0174814 -5.94399e-19)
(0.0171325 0.0672984 1.33886e-19)
(-0.00678601 0.135902 -1.75434e-18)
(-0.00459781 0.224803 3.91593e-19)
(0.0148034 0.265625 -7.74137e-19)
(0.0431719 0.309685 -7.9215e-19)
(0.128052 0.289688 1.77458e-18)
(0.165537 0.292787 2.58064e-18)
(0.286779 0.261742 1.22279e-18)
(0.31228 0.240805 1.27488e-18)
(0.602155 0.304141 -1.66088e-18)
(0.69145 0.321164 -1.74827e-18)
(0.0360648 -0.0215508 8.20308e-19)
(0.0586931 -0.0325006 -1.56215e-18)
(0.0529463 -0.0247004 -7.54406e-19)
(0.0326876 -0.00272849 -1.68626e-18)
(0.00839515 0.0308492 7.59374e-19)
(-0.0212533 0.0762763 1.85359e-18)
(-0.0288756 0.143681 -2.12258e-18)
(-0.0232751 0.173225 7.44348e-19)
(0.0054843 0.218294 1.41602e-18)
(0.0725107 0.184166 3.80842e-19)
(0.115466 0.191735 -1.6573e-18)
(0.269049 0.191457 -7.03576e-19)
(0.429388 0.242469 -1.61701e-21)
(0.750432 0.337264 9.73366e-19)
(0.929212 0.409472 3.84514e-18)
(0.0374151 -0.0228928 -1.32963e-18)
(0.0557841 -0.0372755 -1.33223e-18)
(0.0449434 -0.0367552 7.44403e-19)
(0.020514 -0.0244967 2.99652e-18)
(-0.00915397 -0.00388996 -1.94866e-18)
(-0.0428471 0.0230401 5.53253e-19)
(-0.0604767 0.0683629 8.26161e-19)
(-0.0647671 0.0837886 -6.61162e-20)
(-0.0416155 0.12208 1.78296e-19)
(0.0196797 0.0879711 7.72385e-19)
(0.127676 0.119508 -7.06002e-19)
(0.380535 0.194097 -1.50767e-18)
(0.642648 0.296066 -1.40668e-18)
(0.913128 0.390279 1.17587e-18)
(1.03742 0.436015 3.77061e-19)
(0.0357385 -0.0233716 -3.27232e-19)
(0.0475284 -0.0415654 2.63582e-18)
(0.0304515 -0.0491046 5.51721e-19)
(0.000860796 -0.0468985 7.86761e-19)
(-0.03462 -0.0384599 7.18434e-19)
(-0.0727349 -0.026132 6.93069e-19)
(-0.10042 -0.00108619 -2.50034e-19)
(-0.108674 0.00226372 4.48129e-19)
(-0.0814645 0.0349283 2.1657e-19)
(0.0427912 0.0431137 9.65689e-19)
(0.278978 0.133832 5.67718e-20)
(0.579373 0.25065 1.04861e-18)
(0.830255 0.353197 -8.9111e-19)
(1.00661 0.413723 -8.98902e-19)
(1.11442 0.454473 6.2219e-19)
(0.0306143 -0.0224557 1.18006e-18)
(0.0343755 -0.0440917 -1.08235e-18)
(0.0109066 -0.059452 1.09394e-19)
(-0.0238637 -0.066759 -1.60579e-18)
(-0.0648619 -0.0688532 -1.3301e-18)
(-0.10749 -0.0672142 2.28831e-18)
(-0.13898 -0.0573083 6.51645e-19)
(-0.13061 -0.0561527 -9.3476e-19)
(-0.051901 -0.0128708 2.4495e-19)
(0.193264 0.0735589 -2.61587e-18)
(0.496013 0.198689 9.23214e-19)
(0.762308 0.310316 -1.12265e-18)
(0.946062 0.382427 1.40828e-18)
(1.07937 0.43161 -1.47777e-19)
(1.15561 0.458243 -9.02824e-19)
(0.0223467 -0.0198292 -1.84094e-18)
(0.0177121 -0.0435594 -1.87315e-18)
(-0.0111185 -0.0649894 -1.92308e-18)
(-0.049535 -0.0790511 -1.44191e-18)
(-0.0924793 -0.087436 9.69381e-19)
(-0.132775 -0.0901239 -3.90901e-18)
(-0.152157 -0.0840279 3.55977e-19)
(-0.0953103 -0.0704315 3.35933e-19)
(0.0848247 0.00971206 1.792e-19)
(0.405718 0.14319 1.22379e-18)
(0.686461 0.261295 -1.0112e-18)
(0.889351 0.346934 2.47893e-18)
(1.03232 0.404103 -5.38834e-19)
(1.12074 0.436908 -1.0865e-18)
(1.17184 0.452438 6.18152e-19)
(0.0119398 -0.0155506 3.24743e-19)
(-0.000329399 -0.0391969 1.51851e-18)
(-0.0321132 -0.0635249 2.16454e-18)
(-0.0705366 -0.0801795 3.56573e-19)
(-0.108751 -0.0891236 1.72011e-18)
(-0.135409 -0.0881539 9.55805e-19)
(-0.127101 -0.0760418 2.95541e-19)
(0.00614464 -0.0372254 -1.48171e-18)
(0.289607 0.0865065 -8.72436e-20)
(0.597985 0.211392 6.42907e-19)
(0.826953 0.306244 2.49699e-18)
(0.985729 0.374861 -3.2956e-19)
(1.08395 0.413329 9.23187e-19)
(1.14393 0.435846 8.91012e-19)
(1.18662 0.44875 1.47281e-18)
(0.00076656 -0.0101098 5.96513e-19)
(-0.0176032 -0.0313133 -1.99685e-18)
(-0.0492385 -0.0553044 -4.32037e-19)
(-0.0829906 -0.0707396 2.19012e-20)
(-0.110205 -0.0757372 -3.20682e-18)
(-0.114743 -0.0670158 8.30095e-19)
(-0.0674047 -0.0504503 -4.16108e-19)
(0.166428 0.0320854 4.8905e-19)
(0.486363 0.162148 1.61403e-18)
(0.75167 0.263873 -5.6098e-19)
(0.935019 0.340957 -1.94418e-18)
(1.04829 0.389961 -2.79261e-19)
(1.11755 0.417021 -3.13001e-19)
(1.1611 0.434438 -6.84594e-19)
(1.18819 0.439667 -1.58605e-18)
(-0.00982557 -0.00431404 1.24359e-19)
(-0.0326152 -0.0212051 5.40215e-19)
(-0.0613161 -0.0423932 -1.39701e-18)
(-0.0867605 -0.0542507 5.83601e-19)
(-0.0991715 -0.0538229 1.33021e-18)
(-0.0792932 -0.0395191 -5.64107e-19)
(0.0259899 -0.0143321 -1.15184e-19)
(0.350008 0.107652 -1.30014e-18)
(0.651755 0.221874 2.72731e-19)
(0.872602 0.305031 -9.39893e-19)
(1.0095 0.364038 9.35695e-19)
(1.09171 0.399641 -7.91614e-19)
(1.13951 0.41837 1.42251e-18)
(1.16636 0.428592 -5.5065e-19)
(1.18997 0.432184 -1.16575e-18)
(-0.0188677 0.00104896 6.38021e-19)
(-0.0446504 -0.0105055 3.99798e-19)
(-0.0685903 -0.0275762 3.60734e-19)
(-0.083818 -0.0352745 8.72311e-20)
(-0.0801472 -0.030452 6.11011e-19)
(-0.0339098 -0.0190096 -1.46271e-18)
(0.163606 0.0443952 8.01115e-19)
(0.518283 0.171248 1.87621e-18)
(0.786799 0.270558 -1.89227e-19)
(0.961658 0.335356 1.42796e-18)
(1.0633 0.380827 8.79481e-19)
(1.11987 0.404461 1.48088e-19)
(1.15033 0.415902 2.99717e-19)
(1.17176 0.424261 5.86035e-19)
(1.1904 0.425306 1.36425e-18)
(-0.0259138 0.00538534 9.72194e-19)
(-0.0536544 -0.000733014 1.38611e-18)
(-0.0719738 -0.0133565 -1.24988e-18)
(-0.0765932 -0.0173034 1.13401e-18)
(-0.058132 -0.0115774 -2.62213e-18)
(0.030622 -0.00385694 6.3173e-19)
(0.335521 0.111709 -2.24397e-19)
(0.666584 0.225737 -1.1699e-18)
(0.891731 0.308326 -2.09784e-18)
(1.02738 0.35814 -8.09993e-19)
(1.09876 0.391463 -2.04284e-18)
(1.13675 0.405785 1.29111e-18)
(1.15865 0.414471 -1.77496e-18)
(1.1729 0.419043 1.23133e-18)
(1.18704 0.417338 8.54744e-19)
(-0.0309265 0.00839066 -2.30423e-18)
(-0.0599845 0.00705081 8.12548e-20)
(-0.0725705 -0.00142289 1.63814e-19)
(-0.0672425 -0.00191665 3.16723e-19)
(-0.0338097 -0.0020546 1.70288e-19)
(0.134691 0.0342706 1.23528e-18)
(0.498728 0.170862 6.78749e-19)
(0.789108 0.27016 -1.90738e-19)
(0.971486 0.337421 9.47086e-19)
(1.07265 0.374111 6.22658e-19)
(1.12218 0.398272 2.91437e-19)
(1.1484 0.406332 -7.32128e-19)
(1.16149 0.411487 2.44749e-18)
(1.17275 0.413748 4.30432e-19)
(1.18663 0.411971 -9.14977e-19)
(-0.0342103 0.0100533 2.12157e-18)
(-0.0641775 0.0123247 -1.51891e-18)
(-0.0711745 0.00755408 4.8443e-19)
(-0.057895 0.0094486 -5.07863e-20)
(0.00506688 -0.00155006 2.51866e-18)
(0.285372 0.0964986 -2.07967e-19)
(0.640406 0.222133 -8.14783e-19)
(0.887079 0.306295 2.00331e-18)
(1.02988 0.359138 1.87873e-19)
(1.10401 0.38553 8.25042e-19)
(1.13732 0.402583 -1.65716e-18)
(1.15389 0.40506 3.5728e-20)
(1.16338 0.409306 -7.7287e-19)
(1.17289 0.409636 -1.63564e-19)
(1.18271 0.405774 -5.39209e-19)
(-0.0362741 0.0105518 -5.67301e-19)
(-0.0667103 0.0149703 1.58871e-18)
(-0.0683082 0.0140904 9.60671e-19)
(-0.0489256 0.0134346 7.71358e-19)
(0.074601 0.0131728 -4.15194e-19)
(0.443507 0.15563 -1.67367e-19)
(0.761225 0.264987 1.08314e-18)
(0.963011 0.334487 -8.46692e-19)
(1.07203 0.375202 2.63272e-19)
(1.12442 0.393349 -1.38185e-18)
(1.14583 0.404667 9.6836e-20)
(1.15773 0.404167 2.16715e-19)
(1.16365 0.407229 -3.21221e-19)
(1.17074 0.404734 -1.92829e-18)
(1.18034 0.401097 8.17327e-19)
(-0.0377107 0.0100979 -1.00065e-18)
(-0.0678243 0.0152898 -1.25409e-18)
(-0.0654542 0.0186559 6.61234e-19)
(-0.0322526 0.00799696 -8.63906e-20)
(0.188199 0.0619491 -1.03176e-18)
(0.579997 0.206082 -4.29422e-20)
(0.858089 0.300661 -7.57773e-19)
(1.02012 0.356798 -1.50268e-18)
(1.10112 0.386919 -6.13601e-19)
(1.13728 0.398639 5.70858e-19)
(1.15119 0.40603 5.30602e-19)
(1.15871 0.402761 -5.40994e-20)
(1.16258 0.405153 -8.61707e-19)
(1.16975 0.401162 1.58539e-18)
(1.17705 0.397062 4.98456e-19)
(-0.0390136 0.00884516 9.85563e-19)
(-0.0675779 0.0145551 1.63937e-21)
(-0.0638122 0.0194876 -1.62266e-18)
(0.00546778 -0.00126906 -3.63598e-20)
(0.336528 0.122204 2.49262e-19)
(0.700942 0.24954 4.52661e-19)
(0.935953 0.329524 -8.12081e-19)
(1.06241 0.373732 4.17412e-19)
(1.12094 0.395277 -1.87268e-20)
(1.14509 0.402331 4.68182e-19)
(1.15318 0.406313 -4.24008e-19)
(1.15878 0.401685 -1.20161e-18)
(1.1616 0.403744 -5.91741e-20)
(1.16714 0.397247 -7.67903e-19)
(1.17309 0.39323 -6.70915e-19)
(-0.0403787 0.00699 4.01922e-19)
(-0.0664205 0.0143778 -8.20329e-19)
(-0.0610917 0.0153606 8.26062e-19)
(0.073107 0.0112086 -2.62553e-19)
(0.477885 0.173955 -1.43037e-19)
(0.801965 0.285883 -4.07983e-19)
(0.995284 0.352615 6.40654e-19)
(1.09223 0.386738 4.14834e-19)
(1.13357 0.401416 -2.47552e-19)
(1.14904 0.40479 -7.06444e-19)
(1.15402 0.406534 -2.57364e-19)
(1.15784 0.400814 1.23142e-18)
(1.15924 0.402046 7.58262e-19)
(1.16489 0.394062 7.53807e-19)
(1.1699 0.390767 -2.34858e-19)
(-0.0416481 0.00491912 -2.52354e-19)
(-0.065632 0.0147772 9.08649e-20)
(-0.0501222 0.00506694 -3.41859e-19)
(0.176376 0.0579626 -3.44357e-21)
(0.598583 0.219321 -2.66213e-19)
(0.884316 0.317019 -3.97698e-19)
(1.04091 0.371229 1.38505e-19)
(1.11332 0.396522 -8.2527e-19)
(1.14141 0.405763 7.35176e-19)
(1.15094 0.406674 9.40652e-19)
(1.1533 0.406418 1.22285e-19)
(1.15604 0.400056 -1.07069e-18)
(1.15723 0.400907 -1.0499e-18)
(1.16206 0.391185 -7.98931e-19)
(1.16522 0.388083 3.24988e-19)
(-0.0426986 0.00363069 -8.13758e-19)
(-0.0663958 0.0133578 2.23582e-19)
(-0.0209187 -0.00782374 -1.6332e-19)
(0.310729 0.11579 -1.5704e-21)
(0.706301 0.257741 -6.63403e-20)
(0.950687 0.342128 -1.51209e-19)
(1.0744 0.385703 2.81462e-19)
(1.12707 0.403929 -1.62926e-19)
(1.14557 0.409145 -2.10802e-19)
(1.15087 0.408072 -4.09617e-19)
(1.15199 0.406411 -3.64338e-19)
(1.15403 0.399719 -1.68377e-19)
(1.15427 0.399607 6.5171e-19)
(1.15878 0.388584 -2.59747e-20)
(1.16147 0.386559 5.19589e-19)
(-0.0435234 0.00447459 3.38358e-19)
(-0.0676413 0.00887573 5.62911e-19)
(0.0316049 -0.00799987 9.49255e-20)
(0.446129 0.16548 3.50335e-19)
(0.798259 0.29061 7.70565e-19)
(1.00214 0.362915 2.84878e-19)
(1.09857 0.397304 1.04736e-18)
(1.13605 0.409712 5.51278e-19)
(1.14746 0.411734 3.50676e-19)
(1.15002 0.409336 8.04777e-19)
(1.15002 0.406452 2.49842e-19)
(1.15123 0.399406 4.59294e-19)
(1.15138 0.398611 2.28599e-19)
(1.15553 0.386618 1.08246e-19)
(1.15658 0.384972 3.58935e-19)
(-0.0440563 0.00783471 4.71235e-19)
(-0.0660304 0.00147089 -8.00898e-19)
(0.106905 0.017496 -1.53831e-19)
(0.560448 0.208276 3.67702e-19)
(0.874805 0.320102 -7.7733e-19)
(1.04248 0.380171 -3.17875e-19)
(1.11559 0.406358 -6.46542e-19)
(1.1411 0.414198 -2.16507e-20)
(1.14756 0.413993 -1.73605e-19)
(1.14814 0.410499 -6.78797e-19)
(1.14756 0.406626 5.1769e-19)
(1.14842 0.399471 3.95308e-20)
(1.14801 0.397677 -2.2191e-20)
(1.15153 0.384791 1.9029e-19)
(1.15211 0.383998 -4.40409e-19)
(-0.0446272 0.0120638 -3.45944e-20)
(-0.0559923 -0.0084163 3.51229e-19)
(0.207273 0.0651909 9.74679e-20)
(0.659774 0.246124 -5.14941e-19)
(0.93728 0.345144 3.44227e-19)
(1.07284 0.39446 1.09984e-19)
(1.12699 0.413766 -2.88498e-19)
(1.14367 0.418007 -1.36945e-19)
(1.14658 0.416011 -4.15494e-19)
(1.14591 0.411703 7.37484e-20)
(1.14481 0.406999 -5.01832e-19)
(1.14499 0.399573 -3.56911e-19)
(1.14441 0.39689 9.59215e-20)
(1.14771 0.383599 9.97504e-20)
(1.14716 0.383173 -1.73575e-19)
(-0.0457968 0.0138156 -1.74776e-19)
(-0.0327099 -0.016294 -1.1131e-19)
(0.324329 0.117244 2.39321e-19)
(0.746384 0.278124 4.42091e-19)
(0.986905 0.366167 8.60624e-20)
(1.09543 0.40632 -2.37239e-19)
(1.13445 0.419876 2.9867e-19)
(1.14431 0.42127 2.60423e-19)
(1.14472 0.418002 1.35379e-19)
(1.14308 0.412986 2.57376e-20)
(1.14159 0.407507 1.61711e-19)
(1.14147 0.399948 7.16286e-20)
(1.14059 0.39631 -5.05931e-20)
(1.1432 0.382554 -6.39199e-20)
(1.14216 0.382501 5.68261e-20)
(-0.0476156 0.0102518 -8.12845e-20)
(0.00494198 -0.0163238 -9.54698e-20)
(0.440812 0.164229 7.86296e-20)
(0.822137 0.306947 -1.0418e-19)
(1.02628 0.383749 -2.2408e-19)
(1.11149 0.416077 1.7274e-20)
(1.13865 0.425145 1.37978e-19)
(1.14367 0.424397 -1.24612e-19)
(1.1423 0.420044 8.24922e-20)
(1.14 0.414386 1.66605e-19)