/*--------------------------------*- C++ -*----------------------------------*\
  =========                 |
  \\      /  F ield         | OpenFOAM: The Open Source CFD Toolbox
   \\    /   O peration     | Website:  https://openfoam.org
    \\  /    A nd           | Version:  7
     \\/     M anipulation  |
\*---------------------------------------------------------------------------*/
FoamFile
{
    version     2.0;
    format      ascii;
    class       surfaceScalarField;
    location    "12.9987";
    object      phi;
}
// * * * * * * * * * * * * * * * * * * * * * * * * * * * * * * * * * * * * * //

dimensions      [0 3 -1 0 0 0 0];

internalField   nonuniform List<scalar> 
37105
(
-1.36443e-05
1.36412e-05
3.12373e-09
-3.13062e-05
1.76583e-05
3.66442e-09
-4.95482e-05
1.82387e-05
3.27948e-09
-6.85991e-05
1.9048e-05
2.94309e-09
-8.84684e-05
1.98666e-05
2.63235e-09
-0.00010914
2.06695e-05
2.3343e-09
-0.000130564
2.1422e-05
2.03086e-09
-0.000152671
2.2105e-05
1.70363e-09
-0.000175404
2.27321e-05
1.33644e-09
-0.000198736
2.33304e-05
9.13525e-10
-0.000222674
2.39376e-05
4.15711e-10
-0.000247224
2.45505e-05
-1.73218e-10
-0.000272374
2.51507e-05
-8.91365e-10
-0.000298112
2.57402e-05
-1.75601e-09
2.6407e-05
-2.73845e-09
-0.000324517
-1.34144e-05
2.70555e-05
-3.08519e-05
3.50958e-05
-4.88649e-05
3.62517e-05
-6.76578e-05
3.78409e-05
-8.72339e-05
3.94427e-05
-0.000107566
4.10019e-05
-0.000128595
4.24506e-05
-0.00015024
4.37505e-05
-0.000172435
4.4927e-05
-0.000195137
4.60322e-05
-0.000218343
4.71435e-05
-0.000242059
4.82664e-05
-0.000266283
4.9375e-05
-0.000291006
5.04635e-05
5.16778e-05
-0.000316277
-1.29602e-05
4.00157e-05
-2.99556e-05
5.20912e-05
-4.75196e-05
5.38157e-05
-6.58107e-05
5.6132e-05
-8.48218e-05
5.84538e-05
-0.000104507
6.06874e-05
-0.000124791
6.27344e-05
-0.000145578
6.45376e-05
-0.000166784
6.61328e-05
-0.000188346
6.75936e-05
-0.000210244
6.90423e-05
-0.00023249
7.05117e-05
-0.000255103
7.19882e-05
-0.000278082
7.34422e-05
7.50149e-05
-0.000301419
-1.22941e-05
5.23098e-05
-2.86412e-05
6.84383e-05
-4.55512e-05
7.07257e-05
-6.31212e-05
7.3702e-05
-8.1332e-05
7.66645e-05
-0.000100115
7.94704e-05
-0.000119376
8.19958e-05
-0.000139005
8.41668e-05
-0.000158902
8.60296e-05
-0.000178985
8.76764e-05
-0.000199223
8.92806e-05
-0.000219636
9.09243e-05
-0.000240278
9.263e-05
-0.000261166
9.4331e-05
9.61028e-05
-0.000282254
-1.14387e-05
6.37484e-05
-2.69395e-05
8.39391e-05
-4.30099e-05
8.67961e-05
-5.96711e-05
9.03632e-05
-7.68889e-05
9.38824e-05
-9.45716e-05
9.71531e-05
-0.00011261
0.000100034
-0.000130882
0.000102438
-0.000149277
0.000104425
-0.000167705
0.000106104
-0.00018613
0.000107706
-0.000204588
0.000109382
-0.000223174
0.000111216
-0.000241949
0.000113106
0.000115016
-0.000260862
-1.04348e-05
7.41832e-05
-2.4884e-05
9.83883e-05
-3.99526e-05
0.000101865
-5.55511e-05
0.000105962
-7.1626e-05
0.000109957
-8.80651e-05
0.000113592
-0.000104748
0.000116717
-0.000121547
0.000119237
-0.00013835
0.000121229
-0.000155068
0.000122822
-0.000171669
0.000124307
-0.000188205
0.000125918
-0.000204815
0.000127826
-0.000221618
0.000129909
0.000131979
-0.000238581
-9.23639e-06
8.34196e-05
-2.24921e-05
0.000111644
-3.6437e-05
0.00011581
-5.08536e-05
0.000120378
-6.56741e-05
0.000124778
-8.07717e-05
0.00012869
-9.60205e-05
0.000131966
-0.000111292
0.000134508
-0.00012648
0.000136417
-0.000141502
0.000137844
-0.000156336
0.00013914
-0.000171043
0.000140625
-0.000185786
0.000142569
-0.000200732
0.000144855
0.000147106
-0.000215859
-7.86548e-06
9.12851e-05
-1.97929e-05
0.000123571
-3.25209e-05
0.000128538
-4.56679e-05
0.000133525
-5.91542e-05
0.000138264
-7.28474e-05
0.000142383
-8.66206e-05
0.000145739
-0.000100347
0.000148235
-0.000113929
0.000149999
-0.000127295
0.000151211
-0.000140425
0.00015227
-0.000153372
0.000153573
-0.000166288
0.000155484
-0.000179348
0.000157915
0.000160274
-0.000192516
-6.34477e-06
9.76299e-05
-1.68218e-05
0.000134049
-2.82632e-05
0.000139979
-4.0077e-05
0.000145339
-5.21747e-05
0.000150362
-6.44262e-05
0.000154634
-7.67058e-05
0.000158019
-8.88894e-05
0.000160418
-0.000100885
0.000161994
-0.000112625
0.000162951
-0.000124086
0.000163731
-0.000135286
0.000164773
-0.000146321
0.000166518
-0.00015733
0.000168924
0.000171213
-0.000168268
-4.68819e-06
0.000102318
-1.36158e-05
0.000142976
-2.37222e-05
0.000150085
-3.41573e-05
0.000155774
-4.4831e-05
0.000161036
-5.56207e-05
0.000165424
-6.64015e-05
0.0001688
-7.705e-05
0.000171067
-8.74728e-05
0.000172417
-9.75997e-05
0.000173078
-0.000107389
0.00017352
-0.000116812
0.000174196
-0.00012587
0.000175577
-0.000134621
0.000177675
0.000179657
-0.000143065
-2.89923e-06
0.000105217
-1.02217e-05
0.000150299
-1.8953e-05
0.000158817
-2.79763e-05
0.000164797
-3.72077e-05
0.000170267
-4.65287e-05
0.000174745
-5.58119e-05
0.000178083
-6.49325e-05
0.000180187
-7.37902e-05
0.000181275
-8.2299e-05
0.000181587
-9.03897e-05
0.00018161
-9.79859e-05
0.000181792
-0.000104986
0.000182577
-0.00011132
0.00018401
0.000185423
-0.000117087
-9.42635e-07
0.00010616
-6.69401e-06
0.00015605
-1.40021e-05
0.000166125
-2.15957e-05
0.000172391
-2.93819e-05
0.000178053
-3.72353e-05
0.000182599
-4.50251e-05
0.000185873
-5.26236e-05
0.000187786
-5.99173e-05
0.000188568
-6.67956e-05
0.000188465
-7.3153e-05
0.000187968
-7.88743e-05
0.000187514
-8.37886e-05
0.000187491
-8.76472e-05
0.000187868
0.000188349
-9.05732e-05
9.46496e-07
0.000105213
-3.0996e-06
0.000160096
-8.90564e-06
0.000171931
-1.50726e-05
0.000178558
-2.14259e-05
0.000184406
-2.782e-05
0.000188993
-3.41239e-05
0.000192176
-4.02056e-05
0.000193868
-4.59334e-05
0.000194296
-5.11714e-05
0.000193703
-5.57687e-05
0.000192565
-5.95704e-05
0.000191316
-6.24106e-05
0.000190331
-6.38827e-05
0.00018934
0.000188043
-6.3577e-05
2.76762e-06
0.000102446
5.36662e-07
0.000162327
-3.71067e-06
0.000176178
-8.47144e-06
0.000183319
-1.34105e-05
0.000189346
-1.83573e-05
0.00019394
-2.31889e-05
0.000197008
-2.77618e-05
0.000198441
-3.19215e-05
0.000198456
-3.55133e-05
0.000197295
-3.83449e-05
0.000195397
-4.01983e-05
0.000193169
-4.09348e-05
0.000191067
-4.03464e-05
0.000188752
0.000184819
-3.71222e-05
4.69139e-06
9.77544e-05
4.44906e-06
0.000162569
1.56638e-06
0.000179061
-1.86995e-06
0.000186755
-5.41154e-06
0.000192887
-8.92766e-06
0.000197456
-1.23081e-05
0.000200388
-1.53822e-05
0.000201515
-1.7977e-05
0.000201051
-1.99216e-05
0.00019924
-2.09986e-05
0.000196474
-2.09293e-05
0.0001931
-1.94828e-05
0.000189621
-1.66731e-05
0.000185942
0.000179729
-1.15829e-05
6.62254e-06
9.11319e-05
8.302e-06
0.00016089
6.9477e-06
0.000180415
4.82612e-06
0.000188877
2.5585e-06
0.000195155
3.41168e-07
0.000199673
-1.61494e-06
0.000202344
-3.18894e-06
0.000203089
-4.23016e-06
0.000202092
-4.52783e-06
0.000199537
-3.86129e-06
0.000195807
-1.92203e-06
0.00019116
1.53198e-06
0.000186167
6.69653e-06
0.000180778
0.000172895
1.35301e-05
8.48349e-06
8.26484e-05
1.21114e-05
0.000157262
1.22564e-05
0.00018027
1.14433e-05
0.00018969
1.05035e-05
0.000196094
9.66263e-06
0.000200514
9.06535e-06
0.000202942
8.89179e-06
0.000203262
9.35273e-06
0.000201631
1.06532e-05
0.000198237
1.30055e-05
0.000193455
1.67556e-05
0.00018741
2.22683e-05
0.000180654
2.9128e-05
0.000173918
0.000163701
3.83221e-05
1.01902e-05
7.24582e-05
1.57912e-05
0.000151661
1.74636e-05
0.000178598
1.7922e-05
0.000189231
1.82222e-05
0.000195794
1.8651e-05
0.000200085
1.93826e-05
0.00020221
2.06014e-05
0.000202043
2.25246e-05
0.000199708
2.53904e-05
0.000195371
2.93911e-05
0.000189454
3.4816e-05
0.000181985
4.23591e-05
0.000173111
5.11362e-05
0.000165141
0.000152788
6.2049e-05
1.16231e-05
6.08351e-05
1.92169e-05
0.000144067
2.24974e-05
0.000175317
2.42194e-05
0.000187509
2.569e-05
0.000194324
2.73158e-05
0.000198459
2.93009e-05
0.000200225
3.18458e-05
0.000199498
3.51639e-05
0.00019639
3.95435e-05
0.000190991
4.51904e-05
0.000183807
5.21375e-05
0.000175038
6.16244e-05
0.000163624
7.24798e-05
0.000154286
0.000140264
8.50042e-05
1.26027e-05
4.82324e-05
2.22324e-05
0.000134437
2.72621e-05
0.000170288
3.02707e-05
0.000184501
3.28536e-05
0.000191741
3.55967e-05
0.000195716
3.87541e-05
0.000197068
4.25441e-05
0.000195708
4.71692e-05
0.000191765
5.29583e-05
0.000185202
6.02552e-05
0.00017651
6.85966e-05
0.000166697
7.97897e-05
0.000152431
9.27222e-05
0.000141353
0.000125801
0.000107185
1.28723e-05
3.53601e-05
2.46576e-05
0.000122652
3.16342e-05
0.000163311
3.59892e-05
0.000180146
3.9649e-05
0.000188081
4.34329e-05
0.000191932
4.76693e-05
0.000192831
5.26098e-05
0.000190768
5.84493e-05
0.000185925
6.54541e-05
0.000178198
7.44198e-05
0.000167545
8.40822e-05
0.000157035
9.66746e-05
0.000139839
0.000111532
0.000126496
0.00010889
0.000128443
1.2169e-05
2.3191e-05
2.63244e-05
0.000108497
3.54487e-05
0.000154187
4.12587e-05
0.000174336
4.60063e-05
0.000183333
5.07682e-05
0.000187171
5.59741e-05
0.000187625
6.19548e-05
0.000184787
6.89555e-05
0.000178924
7.69222e-05
0.000170231
8.75031e-05
0.000156964
9.85658e-05
0.000145972
0.000112222
0.000126182
0.000128239
0.000110479
8.8787e-05
0.000148342
1.04735e-05
1.27176e-05
2.70967e-05
9.18736e-05
3.84873e-05
0.000142796
4.59376e-05
0.000166885
5.18448e-05
0.000177426
5.75459e-05
0.000181469
6.3615e-05
0.000181556
7.04639e-05
0.000177938
7.86347e-05
0.000170754
8.73415e-05
0.000161524
9.93053e-05
0.000145
0.000111912
0.000133365
0.000127092
0.000111002
0.000142987
9.45843e-05
6.60254e-05
0.000165748
8.17e-06
4.54759e-06
2.67692e-05
7.32744e-05
4.04939e-05
0.000129071
4.98611e-05
0.000157518
5.70676e-05
0.00017022
6.36919e-05
0.000174845
7.0554e-05
0.000174694
7.80328e-05
0.00017046
8.73938e-05
0.000161392
9.67273e-05
0.000152191
0.0001097
0.000132027
0.000123525
0.000119541
0.000141329
9.31979e-05
0.000157255
7.8658e-05
4.18358e-05
0.000181445
5.73086e-06
-1.18328e-06
2.50399e-05
5.39654e-05
4.12194e-05
0.000112892
5.28389e-05
0.000145899
6.15326e-05
0.000161526
6.90981e-05
0.00016728
7.67643e-05
0.000167028
8.46143e-05
0.00016261
9.5101e-05
0.000150906
0.000105171
0.000142121
0.00011895
0.000118248
0.000133106
0.000105384
0.000153643
7.26616e-05
0.000170861
6.144e-05
1.63409e-05
0.000196356
3.4164e-06
-4.59968e-06
2.16933e-05
3.56885e-05
4.04472e-05
9.41379e-05
5.46114e-05
0.000131734
6.50379e-05
0.000151099
7.35853e-05
0.000158732
8.21711e-05
0.000158442
9.02357e-05
0.000154545
0.000101483
0.000139658
0.000112517
0.000131088
0.000127483
0.000103282
0.000141518
9.13486e-05
0.000163783
5.03966e-05
0.000182785
4.24381e-05
-1.07077e-05
0.000209834
1.42514e-06
-6.02482e-06
1.70655e-05
2.00481e-05
3.8045e-05
7.31585e-05
5.48024e-05
0.000114977
6.72851e-05
0.000138617
7.69097e-05
0.000149108
8.65508e-05
0.000148801
9.49577e-05
0.000146138
0.00010644
0.000128176
0.000118217
0.000119311
0.000134762
8.67364e-05
0.000149382
7.67286e-05
0.000172476
2.73026e-05
0.000192997
2.19174e-05
-3.95453e-05
0.000221835
1.67181e-07
-6.192e-06
1.19955e-05
8.21978e-06
3.38403e-05
5.13136e-05
5.29645e-05
9.5853e-05
6.7887e-05
0.000123694
7.88127e-05
0.000138182
8.95398e-05
0.000138074
9.86855e-05
0.000136992
0.000110079
0.000116783
0.00012227
0.000107119
0.000139425
6.95815e-05
0.000156199
5.99544e-05
0.000178907
4.59425e-06
0.000201649
-8.24353e-07
-6.94964e-05
0.0002316
-3.83287e-07
-5.80871e-06
7.60622e-06
2.30266e-07
2.76114e-05
3.13084e-05
4.86813e-05
7.47832e-05
6.6307e-05
0.000106068
7.89264e-05
0.000125563
9.05814e-05
0.000126419
0.000100973
0.000126601
0.000112028
0.000105728
0.00012573
9.34177e-05
0.000140063
5.52489e-05
0.000161159
3.8858e-05
0.000180786
-1.50328e-05
0.000207788
-2.7826e-05
-9.89413e-05
0.000237233
-3.87713e-07
-5.421e-06
4.38459e-06
-4.54204e-06
2.03441e-05
1.53489e-05
4.18789e-05
5.32483e-05
6.19242e-05
8.60231e-05
7.67559e-05
0.000110731
8.89506e-05
0.000114224
0.000101252
0.000114299
0.000110933
9.6047e-05
0.000127779
7.65717e-05
0.000138303
4.47251e-05
0.000163748
1.34127e-05
0.000177842
-2.91271e-05
0.00021037
-6.03535e-05
-0.00012841
0.000239838
-9.38313e-08
-5.32717e-06
2.77864e-06
-7.41451e-06
1.38423e-05
4.28525e-06
3.32525e-05
3.38381e-05
5.41419e-05
6.51337e-05
7.17073e-05
9.31655e-05
8.38635e-05
0.000102068
9.84325e-05
9.97302e-05
0.000107387
8.70921e-05
0.00012593
5.80294e-05
0.000135006
3.56484e-05
0.000164045
-1.56257e-05
0.000172103
-3.71852e-05
0.000211523
-9.97741e-05
-0.000135821
0.000218935
3.55165e-07
-5.68233e-06
2.50229e-06
-9.56164e-06
9.38877e-06
-2.60122e-06
2.44992e-05
1.87277e-05
4.35396e-05
4.60932e-05
6.27561e-05
7.3949e-05
7.60139e-05
8.88102e-05
9.02923e-05
8.54519e-05
0.000101092
7.62919e-05
0.000117899
4.1223e-05
0.000129978
2.35697e-05
0.000154813
-4.04611e-05
0.000163641
-4.60129e-05
0.000202356
-0.000138489
-0.000129957
0.000196492
8.31257e-07
-6.51359e-06
2.78119e-06
-1.15116e-05
7.02243e-06
-6.84246e-06
1.71878e-05
8.56239e-06
3.21019e-05
3.11791e-05
4.98539e-05
5.61969e-05
6.43804e-05
7.42837e-05
7.72881e-05
7.25443e-05
8.86463e-05
6.49337e-05
0.000102324
2.75457e-05
0.000116195
9.69862e-06
0.000128222
-5.2488e-05
0.000146574
-6.43652e-05
0.000169222
-0.000161138
-0.000151687
0.000190952
1.16824e-06
-7.68183e-06
2.93545e-06
-1.32788e-05
5.64933e-06
-9.55633e-06
1.16205e-05
2.59121e-06
2.16498e-05
2.11498e-05
3.50338e-05
4.28129e-05
4.84314e-05
6.08861e-05
5.95303e-05
6.14454e-05
6.95775e-05
5.48864e-05
7.99107e-05
1.72125e-05
9.30447e-05
-3.43536e-06
0.000103401
-6.28444e-05
0.000134933
-9.58975e-05
0.000157689
-0.000183893
-0.000216201
0.000222203
1.21041e-06
-8.89224e-06
2.50188e-06
-1.45703e-05
4.0048e-06
-1.10592e-05
6.90099e-06
-3.04983e-07
1.23594e-05
1.56914e-05
2.03567e-05
3.48156e-05
3.00366e-05
5.12062e-05
3.84808e-05
5.30012e-05
4.60407e-05
4.73265e-05
5.2571e-05
1.06822e-05
6.98749e-05
-2.07393e-05
9.61992e-05
-8.91687e-05
0.000144607
-0.000144305
0.000194602
-0.000233889
-0.000280878
0.000259279
8.74397e-07
-9.76664e-06
1.2639e-06
-1.49598e-05
1.3817e-06
-1.1177e-05
1.84142e-06
-7.64707e-07
3.34666e-06
1.41862e-05
6.43979e-06
3.17225e-05
1.07014e-05
4.69446e-05
1.47516e-05
4.8951e-05
1.9549e-05
4.25291e-05
3.08798e-05
-6.48686e-07
6.64548e-05
-5.63143e-05
0.000113564
-0.000136278
0.000174867
-0.000205608
0.00022258
-0.000281602
-0.000320881
0.000262584
1.67953e-07
-9.93459e-06
-7.07747e-07
-1.40841e-05
-2.17618e-06
-9.70861e-06
-3.90803e-06
9.67142e-07
-5.75576e-06
1.60339e-05
-7.65069e-06
3.36174e-05
-9.42647e-06
4.87204e-05
-9.2904e-06
4.88149e-05
2.41264e-06
3.08261e-05
3.40461e-05
-3.22822e-05
8.86171e-05
-0.000110885
0.000144679
-0.000192339
0.000197827
-0.000258757
0.000231335
-0.00031511
-0.000354217
0.00026467
-7.97488e-07
-9.1371e-06
-3.13975e-06
-1.17418e-05
-6.37206e-06
-6.4763e-06
-1.02831e-05
4.87819e-06
-1.50878e-05
2.08387e-05
-2.10312e-05
3.95607e-05
-2.64317e-05
5.41209e-05
-2.21753e-05
4.45586e-05
8.66065e-06
-9.8874e-09
6.02131e-05
-8.38346e-05
0.000118379
-0.000169051
0.000167499
-0.00024146
0.000207102
-0.00029836
0.000236877
-0.000344884
-0.00038136
0.00026402
-1.82317e-06
-7.31393e-06
-5.59587e-06
-7.9691e-06
-1.04477e-05
-1.62448e-06
-1.61046e-05
1.05351e-05
-2.26266e-05
2.73606e-05
-2.90578e-05
4.5992e-05
-3.15885e-05
5.66515e-05
-1.31418e-05
2.6112e-05
3.39079e-05
-4.70596e-05
8.99242e-05
-0.000139851
0.000140667
-0.000219793
0.000181075
-0.000281868
0.000213983
-0.000331268
0.000239009
-0.000369911
-0.000401021
0.00025867
-2.64943e-06
-4.6645e-06
-7.475e-06
-3.14353e-06
-1.32178e-05
4.11836e-06
-1.94111e-05
1.67284e-05
-2.51896e-05
3.31391e-05
-2.79741e-05
4.87764e-05
-2.18524e-05
5.05299e-05
1.14928e-05
-7.23323e-06
6.38287e-05
-9.93956e-05
0.000114415
-0.000190438
0.000156987
-0.000262365
0.000190908
-0.000315788
0.000216736
-0.000357097
0.000235503
-0.000388678
-0.000417917
0.0002524
-3.04424e-06
-1.62026e-06
-8.20709e-06
2.01932e-06
-1.39179e-05
9.82917e-06
-1.90977e-05
2.19082e-05
-2.19398e-05
3.59812e-05
-1.96727e-05
4.65093e-05
-2.09008e-06
3.29473e-05
4.03045e-05
-4.96278e-05
8.98284e-05
-0.00014892
0.000133753
-0.000234362
0.000168809
-0.000297421
0.000195324
-0.000342303
0.000215027
-0.0003768
0.000231264
-0.000404915
-0.000432788
0.000246135
-2.93783e-06
1.31757e-06
-7.7163e-06
6.79779e-06
-1.24287e-05
1.45416e-05
-1.54064e-05
2.4886e-05
-1.40356e-05
3.46103e-05
-7.19665e-06
3.96704e-05
1.99406e-05
5.81004e-06
6.60547e-05
-9.57419e-05
0.000110848
-0.000193713
0.000147736
-0.00027125
0.000175321
-0.000325006
0.000196079
-0.000363061
0.000212451
-0.000393172
0.000226045
-0.000418509
-0.000445019
0.000238276
-2.42571e-06
3.74328e-06
-6.27327e-06
1.06454e-05
-9.39137e-06
1.76597e-05
-9.65853e-06
2.51531e-05
-4.7529e-06
2.97047e-05
7.61896e-06
2.72985e-05
4.24992e-05
-2.90702e-05
8.70701e-05
-0.000140313
0.000126561
-0.000233204
0.000156557
-0.000301246
0.000178308
-0.000346757
0.000194866
-0.000379619
0.000207854
-0.000406159
0.000219161
-0.000429816
-0.000456464
0.000230606
-1.70201e-06
5.44529e-06
-4.36706e-06
1.33104e-05
-5.80781e-06
1.91004e-05
-3.49272e-06
2.2838e-05
2.92336e-06
2.32886e-05
2.105e-05
9.17194e-06
6.26728e-05
-7.0693e-05
0.000103919
-0.000181559
0.000137248
-0.000266533
0.000161294
-0.000325292
0.000178315
-0.000363777
0.000191339
-0.000392644
0.000202187
-0.000417007
0.000212707
-0.000440337
-0.000466818
0.000223061
-9.78045e-07
6.42334e-06
-2.49075e-06
1.48231e-05
-2.51656e-06
1.91262e-05
1.36405e-06
1.89574e-05
8.62644e-06
1.60262e-05
3.36786e-05
-1.58803e-05
7.89332e-05
-0.000115948
0.000116375
-0.000219001
0.000143754
-0.000293912
0.000162646
-0.000344184
0.000176044
-0.000377176
0.000186853
-0.000403452
0.000196366
-0.00042652
0.000205585
-0.000449555
-0.000475848
0.000214615
-4.1586e-07
6.8392e-06
-1.02185e-06
1.54291e-05
2.27369e-08
1.80816e-05
3.92445e-06
1.50557e-05
1.3244e-05
6.70663e-06
4.77501e-05
-5.03863e-05
9.18106e-05
-0.000160008
0.000124699
-0.000251889
0.000146762
-0.000315975
0.000161569
-0.000358991
0.000172395
-0.000388002
0.000181518
-0.000412575
0.000189702
-0.000434704
0.000198171
-0.000458024
-0.000484629
0.000206951
-1.10855e-07
6.95005e-06
-2.05745e-07
1.5524e-05
1.25701e-06
1.66189e-05
4.11104e-06
1.22017e-05
1.95988e-05
-8.78116e-06
6.24188e-05
-9.32063e-05
0.000101752
-0.000199341
0.000129278
-0.000279416
0.000147024
-0.000333721
0.000158784
-0.000370751
0.000167676
-0.000396894
0.000175532
-0.000420431
0.000183062
-0.000442234
0.000191039
-0.000466001
-0.000492215
0.000198625
-7.66741e-08
7.02673e-06
5.18105e-08
1.53955e-05
1.34443e-06
1.53263e-05
4.19994e-06
9.34616e-06
2.95466e-05
-3.41278e-05
7.46763e-05
-0.000138336
0.000108621
-0.000233286
0.000131061
-0.000301856
0.000145286
-0.000347946
0.000154769
-0.000380234
0.000162312
-0.000404436
0.00016935
-0.00042747
0.000176181
-0.000449065
0.000183321
-0.000473141
-0.000499425
0.000190531
-2.52852e-07
7.27958e-06
-8.80438e-08
1.52307e-05
4.0202e-08
1.5198e-05
7.95744e-06
1.42892e-06
4.30441e-05
-6.92145e-05
8.34768e-05
-0.000178769
0.000112374
-0.000262183
0.000130628
-0.00032011
0.000142089
-0.000359408
0.000149959
-0.000388103
0.000156559
-0.000411036
0.000162826
-0.000433737
0.000169104
-0.000455343
0.000175941
-0.000479978
-0.000505939
0.000182455
-5.34663e-07
7.81424e-06
-6.3778e-07
1.53338e-05
-1.04756e-06
1.56078e-05
1.4524e-05
-1.41426e-05
5.59746e-05
-0.000110665
8.99578e-05
-0.000212752
0.000113697
-0.000285922
0.000128572
-0.000334985
0.000137954
-0.000368789
0.000144626
-0.000394776
0.000150473
-0.000416883
0.000156217
-0.000439481
0.000162097
-0.000461224
0.000168227
-0.000486108
-0.000511827
0.000174115
-7.96754e-07
8.61099e-06
-1.11617e-06
1.56532e-05
2.01799e-07
1.42898e-05
2.43179e-05
-3.82587e-05
6.47208e-05
-0.000151068
9.406e-05
-0.000242091
0.00011333
-0.000305192
0.000125348
-0.000347003
0.000133122
-0.000376563
0.000138928
-0.000400582
0.000144264
-0.000422219
0.000149507
-0.000444724
0.000154865
-0.000466582
0.000160595
-0.000491838
-0.000517326
0.000166094
-9.14589e-07
9.52558e-06
-1.69768e-06
1.64363e-05
4.60048e-06
7.99168e-06
3.64626e-05
-7.01208e-05
7.07467e-05
-0.000185352
9.58136e-05
-0.000267158
0.000111585
-0.000320963
0.000121336
-0.000356753
0.000127894
-0.000383121
0.000133055
-0.000405743
0.0001379
-0.000427064
0.000142702
-0.000449527
0.000147731
-0.000471611
0.000152905
-0.000497012
-0.000522148
0.000157728
-9.77707e-07
1.05033e-05
-2.20225e-06
1.76609e-05
1.01804e-05
-4.39097e-06
4.65941e-05
-0.000106535
7.54026e-05
-0.000214161
9.58423e-05
-0.000287598
0.00010874
-0.000333861
0.000116774
-0.000364787
0.000122386
-0.000388734
0.000127011
-0.000410368
0.000131483
-0.000431535
0.000135911
-0.000453955
0.000140467
-0.000476168
0.000145161
-0.000501705
-0.000526664
0.000149677
-7.41636e-07
1.12449e-05
-1.54041e-06
1.84596e-05
1.68196e-05
-2.2751e-05
5.25378e-05
-0.000142253
7.82361e-05
-0.000239859
9.4845e-05
-0.000304207
0.000105197
-0.000344213
0.000111845
-0.000371435
0.000116731
-0.00039362
0.000120937
-0.000414574
0.000125021
-0.000435619
0.000129038
-0.000457972
0.000133251
-0.00048038
0.000137482
-0.000505936
-0.000530586
0.000141404
-4.70124e-07
1.17151e-05
1.03265e-06
1.69569e-05
2.53566e-05
-4.70749e-05
5.66224e-05
-0.000173519
7.9146e-05
-0.000262382
9.28563e-05
-0.000317917
0.000101159
-0.000352516
0.000106687
-0.000376963
0.000110979
-0.000397911
0.000114785
-0.000418381
0.00011852
-0.000439355
0.000122202
-0.000461654
0.000125981
-0.000484159
0.000129715
-0.00050967
-0.000534218
0.000133346
-3.75799e-07
1.20909e-05
4.50926e-06
1.20718e-05
3.32544e-05
-7.582e-05
5.98381e-05
-0.000200102
7.8583e-05
-0.000281127
8.9938e-05
-0.000329272
9.67475e-05
-0.000359326
0.000101407
-0.000381622
0.000105192
-0.000401697
0.000108652
-0.00042184
0.000112036
-0.000442738
0.00011532
-0.000464937
0.00011872
-0.00048756
0.000122034
-0.000512983
-0.000537358
0.000125174
-3.83343e-07
1.24742e-05
8.07317e-06
3.6153e-06
3.89528e-05
-0.0001067
6.18613e-05
-0.000223011
7.71656e-05
-0.000296432
8.64039e-05
-0.00033851
9.20482e-05
-0.00036497
9.60423e-05
-0.000385616
9.93966e-05
-0.000405051
0.000102496
-0.00042494
0.000105524
-0.000445766
0.000108468
-0.000467882
0.000111455
-0.000490547
0.000114287
-0.000515815
-0.000540172
0.000117101
-3.94079e-07
1.28683e-05
1.17711e-05
-8.54988e-06
4.21497e-05
-0.000137078
6.27433e-05
-0.000243604
7.51488e-05
-0.000308837
8.2514e-05
-0.000345876
8.71799e-05
-0.000369636
9.06373e-05
-0.000389074
9.36082e-05
-0.000408022
9.63768e-05
-0.000427709
9.9057e-05
-0.000448446
0.000101612
-0.000470437
0.000104201
-0.000493136
0.000106636
-0.000518251
-0.000542532
0.000108996
-6.20385e-07
1.34887e-05
1.63001e-05
-2.54704e-05
4.3501e-05
-0.000164279
6.21738e-05
-0.000262277
7.25833e-05
-0.000319247
7.84385e-05
-0.000351731
8.22511e-05
-0.000373449
8.52231e-05
-0.000392046
8.78382e-05
-0.000410637
9.02634e-05
-0.000430134
9.25794e-05
-0.000450762
9.47816e-05
-0.000472639
9.69676e-05
-0.000495322
9.89523e-05
-0.000520235
-0.000544534
0.000100955
-3.91201e-07
1.38799e-05
2.03597e-05
-4.62213e-05
4.45133e-05
-0.000188433
6.06116e-05
-0.000278375
6.94356e-05
-0.000328071
7.41998e-05
-0.000356495
7.73173e-05
-0.000376566
7.98413e-05
-0.00039457
8.20997e-05
-0.000412895
8.41905e-05
-0.000432225
8.6157e-05
-0.000452728
8.79736e-05
-0.000474455
8.97535e-05
-0.000497102
9.13542e-05
-0.000521836
-0.000546137
9.29571e-05
3.83819e-07
1.3496e-05
2.38096e-05
-6.96471e-05
4.48813e-05
-0.000209504
5.84956e-05
-0.00029199
6.58677e-05
-0.000335443
6.98186e-05
-0.000360446
7.2398e-05
-0.000379146
7.45066e-05
-0.000396678
7.64065e-05
-0.000414795
7.81455e-05
-0.000433964
7.97415e-05
-0.000454324
8.11929e-05
-0.000475907
8.25739e-05
-0.000498483
8.37481e-05
-0.00052301
-0.000547371
8.49815e-05
1.45584e-06
1.20402e-05
2.63422e-05
-9.45335e-05
4.47359e-05
-0.000227898
5.60384e-05
-0.000303292
6.20676e-05
-0.000341472
6.53402e-05
-0.000363719
6.74867e-05
-0.000381292
6.92247e-05
-0.000398416
7.07654e-05
-0.000416336
7.21504e-05
-0.000435349
7.33864e-05
-0.00045556
7.44519e-05
-0.000476972
7.54247e-05
-0.000499456
7.6221e-05
-0.000523806
-0.000548215
7.70654e-05
3.12925e-06
8.91095e-06
2.78449e-05
-0.000119249
4.41707e-05
-0.000244224
5.33931e-05
-0.000312515
5.81896e-05
-0.000346268
6.08362e-05
-0.000366365
6.25978e-05
-0.000383054
6.39898e-05
-0.000399808
6.51791e-05
-0.000417525
6.6201e-05
-0.00043637
6.70576e-05
-0.000456417
6.77463e-05
-0.000477661
6.83197e-05
-0.000500029
6.86894e-05
-0.000524176
-0.00054862
6.9094e-05
5.30974e-06
3.60121e-06
2.83638e-05
-0.000142303
4.31421e-05
-0.000259002
5.06238e-05
-0.000319996
5.43078e-05
-0.000349952
5.63548e-05
-0.000368412
5.77414e-05
-0.00038444
5.88024e-05
-0.000400869
5.96463e-05
-0.000418369
6.03074e-05
-0.000437032
6.0794e-05
-0.000456904
6.10933e-05
-0.00047796
6.12545e-05
-0.00050019
6.12193e-05
-0.000524141
-0.000548566
6.1166e-05
7.82035e-06
-4.21914e-06
2.81996e-05
-0.000162682
4.14881e-05
-0.000272291
4.77053e-05
-0.000326214
5.04547e-05
-0.000352702
5.19373e-05
-0.000369895
5.29417e-05
-0.000385445
5.36671e-05
-0.000401595
5.4169e-05
-0.000418871
5.44686e-05
-0.000437331
5.45719e-05
-0.000457007
5.44839e-05
-0.000477872
5.42405e-05
-0.000499947
5.37696e-05
-0.00052367
-0.000548037
5.324e-05
1.03063e-05
-1.45254e-05
2.81957e-05
-0.000180572
3.94667e-05
-0.000283562
4.45739e-05
-0.000331321
4.66062e-05
-0.000354734
4.75878e-05
-0.000370876
4.82075e-05
-0.000386064
4.85914e-05
-0.000401978
4.87503e-05
-0.00041903
4.86907e-05
-0.000437272
4.84186e-05
-0.000456735
4.79335e-05
-0.000477387
4.72722e-05
-0.000499285
4.63903e-05
-0.000522788
-0.000547038
4.53917e-05
1.20947e-05
-2.66201e-05
2.78783e-05
-0.000196355
3.72295e-05
-0.000292913
4.12648e-05
-0.000335356
4.27265e-05
-0.000356196
4.32963e-05
-0.000371446
4.355e-05
-0.000386318
4.35854e-05
-0.000402014
4.33974e-05
-0.000418842
4.29776e-05
-0.000436852
4.23217e-05
-0.000456079
4.14371e-05
-0.000476503
4.03592e-05
-0.000498207
3.90522e-05
-0.000521481
-0.000545559
3.75728e-05
1.31511e-05
-3.97712e-05
2.71286e-05
-0.000210333
3.48127e-05
-0.000300597
3.78732e-05
-0.000338417
3.88389e-05
-0.000357161
3.90537e-05
-0.000371661
3.89642e-05
-0.000386229
3.86535e-05
-0.000401703
3.81156e-05
-0.000418304
3.73353e-05
-0.000436072
3.63038e-05
-0.000455048
3.50175e-05
-0.000475216
3.35049e-05
-0.000496695
3.17751e-05
-0.000519751
-0.000543627
2.98435e-05
1.35289e-05
-5.33001e-05
2.59962e-05
-0.0002228
3.22593e-05
-0.00030686
3.44635e-05
-0.000340621
3.49776e-05
-0.000357675
3.4866e-05
-0.000371549
3.44523e-05
-0.000385815
3.38007e-05
-0.000401052
3.29115e-05
-0.000417415
3.17694e-05
-0.000434929
3.03603e-05
-0.000453638
2.86815e-05
-0.000473537
2.67417e-05
-0.000494755
2.45332e-05
-0.000517543
-0.000541245
2.21508e-05
1.34022e-05
-6.67023e-05
2.45359e-05
-0.000233934
2.96004e-05
-0.000311925
3.1075e-05
-0.000342095
3.11702e-05
-0.000357771
3.07423e-05
-0.000371122
3.00131e-05
-0.000385086
2.90272e-05
-0.000400066
2.77885e-05
-0.000416176
2.62843e-05
-0.000433425
2.4504e-05
-0.000451858
2.24435e-05
-0.000471477
2.00961e-05
-0.000492408
1.73663e-05
-0.000514813
-0.000538403
1.45242e-05
1.29456e-05
-7.96479e-05
2.28428e-05
-0.000243831
2.68784e-05
-0.00031596
2.77274e-05
-0.000342944
2.74351e-05
-0.000357478
2.66947e-05
-0.000370381
2.56536e-05
-0.000384045
2.43378e-05
-0.00039875
2.27521e-05
-0.00041459
2.08864e-05
-0.00043156
1.87305e-05
-0.000449702
1.62877e-05
-0.000469034
1.35704e-05
-0.000489691
1.03577e-05
-0.0005116
-0.000534938
6.89269e-06
1.22689e-05
-9.19168e-05
2.09879e-05
-0.00025255
2.41272e-05
-0.0003191
2.44381e-05
-0.000343255
2.37853e-05
-0.000356825
2.27324e-05
-0.000369328
2.13775e-05
-0.00038269
1.9734e-05
-0.000397107
1.78046e-05
-0.000412661
1.55795e-05
-0.000429334
1.30505e-05
-0.000447173
1.02184e-05
-0.000466202
7.10458e-06
-0.000486577
3.64915e-06
-0.000508145
-0.00053047
-8.18374e-07
1.1441e-05
-0.000103358
1.90372e-05
-0.000260146
2.13867e-05
-0.000321449
2.12231e-05
-0.000343092
2.02297e-05
-0.000355832
1.88632e-05
-0.000367962
1.71924e-05
-0.000381019
1.5221e-05
-0.000395135
1.29492e-05
-0.000410389
1.03681e-05
-0.000426753
7.46614e-06
-0.000444271
4.24218e-06
-0.000462978
5.75412e-07
-0.00048291
-3.02233e-06
-0.000504547
-0.000525828
-7.66389e-06
1.04558e-05
-0.000113814
1.70395e-05
-0.00026673
1.86905e-05
-0.0003231
1.80983e-05
-0.000342499
1.67748e-05
-0.000354508
1.50922e-05
-0.000366279
1.31012e-05
-0.000379028
1.07996e-05
-0.000392833
8.18413e-06
-0.000407774
5.25017e-06
-0.000423819
1.97775e-06
-0.000440999
-1.63697e-06
-0.000459363
-5.46201e-06
-0.000479085
-9.84587e-06
-0.000500163
-0.000521102
-1.45728e-05
9.42866e-06
-0.000123242
1.50483e-05
-0.00027235
1.60643e-05
-0.000324116
1.50745e-05
-0.00034151
1.34233e-05
-0.000352857
1.14221e-05
-0.000364278
9.10727e-06
-0.000376713
6.47055e-06
-0.000390197
3.50573e-06
-0.000404809
2.0165e-07
-0.000420515
-3.38602e-06
-0.000437411
-7.2958e-06
-0.000455453
-1.15134e-05
-0.000474867
-1.64014e-05
-0.000495275
-0.000516085
-2.14183e-05
8.47944e-06
-0.000131722
1.31073e-05
-0.000276977
1.35194e-05
-0.000324528
1.21484e-05
-0.000340139
1.01753e-05
-0.000350884
7.85339e-06
-0.000361956
5.20728e-06
-0.000374067
2.22251e-06
-0.000387212
-1.07797e-06
-0.000401508
-4.66758e-06
-0.000416926
-8.61695e-06
-0.000433462
-1.28769e-05
-0.000451194
-1.75213e-05
-0.000470223
-2.27764e-05
-0.00049002
-0.000510705
-2.81557e-05
7.55629e-06
-0.000139278
1.12384e-05
-0.00028066
1.10681e-05
-0.000324358
9.32233e-06
-0.000338393
7.02957e-06
-0.000348591
4.38102e-06
-0.000359307
1.38492e-06
-0.000371071
-1.90122e-06
-0.000383926
-5.49663e-06
-0.000397913
-9.44975e-06
-0.000412973
-1.37392e-05
-0.000429172
-1.83685e-05
-0.000446564
-2.34427e-05
-0.000465149
-2.90016e-05
-0.000484461
-0.000504931
-3.47758e-05
6.65829e-06
-0.000145936
9.45033e-06
-0.000283452
8.71415e-06
-0.000323622
6.60095e-06
-0.00033628
3.98254e-06
-0.000345973
9.81962e-07
-0.000356307
-2.29063e-06
-0.000367798
-5.88626e-06
-0.00038033
-9.83064e-06
-0.000393969
-1.4123e-05
-0.00040868
-1.87536e-05
-0.000424542
-2.37546e-05
-0.000441563
-2.92362e-05
-0.000459667
-3.50978e-05
-0.0004786
-0.000498766
-4.12628e-05
5.79288e-06
-0.000151729
7.74715e-06
-0.000285406
6.46669e-06
-0.000322341
3.98602e-06
-0.000333799
1.01194e-06
-0.000342999
-2.25529e-06
-0.00035304
-5.84586e-06
-0.000364208
-9.78043e-06
-0.000376396
-1.40602e-05
-0.000389689
-1.86852e-05
-0.000404055
-2.36583e-05
-0.000419569
-2.90213e-05
-0.0004362
-3.48464e-05
-0.000453842
-4.10589e-05
-0.000472387