/*--------------------------------*- C++ -*----------------------------------*\
  =========                 |
  \\      /  F ield         | OpenFOAM: The Open Source CFD Toolbox
   \\    /   O peration     | Website:  https://openfoam.org
    \\  /    A nd           | Version:  7
     \\/     M anipulation  |
\*---------------------------------------------------------------------------*/
FoamFile
{
    version     2.0;
    format      ascii;
    class       volVectorField;
    location    "12.9987";
    object      U;
}
// * * * * * * * * * * * * * * * * * * * * * * * * * * * * * * * * * * * * * //

dimensions      [0 1 -1 0 0 0 0];

internalField   nonuniform List<vector> 
18750
(
(-0.0469563 0.0289633 -1.16631e-20)
(-0.161475 0.0343046 3.94515e-21)
(-0.281892 0.0321001 4.2797e-20)
(-0.388494 0.0304881 9.87384e-21)
(-0.493922 0.0288432 -2.39234e-20)
(-0.591658 0.0272138 -5.82282e-20)
(-0.685417 0.0255049 6.01671e-20)
(-0.772015 0.0237481 3.9722e-20)
(-0.853503 0.0219581 -2.97361e-20)
(-0.928341 0.0202069 -7.97478e-20)
(-0.997994 0.018528 3.0249e-19)
(-1.06133 0.0169311 -2.47743e-19)
(-1.11936 0.0153951 1.46702e-19)
(-1.17141 0.0139571 -2.84556e-19)
(-1.2185 0.0126992 6.63296e-20)
(-0.0487751 0.0864131 7.02315e-21)
(-0.162645 0.102514 1.16929e-20)
(-0.281539 0.0959653 6.12772e-21)
(-0.386652 0.0911495 6.63597e-20)
(-0.490504 0.0862326 1.37544e-19)
(-0.586574 0.0813524 1.84079e-19)
(-0.678513 0.0762307 -1.5728e-19)
(-0.763117 0.0709635 2.5726e-19)
(-0.842399 0.0655958 2.40094e-19)
(-0.914829 0.060343 -7.60303e-20)
(-0.9819 0.055311 -3.20413e-19)
(-1.0425 0.0505428 1.67429e-20)
(-1.09762 0.0459815 7.19876e-20)
(-1.1465 0.0417179 1.8632e-19)
(-1.19011 0.0379608 -2.81399e-19)
(-0.0523399 0.142364 2.19903e-20)
(-0.164951 0.169443 3.3742e-20)
(-0.280863 0.15876 -1.06898e-19)
(-0.383066 0.150817 7.72255e-21)
(-0.483864 0.142696 -2.55725e-19)
(-0.57674 0.134603 8.45356e-20)
(-0.665229 0.126098 -2.39735e-19)
(-0.746111 0.117345 -2.80432e-20)
(-0.821329 0.108422 -1.84276e-19)
(-0.889387 0.0996848 5.50336e-19)
(-0.951841 0.0913285 7.25765e-19)
(-1.00765 0.0834637 6.35454e-19)
(-1.05776 0.0760158 3.7129e-19)
(-1.10129 0.069078 2.50043e-19)
(-1.13916 0.0628914 -4.58193e-19)
(-0.0575092 0.195866 -1.176e-19)
(-0.168328 0.234272 1.39993e-19)
(-0.279909 0.219806 -1.0536e-19)
(-0.377901 0.208879 -2.21599e-19)
(-0.474338 0.19768 3.84373e-19)
(-0.56272 0.186456 -3.57803e-19)
(-0.646439 0.174633 5.29945e-19)
(-0.722274 0.162452 -4.49082e-19)
(-0.792096 0.15003 3.15562e-19)
(-0.854464 0.13786 -7.71608e-19)
(-0.911037 0.126243 -1.10146e-18)
(-0.960914 0.115403 5.97986e-20)
(-1.00503 0.105272 -2.08331e-19)
(-1.04238 0.0958877 -4.48659e-19)
(-1.07378 0.0874133 1.68491e-18)
(-0.0640783 0.246034 -9.04628e-20)
(-0.172665 0.296216 2.04511e-19)
(-0.278723 0.278479 4.68262e-20)
(-0.371355 0.264794 1.75371e-19)
(-0.462334 0.250713 -2.34397e-19)
(-0.545187 0.236496 1.01501e-19)
(-0.62315 0.221475 1.25644e-18)
(-0.693035 0.205977 1.9463e-19)
(-0.756648 0.190167 3.45373e-19)
(-0.812627 0.174669 -1.19958e-19)
(-0.86276 0.159908 1.05318e-19)
(-0.906357 0.146259 -4.13142e-20)
(-0.94442 0.133694 -1.17321e-18)
(-0.975843 0.122159 -6.54269e-19)
(-1.00128 0.111636 -1.91264e-18)
(-0.0718335 0.292117 2.0472e-19)
(-0.177844 0.354529 6.79196e-20)
(-0.277324 0.334221 -9.83588e-20)
(-0.363621 0.318101 -7.24056e-20)
(-0.448274 0.301411 7.88669e-20)
(-0.524822 0.28441 -1.07264e-18)
(-0.596348 0.266379 -1.37332e-19)
(-0.659743 0.247741 6.87191e-20)
(-0.716755 0.228721 -5.10487e-19)
(-0.766121 0.210068 -6.9838e-19)
(-0.809764 0.192342 5.07661e-19)
(-0.847257 0.176098 -5.00649e-19)
(-0.879748 0.161391 1.53969e-18)
(-0.906066 0.148067 -1.19477e-18)
(-0.926574 0.135839 2.61036e-18)
(-0.0805125 0.333372 -1.83572e-19)
(-0.183665 0.408524 -3.12725e-19)
(-0.275664 0.386578 1.2727e-19)
(-0.35487 0.368433 9.58375e-19)
(-0.432549 0.349478 9.73136e-19)
(-0.502247 0.329976 -3.38977e-19)
(-0.566908 0.309196 1.72794e-19)
(-0.623541 0.287664 1.11419e-19)
(-0.673854 0.265681 1.0961e-18)
(-0.716681 0.244122 1.51246e-18)
(-0.754051 0.223682 -7.33429e-19)
(-0.785812 0.205114 -1.3996e-18)
(-0.813291 0.188583 -2.58838e-18)
(-0.835265 0.173861 4.42902e-19)
(-0.851613 0.160326 -3.1896e-18)
(-0.0897898 0.369038 -1.61924e-19)
(-0.189887 0.457644 -1.91031e-19)
(-0.273662 0.435209 -1.38893e-18)
(-0.345239 0.415506 4.94685e-19)
(-0.415493 0.394694 -5.84378e-19)
(-0.477989 0.373045 3.99013e-19)
(-0.535546 0.349849 4.24125e-19)
(-0.585325 0.32574 -1.85526e-18)
(-0.628998 0.301111 -1.23382e-18)
(-0.665486 0.27696 -2.07779e-18)
(-0.696859 0.254111 -3.47938e-19)
(-0.723178 0.233501 1.48753e-18)
(-0.74593 0.215441 5.79457e-18)
(-0.76382 0.199672 -8.81905e-19)
(-0.77607 0.185197 1.57081e-18)
(-0.0992602 0.398444 8.70576e-19)
(-0.196213 0.501448 3.50993e-19)
(-0.27122 0.47987 1.52416e-18)
(-0.33483 0.459117 -1.12076e-18)
(-0.397381 0.436903 5.31169e-19)
(-0.452475 0.413527 -8.88157e-19)
(-0.502824 0.388313 -2.04419e-18)
(-0.545756 0.361998 1.81985e-18)
(-0.582908 0.335083 2.1669e-19)
(-0.613261 0.308692 3.09789e-18)
(-0.638835 0.283761 -1.0053e-18)
(-0.659794 0.261394 -4.51886e-18)
(-0.677705 0.242047 -2.7484e-18)
(-0.691223 0.22548 2.85777e-19)
(-0.69887 0.210313 -1.32363e-18)
(-0.108433 0.420973 -7.2185e-19)
(-0.202266 0.539559 -4.11332e-19)
(-0.26821 0.520403 5.26406e-19)
(-0.323721 0.499122 8.13535e-20)
(-0.378423 0.476 -2.08485e-19)
(-0.426031 0.451366 -2.40052e-19)
(-0.469157 0.424576 9.33669e-19)
(-0.505298 0.396469 -1.10508e-18)
(-0.536039 0.367663 1.08629e-18)
(-0.560397 0.3394 1.35208e-18)
(-0.580257 0.31272 -2.39363e-18)
(-0.595752 0.288839 4.5208e-18)
(-0.608427 0.268335 5.28158e-19)
(-0.616961 0.25104 7.11594e-19)
(-0.619392 0.235307 1.63335e-18)
(-0.116768 0.43619 1.34991e-18)
(-0.207647 0.571759 -4.42386e-19)
(-0.264504 0.556699 -1.97542e-18)
(-0.311953 0.535428 7.82875e-19)
(-0.358772 0.511921 -4.53338e-19)
(-0.398909 0.486538 5.32943e-19)
(-0.434865 0.458648 3.95646e-18)
(-0.464286 0.429186 1.90575e-18)
(-0.488691 0.398887 1.26178e-18)
(-0.507121 0.36911 -4.21956e-18)
(-0.521254 0.340976 4.59124e-18)
(-0.531092 0.315776 1.66629e-18)
(-0.538043 0.294172 -2.68241e-18)
(-0.540911 0.276124 3.24439e-18)
(-0.53771 0.259896 -1.07861e-19)
(-0.123575 0.443567 2.69492e-19)
(-0.211896 0.597903 7.02966e-20)
(-0.259958 0.588667 -1.30977e-19)
(-0.299552 0.567978 -1.39792e-18)
(-0.338542 0.544645 2.78881e-18)
(-0.371296 0.519022 -1.42574e-18)
(-0.400175 0.490506 -4.18875e-18)
(-0.422956 0.460134 1.27788e-18)
(-0.441072 0.428741 -2.04573e-18)
(-0.453569 0.397788 3.16288e-18)
(-0.461911 0.368473 -5.67574e-18)
(-0.465915 0.342129 4.39601e-19)
(-0.466753 0.319449 2.39159e-18)
(-0.463354 0.300503 -4.99824e-18)
(-0.454271 0.283686 -1.17245e-18)
(-0.128101 0.442953 -8.88511e-19)
(-0.214595 0.617978 2.56794e-19)
(-0.254492 0.616185 7.89513e-19)
(-0.286493 0.596772 -3.69397e-20)
(-0.317805 0.574173 -3.78974e-18)
(-0.343347 0.548815 3.65936e-19)
(-0.365292 0.520157 1.36463e-18)
(-0.381519 0.489308 -3.69385e-18)
(-0.393369 0.457204 2.75905e-18)
(-0.399899 0.425388 -2.53216e-18)
(-0.402355 0.395121 6.91179e-18)
(-0.400396 0.367781 -2.87302e-18)
(-0.394924 0.344065 3.46376e-18)
(-0.384787 0.32408 7.0118e-18)
(-0.369487 0.306374 3.01759e-18)
(-0.129771 0.434765 -3.49429e-19)
(-0.215349 0.631959 -5.56378e-21)
(-0.248008 0.639096 -3.20196e-20)
(-0.27276 0.621867 -8.87835e-20)
(-0.296637 0.600551 -1.83255e-18)
(-0.315191 0.575906 -8.14645e-19)
(-0.330366 0.547534 1.32942e-18)
(-0.340151 0.516626 8.06496e-19)
(-0.345762 0.484177 -4.67175e-18)
(-0.346275 0.4518 -2.58999e-19)
(-0.342748 0.420804 -1.35709e-18)
(-0.334743 0.392607 2.74703e-18)
(-0.322989 0.367961 -3.83217e-18)
(-0.306035 0.346843 -5.39595e-19)
(-0.283719 0.327776 -3.41024e-18)
(-0.128146 0.419187 1.55363e-18)
(-0.213731 0.639372 -1.37796e-18)
(-0.240376 0.657393 -1.89046e-18)
(-0.258265 0.643396 3.37609e-18)
(-0.275096 0.623816 2.98778e-18)
(-0.286961 0.600288 3.83499e-18)
(-0.29559 0.572655 1.65717e-19)
(-0.299051 0.542047 2.61757e-18)
(-0.298465 0.509587 3.51522e-18)
(-0.292935 0.476936 5.2424e-18)
(-0.283348 0.445415 -2.41968e-18)
(-0.269197 0.416486 5.06567e-18)
(-0.251309 0.391002 -3.74232e-20)
(-0.228071 0.368974 -2.56666e-18)
(-0.19694 0.348282 -6.33316e-18)
(-0.122981 0.396176 -9.76829e-19)
(-0.209376 0.63988 1.53269e-18)
(-0.231478 0.671249 1.02123e-18)
(-0.243069 0.661522 -3.17348e-18)
(-0.253295 0.644057 -1.48793e-18)
(-0.258786 0.622001 -2.7412e-19)
(-0.261091 0.595379 -2.00788e-18)
(-0.258427 0.565415 -3.45236e-18)
(-0.251702 0.533261 -5.88892e-18)
(-0.24013 0.500605 -2.55654e-18)
(-0.224466 0.468795 3.57215e-18)
(-0.204095 0.439274 -7.46614e-18)
(-0.179988 0.413072 2.51947e-19)
(-0.151504 0.390252 4.71437e-18)
(-0.111232 0.368564 6.77948e-18)
(-0.114116 0.365775 -2.34201e-18)
(-0.202099 0.633413 1.8248e-18)
(-0.221161 0.680608 -3.16016e-18)
(-0.227215 0.676335 -1.51981e-18)
(-0.231342 0.661395 -8.80707e-20)
(-0.230882 0.641098 2.10692e-18)
(-0.227114 0.615724 3.42316e-18)
(-0.218484 0.586696 1.13339e-18)
(-0.205752 0.555086 1.64947e-18)
(-0.188171 0.522658 -4.6355e-18)
(-0.166475 0.490792 1.10738e-19)
(-0.139886 0.460884 -3.55035e-18)
(-0.109452 0.433975 -2.63523e-18)
(-0.0764679 0.410507 -7.5339e-18)
(-0.0265638 0.389866 -1.04951e-19)
(-0.10158 0.328302 2.06101e-18)
(-0.191881 0.619898 3.26764e-19)
(-0.209407 0.685298 4.94947e-19)
(-0.210767 0.687823 3.77418e-18)
(-0.209338 0.675835 1.59113e-18)
(-0.203353 0.65753 -1.95964e-18)
(-0.193888 0.633693 1.54129e-18)
(-0.179518 0.605777 -8.95608e-19)
(-0.160938 0.57492 -1.78506e-18)
(-0.137417 0.542905 2.05765e-18)
(-0.109774 0.511187 -6.86655e-18)
(-0.0771221 0.481092 -2.59241e-19)
(-0.0398829 0.453602 -3.85901e-18)
(-0.00376753 0.429607 5.98865e-18)
(0.0575675 0.411383 5.37587e-19)
(-0.0857923 0.284372 -7.8631e-19)
(-0.17888 0.599089 -2.20758e-18)
(-0.196328 0.684964 5.84888e-19)
(-0.19385 0.695908 -4.33469e-18)
(-0.187413 0.687432 -2.96183e-18)
(-0.176345 0.671321 -1.66508e-18)
(-0.161588 0.649209 -2.91907e-18)
(-0.141785 0.622542 2.81952e-18)
(-0.117582 0.592585 3.97743e-18)
(-0.0882486 0.561131 7.74156e-18)
(-0.0547614 0.529708 -3.23094e-19)
(-0.0165072 0.499757 8.70862e-18)
(0.0285027 0.471642 3.43897e-18)
(0.0654598 0.446796 2.65761e-18)
(0.141466 0.434291 -5.92776e-18)
(-0.0678286 0.234888 1.35381e-18)
(-0.16345 0.570487 3.35922e-18)
(-0.182097 0.67898 2.30446e-18)
(-0.176626 0.700391 3.01712e-18)
(-0.165739 0.69622 1.13172e-20)
(-0.150036 0.682529 1.1865e-18)
(-0.130401 0.66221 3.44625e-20)
(-0.105529 0.6369 -2.16717e-18)
(-0.0760077 0.607954 3.37229e-18)
(-0.0410521 0.577122 -1.17667e-17)
(-0.00168278 0.546023 3.45517e-18)
(0.0410958 0.516572 -2.2932e-18)
(0.0957158 0.488341 4.50338e-19)
(0.13012 0.460135 -3.38692e-18)
(0.224279 0.457315 -3.79061e-18)
(-0.0498956 0.181095 -2.21134e-18)
(-0.146173 0.533271 2.95004e-18)
(-0.166888 0.666392 -7.39107e-19)
(-0.15926 0.700877 -1.27138e-18)
(-0.144496 0.702178 2.659e-18)
(-0.124635 0.69118 2.7734e-19)
(-0.100545 0.67273 -7.94624e-19)
(-0.0709688 0.648777 -9.39042e-20)
(-0.0365017 0.620856 -2.17444e-18)
(0.00368965 0.590725 5.63282e-18)
(0.0494191 0.559816 3.41237e-18)
(0.0948219 0.53109 1.79215e-18)
(0.16167 0.504129 -1.58482e-19)
(0.189277 0.46912 4.28926e-18)
(0.305085 0.479405 -3.76801e-19)
(-0.0353689 0.125463 6.48577e-19)
(-0.127811 0.486313 -6.98853e-19)
(-0.150809 0.645963 5.52303e-19)
(-0.141883 0.696711 2.35478e-18)
(-0.123875 0.705096 -1.50163e-18)
(-0.100327 0.69729 -9.71906e-19)
(-0.0722515 0.680751 -1.82355e-18)
(-0.0383558 0.658172 1.4337e-18)
(0.000756201 0.631225 -1.49288e-18)
(0.0453894 0.601849 -1.68478e-18)
(0.0987085 0.570817 -2.96346e-18)
(0.143842 0.542403 -1.72452e-18)
(0.226903 0.520171 6.17428e-18)
(0.242458 0.472317 -8.51029e-18)
(0.381213 0.496979 -2.21167e-19)
(-0.0261385 0.0727368 2.78793e-18)
(-0.109109 0.428351 -1.07575e-18)
(-0.133858 0.616334 -2.79851e-18)
(-0.124587 0.686909 -7.44309e-19)
(-0.104043 0.704542 3.91931e-18)
(-0.0773187 0.700725 -8.05809e-20)
(-0.0457215 0.686351 1.87736e-18)
(-0.00794069 0.665023 -1.03208e-18)
(0.0357522 0.638849 -3.97955e-18)
(0.0832746 0.610528 9.22977e-18)
(0.146557 0.57927 -6.7505e-18)
(0.187164 0.548897 1.98786e-18)
(0.291384 0.53765 -8.76732e-18)
(0.292733 0.475243 3.10532e-18)
(0.450998 0.503883 2.52365e-18)
(-0.0197854 0.02867 -9.89728e-19)
(-0.0901432 0.358421 -3.19389e-18)
(-0.115958 0.576263 1.44614e-18)
(-0.107415 0.670072 2.55971e-19)
(-0.0851745 0.699693 -3.52244e-18)
(-0.0557537 0.701263 2.17016e-18)
(-0.0211723 0.6894 1.02282e-19)
(0.019852 0.669502 -5.2725e-19)
(0.0688225 0.643598 -4.03225e-18)
(0.116566 0.61634 -4.86268e-19)
(0.193475 0.586099 5.32298e-18)
(0.224314 0.548701 4.30728e-19)
(0.353321 0.552115 1.25233e-18)
(0.342077 0.484284 3.57593e-18)
(0.517052 0.508044 -9.11839e-18)
(-0.0122205 -0.00282468 -1.51345e-18)
(-0.0712115 0.277204 4.08261e-20)
(-0.0970101 0.524614 -1.82929e-18)
(-0.0904296 0.644363 1.48102e-18)
(-0.0674079 0.689358 1.99015e-18)
(-0.0359127 0.698357 -1.4826e-18)
(0.00138003 0.68982 -2.54904e-19)
(0.0443508 0.671436 -1.20448e-18)
(0.100304 0.645429 3.05495e-18)
(0.144623 0.61869 5.78543e-19)
(0.23999 0.59307 -7.63244e-18)
(0.256276 0.543608 2.04497e-18)
(0.411436 0.557014 1.27973e-18)
(0.389097 0.492128 -5.77354e-18)
(0.580809 0.513763 1.35273e-18)
(-0.00286232 -0.0205768 3.44685e-19)
(-0.054217 0.190419 9.16278e-19)
(-0.0775696 0.460111 1.73381e-18)
(-0.0736396 0.607533 -1.44693e-18)
(-0.0509338 0.671809 -4.84371e-20)
(-0.0180872 0.691191 3.59205e-18)
(0.0218502 0.68704 -1.56247e-19)
(0.0648085 0.671059 1.57356e-20)
(0.130588 0.644365 4.84914e-18)
(0.166631 0.615308 -2.74623e-18)
(0.285829 0.600339 1.96624e-18)
(0.285279 0.53947 -5.47959e-18)
(0.465966 0.55487 4.67434e-19)
(0.433617 0.493922 -1.41535e-18)
(0.641252 0.514693 2.50093e-18)
(0.00532206 -0.0270933 -2.52931e-19)
(-0.0398495 0.110264 1.16312e-18)
(-0.0587608 0.382168 -1.52437e-18)
(-0.0573934 0.557202 3.22097e-18)
(-0.0358698 0.644897 -2.66379e-18)
(-0.00306088 0.678256 -2.36131e-18)
(0.0405197 0.680209 -1.46127e-18)
(0.0801795 0.667298 -3.07339e-18)
(0.159705 0.64248 -5.84862e-18)
(0.182775 0.604504 9.01964e-19)
(0.32836 0.602142 4.49246e-18)
(0.313645 0.537295 3.57124e-18)
(0.515647 0.550263 6.06343e-19)
(0.478596 0.493929 -2.95567e-18)
(0.697236 0.511102 -1.4739e-18)
(0.0104921 -0.027084 6.24733e-19)
(-0.0247303 0.0496797 1.10029e-18)
(-0.041059 0.291235 -4.65861e-18)
(-0.0420574 0.491656 -3.19583e-18)
(-0.0225296 0.605746 -9.41763e-20)
(0.00837351 0.657591 2.49498e-18)
(0.0568353 0.667901 -8.77815e-19)
(0.0902684 0.658274 6.81632e-18)
(0.186289 0.640066 5.79065e-19)
(0.195085 0.590198 -3.64599e-18)
(0.363593 0.593404 -3.43465e-18)
(0.342106 0.531577 -5.43403e-18)
(0.5574 0.539495 5.98387e-18)
(0.523654 0.492299 3.9439e-18)
(0.747568 0.500621 2.97386e-21)
(0.0128071 -0.0242826 -1.73661e-18)
(-0.0075478 0.0116301 -3.23674e-18)
(-0.0257206 0.193193 2.32546e-18)
(-0.028767 0.409852 2.84281e-18)
(-0.0109259 0.551444 1.74846e-18)
(0.0148289 0.625556 -1.7214e-18)
(0.0701932 0.64872 4.35386e-18)
(0.0941627 0.64078 -6.03676e-18)
(0.20754 0.634656 6.58144e-18)
(0.207074 0.57466 4.15245e-18)
(0.385994 0.578421 -1.25004e-18)
(0.370431 0.516952 -1.73681e-18)
(0.585515 0.521134 -2.38454e-18)
(0.565678 0.482733 -4.70822e-18)
(0.792008 0.476956 5.65251e-18)
(0.0134844 -0.0211149 4.92473e-18)
(0.0079189 -0.00832747 3.79352e-18)
(-0.0119555 0.108007 8.6653e-19)
(-0.0187482 0.314939 -4.5495e-20)
(-0.00214112 0.478723 -5.99961e-19)
(0.0162544 0.578899 -7.21114e-19)
(0.0775289 0.619465 -3.39727e-18)
(0.0936491 0.612465 5.74273e-18)
(0.215567 0.620695 -4.3605e-18)
(0.222349 0.554001 -3.24395e-20)
(0.390866 0.560614 4.0864e-18)
(0.40186 0.492314 2.81572e-18)
(0.597364 0.500802 2.83268e-18)
(0.601734 0.459869 -3.45788e-20)
(0.818935 0.443565 -3.36458e-18)
(0.0145084 -0.0183266 -2.9599e-18)
(0.0200977 -0.0166535 -3.07902e-18)
(0.00349693 0.0516073 9.73328e-19)
(-0.0112956 0.217126 -1.56496e-18)
(0.00352289 0.388433 -7.14301e-19)
(0.0112571 0.51128 2.55766e-18)
(0.0768254 0.579521 -6.84065e-19)
(0.0886629 0.568213 -6.04329e-19)
(0.204975 0.593437 -1.74218e-18)
(0.241906 0.52299 -3.85749e-18)
(0.37196 0.533532 1.78827e-18)
(0.448846 0.460252 -2.08565e-18)
(0.585719 0.484724 -3.26602e-18)
(0.638591 0.401845 -1.46367e-18)
(0.839532 0.452585 5.95831e-18)
(0.0169422 -0.0164379 3.35371e-18)
(0.0306692 -0.0194272 -2.6465e-18)
(0.019997 0.0217473 -4.3674e-18)
(-0.00266321 0.134276 4.39747e-19)
(0.00500697 0.29145 1.06681e-18)
(0.00276356 0.421101 -6.98867e-19)
(0.0596389 0.51929 1.94499e-18)
(0.0874436 0.515761 4.10602e-19)
(0.164349 0.53515 -2.70155e-19)
(0.273116 0.49639 1.03891e-19)
(0.313401 0.464798 -1.85616e-18)
(0.523135 0.449927 2.24462e-19)
(0.496316 0.399487 1.04974e-18)
(0.740595 0.389704 -8.2012e-19)
(0.751581 0.378952 5.65949e-18)
(0.0209909 -0.0158106 7.07473e-19)
(0.040443 -0.0204893 -1.51993e-18)
(0.0339494 0.00748213 4.25951e-18)
(0.00828674 0.0792685 3.3167e-18)
(0.00163276 0.202803 -3.31188e-18)
(-0.00648081 0.321529 -1.97786e-19)
(0.0277798 0.431402 -1.4598e-18)
(0.0762111 0.452827 -5.10294e-19)
(0.117301 0.453545 3.63534e-18)
(0.261429 0.439725 1.75558e-18)
(0.269544 0.381513 2.38446e-18)
(0.505913 0.390715 -1.92426e-18)
(0.39692 0.275996 1.28515e-18)
(0.789984 0.364135 -7.47756e-19)
(0.55637 0.213861 -7.22578e-18)
(0.0262014 -0.0165916 5.64128e-19)
(0.0488518 -0.0221832 9.07581e-19)
(0.0430924 -0.000994061 -2.34779e-18)
(0.0168368 0.047288 -2.69587e-18)
(-0.0045614 0.132642 -2.47941e-18)
(-0.0200997 0.229209 2.14872e-19)
(-0.00826841 0.328198 1.7087e-18)
(0.0392946 0.364543 -3.03002e-18)
(0.0780683 0.369085 -1.53459e-18)
(0.195148 0.331585 8.06227e-19)
(0.246911 0.306623 -2.20202e-18)
(0.394383 0.263364 1.94362e-19)
(0.429191 0.226392 1.53411e-18)
(0.73071 0.2795 -2.17148e-18)
(0.662414 0.21625 1.72743e-18)
(0.0315558 -0.0185062 -1.26587e-18)
(0.0542974 -0.0254892 2.8816e-18)
(0.0459587 -0.00959631 1.92042e-18)
(0.0177134 0.0253294 1.29904e-18)
(-0.0143945 0.0810583 2.12458e-18)
(-0.0417383 0.151198 -2.14277e-19)
(-0.0462331 0.226895 -1.61518e-18)
(-0.0162747 0.257748 3.49195e-19)
(0.0265334 0.271847 1.97394e-18)
(0.116468 0.210158 -3.21815e-18)
(0.188988 0.199693 -1.53753e-18)
(0.362945 0.170934 9.05008e-20)
(0.528659 0.216946 -4.59299e-19)
(0.797584 0.263064 2.65443e-18)
(0.996615 0.351017 -2.43605e-18)
(0.0356589 -0.0209116 1.37659e-18)
(0.0550274 -0.0302761 9.16774e-19)
(0.0413054 -0.0203959 -1.16485e-19)
(0.00848712 0.00462496 -8.4333e-19)
(-0.0321594 0.0404484 1.88808e-19)
(-0.0720614 0.085276 -2.49085e-18)
(-0.0910133 0.135012 5.48206e-19)
(-0.0817983 0.146748 -1.07902e-18)
(-0.044856 0.156864 -1.15988e-18)
(0.0407832 0.0950504 2.23657e-18)
(0.189216 0.107814 3.28329e-18)
(0.464133 0.159105 1.58569e-18)
(0.699255 0.234653 1.58792e-18)
(0.988575 0.322804 -2.03427e-18)
(1.10911 0.371026 -2.14264e-18)
(0.0371028 -0.0229746 1.1328e-18)
(0.0498835 -0.0356603 -2.17682e-18)
(0.0287731 -0.0331187 -1.05551e-18)
(-0.0106324 -0.0177599 -2.36244e-18)
(-0.0601513 0.00342381 1.07328e-18)
(-0.112201 0.0274921 2.62649e-18)
(-0.148643 0.0518546 -3.0272e-18)
(-0.157686 0.0399162 1.03745e-18)
(-0.113246 0.0427885 1.85094e-18)
(0.0573407 0.0310018 5.86935e-19)
(0.336999 0.10107 -2.29685e-18)
(0.647594 0.195104 -9.10591e-19)
(0.898475 0.281145 7.17137e-21)
(1.08219 0.340864 1.18254e-18)
(1.16064 0.367374 4.58589e-18)
(0.0348588 -0.0238469 -1.83931e-18)
(0.0386551 -0.0403166 -1.84514e-18)
(0.00910188 -0.0459669 1.03208e-18)
(-0.0382331 -0.0402517 4.20036e-18)
(-0.0977367 -0.0307899 -2.74953e-18)
(-0.162873 -0.0223772 7.93698e-19)
(-0.214458 -0.0200551 1.21087e-18)
(-0.211549 -0.0444253 -9.51363e-20)
(-0.0876783 -0.0204709 2.30064e-19)
(0.220324 0.0474497 1.2349e-18)
(0.553095 0.146764 -1.16529e-18)
(0.827942 0.236863 -2.1839e-18)
(1.0149 0.302279 -1.87631e-18)
(1.13747 0.343388 1.5462e-18)
(1.22417 0.379173 4.59192e-19)
(0.0286209 -0.0228405 -4.50711e-19)
(0.0222726 -0.0425916 3.63144e-18)
(-0.0153718 -0.0558528 7.54112e-19)
(-0.0704529 -0.0581346 1.08767e-18)
(-0.137941 -0.0563566 1.00951e-18)
(-0.208992 -0.0557213 9.91152e-19)
(-0.253356 -0.0609999 -3.62041e-19)
(-0.184556 -0.0735958 6.91277e-19)
(0.0740529 -0.00325742 3.81471e-19)
(0.441127 0.10086 1.66027e-18)
(0.741576 0.190899 2.70285e-20)
(0.956339 0.266192 1.50695e-18)
(1.09673 0.31488 -1.1982e-18)
(1.19838 0.357391 -1.11352e-18)
(1.24649 0.376731 7.45742e-19)
(0.019039 -0.0195969 1.61861e-18)
(0.00281843 -0.0408322 -1.49391e-18)
(-0.0407454 -0.0589859 1.4043e-19)
(-0.0995213 -0.0653614 -2.22455e-18)
(-0.166608 -0.0646332 -1.86523e-18)
(-0.226715 -0.0596987 3.27691e-18)
(-0.239007 -0.0567171 1.04805e-18)
(-0.0649216 -0.0375586 -1.51991e-18)
(0.293752 0.0631694 4.39456e-19)
(0.636552 0.155739 -4.48078e-18)
(0.888798 0.231064 1.48763e-18)
(1.05676 0.291212 -1.72555e-18)
(1.16577 0.332246 1.93215e-18)
(1.22381 0.359343 -2.40376e-19)
(1.25697 0.370344 -1.10546e-18)
(0.00764613 -0.0142959 -2.52202e-18)
(-0.0166857 -0.0341482 -2.56265e-18)
(-0.0622841 -0.053445 -2.639e-18)
(-0.11813 -0.0593631 -1.97832e-18)
(-0.174069 -0.053357 1.35926e-18)
(-0.209158 -0.0365633 -5.6846e-18)
(-0.175527 -0.0260561 5.25373e-19)
(0.120819 0.0392292 5.71575e-19)
(0.495647 0.131549 3.15471e-19)
(0.800425 0.207125 2.1106e-18)
(1.00648 0.267568 -1.68086e-18)
(1.13285 0.314007 3.75339e-18)
(1.20091 0.338995 -7.67625e-19)
(1.24042 0.359112 -1.42286e-18)
(1.26826 0.368381 7.87694e-19)
(-0.00369593 -0.00776395 4.44124e-19)
(-0.0336067 -0.0234458 2.0739e-18)
(-0.0765931 -0.040307 2.94717e-18)
(-0.122988 -0.0419206 5.001e-19)
(-0.158873 -0.0265964 2.37647e-18)
(-0.164584 0.00330246 1.39476e-18)
(-0.0682911 0.0164749 4.45098e-19)
(0.313518 0.111299 -2.54392e-18)
(0.671869 0.191993 -1.6265e-19)
(0.93359 0.25265 1.11355e-18)
(1.09292 0.298098 4.10627e-18)
(1.17949 0.328367 -5.11249e-19)
(1.22719 0.345372 1.29543e-18)
(1.25395 0.361352 1.19025e-18)
(1.27025 0.364304 1.86273e-18)
(-0.0134219 -0.00116688 8.11193e-19)
(-0.0464158 -0.0107159 -2.71061e-18)
(-0.0831113 -0.0227422 -5.95156e-19)
(-0.11541 -0.0187279 4.57498e-20)
(-0.126385 0.00744392 -4.38337e-18)
(-0.108936 0.0414558 1.15525e-18)
(0.0695362 0.0745534 -6.58223e-19)
(0.486957 0.172119 8.04182e-19)
(0.819602 0.244642 2.76719e-18)
(1.03481 0.289907 -9.85343e-19)
(1.15276 0.321378 -3.10712e-18)
(1.21366 0.340606 -4.04077e-19)
(1.24296 0.350474 -4.3677e-19)
(1.25663 0.359905 -9.43815e-19)
(1.26852 0.358822 -2.01707e-18)
(-0.020625 0.00441369 1.69936e-19)
(-0.0547903 0.00166455 7.33312e-19)
(-0.0830744 -0.00485553 -1.88177e-18)
(-0.0987856 0.0036792 8.02363e-19)
(-0.0868461 0.0386086 1.79353e-18)
(-0.0456389 0.0586653 -8.11848e-19)
(0.230775 0.129586 -1.11548e-19)
(0.646096 0.223648 -2.01258e-18)
(0.938714 0.286411 4.03146e-19)
(1.10946 0.318718 -1.57116e-18)
(1.19441 0.339509 1.46127e-18)
(1.23274 0.348531 -1.15827e-18)
(1.24909 0.352624 1.97297e-18)
(1.25856 0.358727 -7.18044e-19)
(1.27006 0.357127 -1.45262e-18)
(-0.0251374 0.00827468 8.63437e-19)
(-0.0592695 0.0116867 5.40372e-19)
(-0.078653 0.00983331 4.88534e-19)
(-0.0770459 0.0215059 1.3786e-19)
(-0.0521286 0.057024 7.83307e-19)
(0.0300831 0.0650813 -1.92465e-18)
(0.402475 0.174849 1.16253e-18)
(0.784929 0.265335 2.87132e-18)
(1.03029 0.318791 -3.50045e-19)
(1.16137 0.340427 2.24846e-18)
(1.21942 0.352243 1.30132e-18)
(1.24362 0.353826 2.36373e-19)
(1.25349 0.355171 3.92808e-19)
(1.25941 0.358664 7.53645e-19)
(1.26533 0.353102 1.70413e-18)
(-0.0274093 0.0102065 1.2961e-18)
(-0.0609 0.0181357 1.83921e-18)
(-0.0719589 0.019096 -1.64205e-18)
(-0.055507 0.0331275 1.49463e-18)
(-0.0248414 0.0525292 -3.37352e-18)
(0.14213 0.087456 8.78813e-19)
(0.566595 0.216896 -2.91562e-19)
(0.900929 0.299545 -1.74433e-18)
(1.09804 0.342529 -3.23271e-18)
(1.19564 0.355544 -1.25929e-18)
(1.23487 0.361169 -3.07662e-18)
(1.24948 0.357663 1.85372e-18)
(1.2536 0.356956 -2.41791e-18)
(1.25604 0.356433 1.59249e-18)
(1.26291 0.350585 1.05532e-18)
(-0.0283031 0.0104392 -3.06436e-18)
(-0.061085 0.0206229 9.84126e-20)
(-0.0647439 0.022707 2.23781e-19)
(-0.0408719 0.0364265 4.06205e-19)
(0.00787226 0.0298055 2.56738e-19)
(0.304936 0.128998 1.59102e-18)
(0.714829 0.253709 9.16776e-19)
(0.992838 0.3254 -2.69758e-19)
(1.14596 0.35912 1.42211e-18)
(1.21716 0.366073 9.22594e-19)
(1.24253 0.367349 4.11078e-19)
(1.25066 0.360074 -1.03398e-18)
(1.25192 0.357959 3.31677e-18)
(1.255 0.35594 5.53563e-19)
(1.25952 0.349189 -1.15424e-18)
(-0.0288185 0.00952329 2.80513e-18)
(-0.0609645 0.0195576 -1.99391e-18)
(-0.0586983 0.0223553 6.38403e-19)
(-0.0348231 0.0269609 -6.04337e-20)
(0.0736208 0.0231124 3.10935e-18)
(0.480719 0.175468 -2.55798e-19)
(0.838882 0.285097 -1.10492e-18)
(1.06248 0.345157 2.7698e-18)
(1.17893 0.370662 2.72803e-19)
(1.22959 0.373026 1.16016e-18)
(1.24558 0.371213 -2.36233e-18)
(1.25023 0.361697 5.51967e-20)
(1.25013 0.35961 -1.02997e-18)
(1.25104 0.354388 -2.0496e-19)
(1.25399 0.34655 -6.63618e-19)
(-0.0298858 0.00794494 -7.49477e-19)
(-0.0611516 0.015916 2.07375e-18)
(-0.0566361 0.0199983 1.24107e-18)
(-0.0249236 0.00457991 9.77188e-19)
(0.20133 0.0632614 -5.06147e-19)
(0.634486 0.218035 -2.11702e-19)
(0.938382 0.310952 1.40517e-18)
(1.11434 0.359534 -1.1743e-18)
(1.20062 0.378095 3.64568e-19)
(1.23587 0.377461 -1.96703e-18)
(1.24562 0.373847 1.47731e-19)
(1.24799 0.363183 2.87986e-19)
(1.24619 0.360245 -4.25153e-19)
(1.24777 0.353113 -2.4718e-18)
(1.25085 0.346348 1.01662e-18)
(-0.0320891 0.00604655 -1.31144e-18)
(-0.06197 0.0120195 -1.63287e-18)
(-0.0592672 0.013942 8.61166e-19)
(0.0113406 -0.0179517 -1.14942e-19)
(0.374496 0.123369 -1.26858e-18)
(0.76596 0.253756 -6.08639e-20)
(1.01617 0.331517 -9.8265e-19)
(1.15163 0.370224 -2.01835e-18)
(1.21424 0.383133 -8.56867e-19)
(1.23822 0.380437 8.03851e-19)
(1.24375 0.375463 7.30976e-19)
(1.24475 0.363969 -7.79244e-20)
(1.24313 0.361387 -1.1348e-18)
(1.24411 0.352243 2.0369e-18)
(1.24456 0.344805 6.16669e-19)
(-0.0354484 0.00423803 1.28839e-18)
(-0.0634823 0.00993099 2.49442e-21)
(-0.0614301 0.00300484 -2.10659e-18)
(0.0874276 -0.00445664 -4.40977e-20)
(0.533497 0.173611 3.13304e-19)
(0.873257 0.28413 5.67919e-19)
(1.0755 0.348269 -1.04205e-18)
(1.17803 0.37808 5.56937e-19)
(1.22225 0.386301 -2.35954e-20)
(1.2379 0.382222 6.42976e-19)
(1.24078 0.376487 -5.76432e-19)
(1.24124 0.365177 -1.60152e-18)
(1.23866 0.362034 -7.38856e-20)
(1.23949 0.350856 -9.80168e-19)
(1.24047 0.344954 -8.32168e-19)
(-0.0395287 0.00282353 5.24245e-19)
(-0.0661813 0.00945792 -1.06903e-18)
(-0.0521807 -0.0127674 1.07622e-18)
(0.210298 0.0540254 -3.32918e-19)
(0.663835 0.216401 -1.79493e-19)
(0.959475 0.310419 -5.19933e-19)
(1.12045 0.361825 8.15962e-19)
(1.19596 0.383966 5.43843e-19)
(1.2262 0.388549 -3.30082e-19)
(1.23608 0.383641 -9.47982e-19)
(1.23724 0.377372 -3.43753e-19)
(1.23691 0.365879 1.6334e-18)
(1.23462 0.362676 9.88334e-19)
(1.23566 0.350381 9.61929e-19)
(1.23442 0.344661 -2.9078e-19)
(-0.0437415 0.00275544 -3.29108e-19)
(-0.0707668 0.00754169 1.17172e-19)
(-0.0185167 -0.027725 -4.44873e-19)
(0.366325 0.117391 -1.10297e-20)
(0.778717 0.251986 -3.37287e-19)
(1.02778 0.331743 -5.0788e-19)
(1.1533 0.37276 1.78308e-19)
(1.20768 0.388522 -1.07779e-18)
(1.22762 0.390201 9.75826e-19)
(1.23326 0.384649 1.26048e-18)
(1.23316 0.377918 1.60855e-19)
(1.23276 0.366999 -1.4053e-18)
(1.23005 0.363314 -1.3552e-18)
(1.23046 0.349432 -1.01254e-18)
(1.22933 0.345066 4.01618e-19)
(-0.0471203 0.00549049 -1.06436e-18)
(-0.0753951 0.00351531 2.9117e-19)
(0.0436748 -0.0213358 -2.10166e-19)
(0.511659 0.16585 -7.16014e-21)
(0.874716 0.282637 -8.96986e-20)
(1.08034 0.349992 -1.97324e-19)
(1.1768 0.381798 3.61359e-19)
(1.2148 0.392253 -2.10596e-19)
(1.22709 0.391678 -2.80704e-19)
(1.22985 0.385724 -5.41443e-19)
(1.22905 0.378764 -4.80804e-19)
(1.22802 0.3679 -2.17954e-19)
(1.22535 0.363703 8.40025e-19)
(1.22613 0.349317 -3.13964e-20)
(1.22356 0.345626 6.4262e-19)
(-0.0491249 0.011243 4.42549e-19)
(-0.0757133 -0.00324427 7.51818e-19)
(0.13083 0.0159586 1.2158e-19)
(0.628968 0.2073 4.62523e-19)
(0.953208 0.310747 1.00105e-18)
(1.12108 0.365617 3.63962e-19)
(1.19314 0.389244 1.35144e-18)
(1.21858 0.39543 7.18145e-19)
(1.2255 0.39313 4.58323e-19)
(1.22612 0.386799 1.05869e-18)
(1.22457 0.379409 3.29782e-19)
(1.22344 0.369033 5.99208e-19)
(1.22064 0.364327 2.95396e-19)
(1.22067 0.348998 1.37503e-19)
(1.21784 0.34626 4.42132e-19)
(-0.0504594 0.0171 6.18467e-19)
(-0.064542 -0.0131862 -1.06416e-18)
(0.246122 0.0712593 -2.00888e-19)
(0.73161 0.243398 4.79992e-19)
(1.01664 0.334374 -1.01074e-18)
(1.15146 0.378785 -4.10351e-19)
(1.20399 0.395628 -8.3538e-19)
(1.22004 0.398403 -2.86425e-20)
(1.22296 0.394738 -2.28517e-19)
(1.22206 0.38807 -8.88707e-19)
(1.22014 0.380494 6.75156e-19)
(1.21848 0.370194 5.02302e-20)
(1.21552 0.364719 -2.90313e-20)
(1.21577 0.349293 2.3917e-19)
(1.21217 0.347213 -5.43749e-19)
(-0.0521799 0.0189802 -4.52051e-20)
(-0.0379536 -0.0207933 4.62982e-19)
(0.375904 0.123989 1.23599e-19)
(0.820459 0.273579 -6.70979e-19)
(1.06618 0.354238 4.47098e-19)
(1.17356 0.389959 1.42435e-19)
(1.21078 0.401258 -3.73839e-19)
(1.2198 0.401307 -1.77661e-19)
(1.21995 0.396547 -5.41189e-19)
(1.21792 0.389531 9.66727e-20)
(1.21541 0.381495 -6.52503e-19)
(1.21353 0.371433 -4.60144e-19)
(1.21055 0.365405 1.21737e-19)
(1.21012 0.349563 1.24861e-19)
(1.20615 0.347926 -2.16153e-19)
(-0.0546587 0.0139093 -2.29808e-19)
(0.00424501 -0.0198132 -1.45785e-19)
(0.499089 0.169296 3.23585e-19)
(0.89818 0.301239 5.77224e-19)
(1.10545 0.370994 1.11853e-19)
(1.18909 0.399326 -3.07507e-19)
(1.21441 0.406338 3.8706e-19)
(1.21838 0.404326 3.38023e-19)
(1.21644 0.398651 1.76264e-19)
(1.21347 0.391213 3.37565e-20)
(1.21066 0.382922 2.09383e-19)
(1.20832 0.372844 9.26271e-20)
(1.20509 0.365968 -6.4119e-20)
(1.20472 0.350245 -8.03293e-20)
(1.20044 0.348952 7.00946e-20)
(-0.0576664 0.000651316 -1.07409e-19)
(0.0628014 -0.00875584 -1.25876e-19)
(0.60562 0.2083 1.0311e-19)
(0.964578 0.326933 -1.37435e-19)
(1.1361 0.385812 -2.91465e-19)
(1.19955 0.407501 2.2196e-20)
(1.2157 0.411112 1.78924e-19)
(1.21599 0.407486 -1.61714e-19)
(1.2126 0.401019 1.07205e-19)
(1.20895 0.393161 2.16223e-19)
(1.20563 0.384359 3.45335e-20)
(1.20299 0.374261 8.58245e-20)
(1.19978 0.366799 -1.03015e-19)
(1.19886 0.350961 6.98855e-20)