/*--------------------------------*- C++ -*----------------------------------*\
  =========                 |
  \\      /  F ield         | OpenFOAM: The Open Source CFD Toolbox
   \\    /   O peration     | Website:  https://openfoam.org
    \\  /    A nd           | Version:  7
     \\/     M anipulation  |
\*---------------------------------------------------------------------------*/
FoamFile
{
    version     2.0;
    format      ascii;
    class       volScalarField;
    location    "39.9993";
    object      p;
}
// * * * * * * * * * * * * * * * * * * * * * * * * * * * * * * * * * * * * * //

dimensions      [0 2 -2 0 0 0 0];

internalField   nonuniform List<scalar> 
18750
(
-0.766433
-0.74968
-0.732261
-0.722346
-0.720024
-0.724499
-0.734974
-0.75101
-0.770896
-0.794179
-0.819996
-0.847583
-0.876379
-0.906005
-0.936264
-0.771257
-0.756725
-0.741145
-0.732697
-0.731573
-0.736997
-0.74836
-0.764903
-0.785511
-0.809395
-0.835869
-0.864081
-0.893543
-0.923996
-0.955144
-0.773538
-0.761396
-0.747821
-0.740946
-0.741081
-0.747553
-0.759734
-0.776922
-0.79818
-0.822655
-0.849664
-0.878464
-0.908503
-0.939701
-0.971614
-0.773524
-0.763846
-0.752386
-0.74716
-0.748588
-0.756118
-0.769126
-0.786999
-0.808846
-0.833879
-0.861406
-0.890738
-0.92136
-0.953026
-0.985425
-0.771556
-0.764306
-0.754979
-0.751412
-0.754142
-0.762708
-0.776555
-0.795086
-0.817499
-0.843057
-0.871053
-0.900857
-0.931963
-0.964009
-0.996681
-0.768044
-0.763058
-0.755776
-0.753796
-0.757796
-0.767375
-0.782036
-0.801195
-0.824143
-0.850166
-0.878582
-0.908797
-0.940305
-0.972659
-1.00556
-0.763447
-0.76041
-0.754959
-0.754422
-0.759621
-0.770178
-0.785604
-0.805353
-0.828777
-0.855202
-0.883984
-0.914546
-0.946384
-0.978997
-1.01209
-0.758224
-0.75666
-0.752686
-0.753389
-0.759699
-0.771183
-0.787313
-0.807585
-0.831414
-0.858177
-0.887259
-0.9181
-0.950205
-0.983039
-1.01629
-0.752768
-0.752038
-0.749066
-0.750789
-0.758126
-0.770465
-0.787219
-0.807927
-0.832079
-0.859102
-0.888411
-0.919461
-0.951775
-0.984801
-1.01815
-0.747313
-0.746603
-0.74415
-0.74672
-0.755009
-0.768111
-0.78538
-0.806421
-0.830799
-0.857991
-0.887448
-0.918638
-0.951098
-0.984294
-1.01767
-0.741837
-0.740173
-0.737938
-0.74131
-0.750474
-0.764209
-0.781861
-0.803115
-0.827606
-0.854864
-0.884381
-0.915638
-0.948175
-0.981529
-1.01486
-0.736042
-0.732376
-0.73046
-0.734732
-0.744658
-0.758852
-0.776733
-0.798064
-0.822539
-0.849743
-0.87922
-0.910473
-0.943004
-0.976512
-1.00969
-0.729457
-0.722938
-0.721906
-0.727219
-0.737696
-0.752131
-0.770075
-0.79133
-0.815639
-0.842652
-0.871974
-0.903159
-0.935588
-0.969238
-1.00217
-0.721627
-0.712038
-0.712746
-0.719029
-0.729716
-0.744154
-0.761984
-0.782989
-0.806955
-0.833616
-0.862649
-0.893711
-0.92594
-0.95971
-0.992356
-0.7125
-0.700487
-0.703644
-0.710367
-0.720845
-0.735058
-0.752582
-0.773123
-0.796537
-0.822667
-0.851249
-0.882141
-0.914081
-0.947944
-0.980305
-0.702506
-0.689745
-0.694937
-0.701326
-0.71125
-0.725036
-0.742016
-0.761829
-0.784437
-0.809837
-0.837777
-0.868447
-0.900029
-0.933974
-0.966083
-0.6924
-0.681148
-0.686567
-0.691983
-0.701199
-0.714338
-0.730459
-0.74921
-0.770709
-0.795167
-0.822242
-0.852621
-0.88379
-0.917813
-0.949763
-0.682978
-0.674972
-0.67826
-0.682599
-0.691079
-0.703255
-0.718099
-0.735386
-0.755412
-0.778696
-0.804662
-0.83466
-0.865365
-0.899439
-0.93138
-0.674815
-0.670459
-0.669996
-0.673685
-0.681337
-0.692092
-0.705146
-0.720501
-0.738611
-0.760462
-0.78506
-0.814578
-0.844788
-0.878845
-0.910908
-0.668009
-0.666299
-0.662291
-0.66584
-0.672358
-0.681143
-0.691836
-0.704733
-0.720392
-0.740501
-0.763463
-0.792385
-0.822127
-0.856105
-0.888366
-0.662504
-0.661853
-0.65605
-0.659433
-0.66436
-0.670707
-0.678445
-0.688295
-0.700879
-0.718868
-0.739909
-0.768078
-0.797441
-0.831352
-0.863889
-0.657922
-0.657144
-0.651964
-0.654185
-0.657423
-0.661103
-0.665278
-0.671442
-0.680245
-0.695651
-0.714479
-0.741674
-0.770746
-0.804732
-0.837664
-0.653929
-0.652624
-0.649448
-0.649685
-0.651651
-0.652651
-0.652656
-0.654465
-0.65874
-0.670997
-0.687336
-0.713281
-0.742092
-0.776421
-0.809903
-0.650305
-0.648692
-0.647077
-0.646008
-0.647167
-0.645596
-0.640897
-0.637693
-0.636707
-0.645143
-0.658747
-0.683179
-0.711655
-0.746716
-0.780919
-0.646891
-0.645352
-0.64444
-0.643432
-0.6439
-0.640015
-0.630309
-0.621484
-0.614593
-0.618448
-0.629121
-0.651835
-0.679912
-0.716157
-0.751191
-0.643538
-0.642278
-0.641706
-0.641762
-0.641564
-0.635791
-0.621166
-0.606193
-0.59295
-0.59141
-0.599039
-0.619743
-0.647813
-0.685682
-0.721394
-0.640089
-0.639182
-0.63901
-0.640317
-0.639852
-0.632605
-0.613643
-0.592119
-0.572499
-0.564613
-0.569419
-0.587271
-0.616651
-0.655771
-0.693242
-0.636391
-0.635882
-0.636282
-0.638517
-0.638418
-0.629977
-0.607705
-0.579441
-0.554135
-0.538742
-0.54166
-0.554959
-0.588218
-0.626434
-0.669408
-0.632316
-0.632233
-0.633295
-0.636139
-0.636716
-0.62741
-0.603039
-0.568335
-0.538495
-0.515476
-0.516575
-0.525264
-0.563428
-0.597809
-0.650711
-0.627772
-0.628131
-0.629809
-0.633065
-0.634218
-0.624531
-0.599076
-0.559228
-0.525616
-0.497245
-0.494
-0.502901
-0.541485
-0.576521
-0.635098
-0.622721
-0.623514
-0.625719
-0.629262
-0.630529
-0.621024
-0.595314
-0.552649
-0.515518
-0.484713
-0.475641
-0.48777
-0.520755
-0.563787
-0.616374
-0.617186
-0.618382
-0.620975
-0.624659
-0.625869
-0.61679
-0.591649
-0.548649
-0.50892
-0.47711
-0.464523
-0.477941
-0.506625
-0.55172
-0.594459
-0.611278
-0.612805
-0.615611
-0.619325
-0.620454
-0.611966
-0.58786
-0.547188
-0.506369
-0.474354
-0.460967
-0.472646
-0.499994
-0.538843
-0.576984
-0.605205
-0.606966
-0.609798
-0.613417
-0.614489
-0.606904
-0.584877
-0.547776
-0.507773
-0.476713
-0.464001
-0.473008
-0.496845
-0.529508
-0.56256
-0.599286
-0.601169
-0.603851
-0.607246
-0.60828
-0.602034
-0.583367
-0.551416
-0.513987
-0.483277
-0.472239
-0.477361
-0.496787
-0.522779
-0.550457
-0.593927
-0.595826
-0.598231
-0.601305
-0.602375
-0.598089
-0.584474
-0.559194
-0.524152
-0.495087
-0.482469
-0.484175
-0.498078
-0.51782
-0.540476
-0.589545
-0.591393
-0.59348
-0.596138
-0.597601
-0.59596
-0.589094
-0.569996
-0.537653
-0.50884
-0.493508
-0.491266
-0.499932
-0.514216
-0.531684
-0.586452
-0.588232
-0.590101
-0.592687
-0.594765
-0.595974
-0.596883
-0.579192
-0.551823
-0.521912
-0.5038
-0.497766
-0.501759
-0.510904
-0.523928
-0.584755
-0.586486
-0.588287
-0.590979
-0.593937
-0.597691
-0.603808
-0.588542
-0.562272
-0.532706
-0.512588
-0.503134
-0.502956
-0.507859
-0.516791
-0.584409
-0.58606
-0.587885
-0.590743
-0.594496
-0.600915
-0.603648
-0.595824
-0.56931
-0.54059
-0.519299
-0.507081
-0.503511
-0.504616
-0.510058
-0.585034
-0.58661
-0.588469
-0.59138
-0.595261
-0.604387
-0.601597
-0.597261
-0.572958
-0.545582
-0.523826
-0.50964
-0.503162
-0.501135
-0.503622
-0.586332
-0.587769
-0.58954
-0.592242
-0.596346
-0.603555
-0.601906
-0.594993
-0.573408
-0.547955
-0.526306
-0.510748
-0.502018
-0.497322
-0.497222
-0.587981
-0.589214
-0.590741
-0.592809
-0.598423
-0.597376
-0.601261
-0.591768
-0.571611
-0.548088
-0.526917
-0.510604
-0.500038
-0.493075
-0.490798
-0.589736
-0.590721
-0.5918
-0.593041
-0.600023
-0.593898
-0.59761
-0.58745
-0.568331
-0.546456
-0.52599
-0.509273
-0.497322
-0.4885
-0.484188
-0.591455
-0.592205
-0.592482
-0.594311
-0.597108
-0.595469
-0.593478
-0.582372
-0.564117
-0.543558
-0.523775
-0.506962
-0.493953
-0.483563
-0.477473
-0.593085
-0.593648
-0.592717
-0.597235
-0.589729
-0.595536
-0.589809
-0.577054
-0.55928
-0.539723
-0.520595
-0.503794
-0.489984
-0.478404
-0.470756
-0.59466
-0.594863
-0.593188
-0.599341
-0.587057
-0.592411
-0.585579
-0.571763
-0.554157
-0.535284
-0.516652
-0.499929
-0.485521
-0.472988
-0.46411
-0.596281
-0.595737
-0.595269
-0.597298
-0.591901
-0.589732
-0.580951
-0.566436
-0.548874
-0.530407
-0.512153
-0.495488
-0.480587
-0.467376
-0.457526
-0.598048
-0.596373
-0.599466
-0.590693
-0.595356
-0.588153
-0.576429
-0.561094
-0.543502
-0.525268
-0.507227
-0.490569
-0.475286
-0.461554
-0.450897
-0.599876
-0.597105
-0.603809
-0.585595
-0.593647
-0.585895
-0.572241
-0.555913
-0.538099
-0.519912
-0.501974
-0.485269
-0.469636
-0.455529
-0.44418
-0.601598
-0.598817
-0.605084
-0.589614
-0.591204
-0.582807
-0.56807
-0.550863
-0.532693
-0.514422
-0.496467
-0.479644
-0.463712
-0.449298
-0.43729
-0.603308
-0.602712
-0.602509
-0.599475
-0.591487
-0.579598
-0.563753
-0.545863
-0.527298
-0.508812
-0.490746
-0.473756
-0.457528
-0.442843
-0.43022
-0.6051
-0.609044
-0.596098
-0.60489
-0.592634
-0.576908
-0.559474
-0.54087
-0.52188
-0.503112
-0.48485
-0.46763
-0.451125
-0.436174
-0.422933
-0.607005
-0.615741
-0.59157
-0.603533
-0.592249
-0.574486
-0.555427
-0.53595
-0.516451
-0.497316
-0.478786
-0.461299
-0.444505
-0.429278
-0.415443
-0.609392
-0.62045
-0.59505
-0.599982
-0.58996
-0.571772
-0.551542
-0.531127
-0.511004
-0.491427
-0.472571
-0.454766
-0.437681
-0.422172
-0.40775
-0.612732
-0.621792
-0.60614
-0.599285
-0.586998
-0.56854
-0.547594
-0.526344
-0.505538
-0.48544
-0.466192
-0.448043
-0.430655
-0.414846
-0.39989
-0.617458
-0.619251
-0.617762
-0.602332
-0.585003
-0.565107
-0.543461
-0.521486
-0.499994
-0.479332
-0.459652
-0.441122
-0.423427
-0.407326
-0.391893
-0.624606
-0.614556
-0.625751
-0.606715
-0.584429
-0.561963
-0.539192
-0.516464
-0.494307
-0.473068
-0.452922
-0.433999
-0.415996
-0.399611
-0.383797
-0.635232
-0.612845
-0.629277
-0.610476
-0.584682
-0.559311
-0.534916
-0.511253
-0.488406
-0.466595
-0.445983
-0.426658
-0.408355
-0.391722
-0.375624
-0.648721
-0.619037
-0.630466
-0.612682
-0.58488
-0.556934
-0.530668
-0.505859
-0.482256
-0.459871
-0.438797
-0.419082
-0.400498
-0.383649
-0.367362
-0.66332
-0.634374
-0.632552
-0.613296
-0.584283
-0.55439
-0.526343
-0.500274
-0.475834
-0.452859
-0.431336
-0.41125
-0.39241
-0.375388
-0.358966
-0.677326
-0.654675
-0.63721
-0.612955
-0.582546
-0.551257
-0.521733
-0.494437
-0.469123
-0.44554
-0.423572
-0.403137
-0.384073
-0.366907
-0.350368
-0.688064
-0.672925
-0.643473
-0.61234
-0.579727
-0.547299
-0.516636
-0.488261
-0.46209
-0.43789
-0.415483
-0.39472
-0.375459
-0.358177
-0.341531
-0.693485
-0.68507
-0.648524
-0.61146
-0.57612
-0.542504
-0.510925
-0.481651
-0.454694
-0.429892
-0.407047
-0.385973
-0.366537
-0.349163
-0.332437
-0.693237
-0.690364
-0.650944
-0.609887
-0.571941
-0.537
-0.504575
-0.474539
-0.446884
-0.421514
-0.398247
-0.376869
-0.357268
-0.339832
-0.323078
-0.689894
-0.690223
-0.650585
-0.607291
-0.567234
-0.530916
-0.497618
-0.466889
-0.438619
-0.412732
-0.38906
-0.367386
-0.347626
-0.330143
-0.31342
-0.685748
-0.686921
-0.647921
-0.60355
-0.561942
-0.524308
-0.490097
-0.458695
-0.429867
-0.403511
-0.379464
-0.357508
-0.337588
-0.32006
-0.30339
-0.682558
-0.68242
-0.643651
-0.59873
-0.555991
-0.517171
-0.482034
-0.449957
-0.420607
-0.393827
-0.369437
-0.347222
-0.327157
-0.309573
-0.292857
-0.681081
-0.677824
-0.638368
-0.59296
-0.549331
-0.509466
-0.473425
-0.440671
-0.410821
-0.383653
-0.358956
-0.336518
-0.316347
-0.298721
-0.281672
-0.681329
-0.673612
-0.632497
-0.586387
-0.541943
-0.50114
-0.464238
-0.430822
-0.400492
-0.37297
-0.348
-0.325384
-0.305174
-0.287585
-0.269738
-0.682884
-0.669907
-0.626271
-0.579108
-0.53381
-0.492133
-0.454427
-0.420381
-0.389601
-0.36176
-0.336559
-0.313815
-0.293643
-0.276218
-0.25714
-0.685076
-0.666644
-0.61978
-0.571167
-0.524906
-0.482384
-0.443936
-0.40931
-0.378125
-0.350015
-0.324638
-0.301831
-0.281763
-0.264533
-0.244211
-0.687153
-0.663561
-0.61296
-0.562538
-0.515184
-0.471834
-0.432711
-0.397574
-0.366049
-0.337734
-0.312251
-0.289468
-0.269575
-0.252278
-0.231344
-0.688486
-0.66009
-0.605614
-0.553144
-0.504588
-0.460427
-0.420704
-0.385145
-0.353365
-0.324922
-0.29942
-0.276763
-0.257117
-0.239346
-0.218563
-0.688573
-0.655561
-0.59745
-0.542858
-0.493054
-0.448115
-0.407884
-0.372015
-0.340078
-0.311588
-0.286158
-0.26371
-0.24425
-0.225921
-0.205742
-0.686968
-0.649514
-0.588171
-0.531538
-0.480515
-0.434865
-0.394247
-0.358192
-0.326194
-0.297731
-0.272439
-0.250263
-0.230898
-0.212176
-0.192775
-0.68332
-0.641644
-0.577519
-0.519041
-0.46691
-0.420666
-0.379807
-0.343685
-0.311689
-0.283318
-0.258256
-0.236378
-0.217057
-0.198203
-0.179625
-0.67736
-0.631746
-0.56529
-0.505246
-0.4522
-0.405536
-0.364579
-0.328445
-0.296528
-0.268347
-0.2436
-0.222039
-0.202774
-0.184023
-0.166295
-0.668906
-0.6197
-0.551335
-0.490062
-0.436383
-0.389497
-0.348491
-0.312439
-0.280708
-0.252824
-0.228465
-0.207248
-0.188111
-0.169617
-0.152799
-0.657856
-0.605472
-0.535546
-0.473444
-0.41947
-0.372468
-0.331509
-0.295661
-0.264236
-0.236758
-0.21286
-0.192024
-0.173096
-0.154972
-0.139152
-0.644169
-0.589109
-0.51786
-0.455392
-0.401377
-0.354401
-0.313632
-0.278116
-0.247125
-0.220164
-0.196805
-0.17639
-0.157736
-0.140078
-0.1254
-0.627853
-0.570701
-0.498285
-0.435881
-0.382015
-0.335284
-0.294867
-0.259819
-0.229389
-0.203061
-0.180323
-0.160375
-0.142048
-0.124935
-0.111596
-0.608957
-0.550282
-0.47695
-0.414806
-0.361378
-0.315127
-0.275232
-0.240788
-0.211047
-0.185462
-0.163426
-0.143999
-0.126075
-0.109604
-0.0977521
-0.587572
-0.527714
-0.453988
-0.392223
-0.339494
-0.293949
-0.25475
-0.221048
-0.192115
-0.167373
-0.146105
-0.127262
-0.109878
-0.0942488
-0.0839494
-0.563846
-0.502692
-0.429577
-0.368289
-0.316427
-0.271786
-0.233451
-0.200627
-0.172614
-0.148789
-0.128327
-0.110134
-0.0935098
-0.079148
-0.0706189
-0.537961
-0.475097
-0.403768
-0.343162
-0.292265
-0.248685
-0.211372
-0.179559
-0.152563
-0.129703
-0.110051
-0.0925779
-0.0770031
-0.0645914
-0.0585106
-0.510049
-0.44531
-0.376397
-0.316923
-0.267105
-0.22471
-0.188562
-0.157883
-0.131985
-0.110111
-0.0912618
-0.0745993
-0.0603889
-0.0506674
-0.0479912
-0.4801
-0.413901
-0.347475
-0.28959
-0.241026
-0.199934
-0.165076
-0.135641
-0.110904
-0.0900305
-0.072002
-0.0562838
-0.0437151
-0.037069
-0.0382006
-0.448058
-0.381386
-0.317179
-0.261178
-0.214096
-0.174435
-0.140977
-0.112878
-0.0893556
-0.0695056
-0.0523773
-0.0377832
-0.0270523
-0.0231319
-0.0267957
-0.414031
-0.347967
-0.285734
-0.231761
-0.186378
-0.148286
-0.116331
-0.0896451
-0.0673834
-0.0486079
-0.0325161
-0.0192536
-0.0104304
-0.00825802
-0.0110371
-0.378305
-0.313595
-0.253321
-0.201461
-0.157949
-0.121564
-0.0912068
-0.066
-0.0450484
-0.0274279
-0.0125346
-0.000771746
0.00628168
0.00758913
0.0101203
-0.341148
-0.278263
-0.220078
-0.170414
-0.128902
-0.0943445
-0.065674
-0.0420073
-0.022425
-0.00606175
0.00748872
0.0176846
0.0232795
0.0244281
0.0308693
-0.302799
-0.242047
-0.186125
-0.13875
-0.0993404
-0.0667115
-0.0398055
-0.0177386
0.000405465
0.0154055
0.0275164
0.0361944
0.0406572
0.0421393
0.0505883
-0.263471
-0.205072
-0.151577
-0.106591
-0.0693704
-0.0387521
-0.0136785
0.00672982
0.0233633
0.03691
0.0475365
0.0547897
0.0583087
0.06011
0.0692035
-0.223366
-0.16749
-0.116559
-0.0740563
-0.0390985
-0.0105571
0.012626
0.0313196
0.0463758
0.0584058
0.0675439
0.0734705
0.0761819
0.0781365
0.0868817
-0.182673
-0.129461
-0.0812027
-0.0412619
-0.00863061
0.0177803
0.0390244
0.0559532
0.0693784
0.0798542
0.0875155
0.0921654
0.0940609
0.0958483
0.103789
-0.141578
-0.0911442
-0.0456422
-0.00832559
0.021928
0.0461663
0.0654322
0.0805559
0.0923116
0.101217
0.107423
0.11084
0.111901
0.11323
0.120042
-0.100261
-0.0526982
-0.0100135
0.0246347
0.0524726
0.074507
0.0917656
0.105055
0.115118
0.122446
0.127208
0.129386
0.129526
0.130178
0.135739
-0.0588972
-0.014277
0.0255488
0.0575014
0.082899
0.102709
0.117942
0.12938
0.13774
0.143497
0.146833
0.147783
0.146945
0.146729
0.150942
-0.0176585
0.0239695
0.0609124
0.0901581
0.113104
0.130682
0.143881
0.153461
0.160118
0.164309
0.166219
0.16592
0.16405
0.162897
0.165776
0.0232893
0.0618957
0.0959484
0.122491
0.142987
0.158335
0.169503
0.177231
0.182195
0.184836
0.185339
0.183794
0.180849
0.178684
0.18029
0.0637855
0.0993607
0.130531
0.154387
0.172449
0.18558
0.194731
0.200622
0.203906
0.205008
0.204108
0.201316
0.197301
0.19415
0.194524
0.103675
0.136229
0.16454
0.18574
0.201394
0.212333
0.219491
0.223567
0.225197
0.224787
0.222507
0.218476
0.21338
0.209238
0.208444
0.142808
0.172369
0.197858
0.216445
0.229727
0.23851
0.243707
0.246
0.246002
0.2441
0.24046
0.235222
0.229088
0.223987
0.222032
0.181044
0.207656
0.230374
0.246401
0.257361
0.264032
0.267311
0.26786
0.266273
0.262915
0.257947
0.25152
0.244361
0.238319
0.235243
0.218245
0.241971
0.261979
0.275512
0.284208
0.288823
0.290232
0.289082
0.285944
0.281168
0.274911
0.267349
0.259211
0.252241
0.248044
0.254282
0.275199
0.292574
0.303688
0.310189
0.312809
0.312408
0.309612
0.304974
0.298824
0.291318
0.282652
0.273568
0.265698
0.260404
0.289035
0.307234
0.322061
0.330841
0.335223
0.33592
0.333773
0.32939
0.323304
0.315832
0.307136
0.297423
0.287428
0.278666
0.27229
0.322388
0.337976
0.35035
0.356891
0.35924
0.358093
0.354272
0.348368
0.340894
0.332154
0.322314
0.311603
0.300742
0.291117
0.28368
0.354237
0.36733
0.377358
0.381762
0.382171
0.379264
0.373846
0.366492
0.357696
0.347754
0.336836
0.32518
0.313488
0.303018
0.29455
0.38448
0.395209
0.403006
0.405383
0.403952
0.399378
0.392448
0.383719
0.37367
0.362589
0.350653
0.338113
0.325637
0.314351
0.30488
0.41303
0.421534
0.427222
0.42769
0.424525
0.418382
0.410028
0.400007
0.388781
0.376633
0.363747
0.350379
0.337161
0.325091
0.314656
0.439802
0.446232
0.449942
0.448624
0.443838
0.436228
0.426545
0.415315
0.40299
0.389849
0.376085
0.361953
0.348041
0.335219
0.323862
0.464722
0.469237
0.471106
0.468132
0.461842
0.452873
0.441959
0.429613
0.416272
0.402215
0.387642
0.37281
0.358254
0.344719
0.332484
0.487726
0.490493
0.490663
0.486167
0.478497
0.468279
0.456236
0.442865
0.428594
0.413703
0.398398
0.382931
0.367779
0.353572
0.340509
0.508754
0.50995
0.508569
0.50269
0.493764
0.482414
0.469347
0.455048
0.439936
0.424291
0.40833
0.392293
0.376597
0.361759
0.347927
0.527758
0.527567
0.524788
0.517666
0.507613
0.495248
0.481266
0.466138
0.450274
0.433959
0.417419
0.400879
0.384688
0.369268
0.354736
0.544695
0.543315
0.53929
0.531067
0.520019
0.50676
0.491972
0.476116
0.459594
0.442694
0.425651
0.408673
0.392045
0.376098
0.360946
0.55954
0.557166
0.55205
0.542869
0.53096
0.516929
0.501449
0.484969
0.467884
0.450484
0.433015
0.415673
0.398674
0.382267
0.366577
0.572292
0.569087
0.563048
0.553055
0.540421
0.525744
0.509686
0.492687
0.475134
0.457321
0.439505
0.421878
0.404592
0.387807
0.371653
0.582951
0.579056
0.572267
0.561613
0.548392
0.533195
0.516674
0.499262
0.481338
0.463198
0.445113
0.427277
0.409795
0.392728
0.37618
0.591515
0.58707
0.5797
0.568539
0.554869
0.539279
0.52241
0.504691
0.486493
0.468111
0.449829
0.431853
0.414254
0.397002
0.380148
0.597983
0.593135
0.585351
0.573833
0.559854
0.543997
0.526898
0.508978
0.490602
0.472062
0.453653
0.435597
0.417948
0.400603
0.383551
0.602366
0.597262
0.589228
0.577504
0.563354
0.547356
0.530141
0.512126
0.49367
0.475059
0.456592
0.43851
0.420873
0.403524
0.386386
0.604679
0.599471
0.591348
0.579565
0.565381
0.549367
0.53215
0.514144
0.495704
0.477107
0.458651
0.440597
0.423031
0.405772
0.388657
0.604946
0.599785
0.59173
0.580037
0.565953
0.550046
0.532939
0.515045
0.496715
0.478218
0.459845
0.44187
0.424423
0.407336
0.390353
0.603205
0.598236
0.590406
0.578945
0.565092
0.549413
0.532526
0.514844
0.496716
0.478405
0.460188
0.442346
0.425062
0.408226
0.391489
0.599497
0.594862
0.587409
0.57632
0.562828
0.547493
0.530935
0.513562
0.495725
0.477678
0.459686
0.442026
0.424936
0.408408
0.392043
0.593872
0.589705
0.582778
0.572199
0.559192
0.544318
0.528191
0.511224
0.493764
0.476061
0.458363
0.440938
0.424055
0.407811
0.391912
0.586391
0.582815
0.57656
0.566623
0.554223
0.539919
0.524326
0.507856
0.490858
0.473576
0.456246
0.439126
0.422509
0.406581
0.391165
0.577117
0.574247
0.568808
0.559641
0.547964
0.534336
0.519373
0.503489
0.487034
0.470246
0.453351
0.436606
0.420336
0.4048
0.389884
0.56612
0.564066
0.559584
0.551306
0.540463
0.527612
0.513371
0.498157
0.482322
0.466097
0.449697
0.43338
0.417517
0.402448
0.388091
0.553462
0.552356
0.548954
0.541678
0.531772
0.519794
0.506361
0.491898
0.476756
0.461163
0.445316
0.429475
0.41406
0.399505
0.385777
0.539216
0.5392
0.536991
0.53082
0.521949
0.510932
0.498391
0.484752
0.470373
0.455476
0.440244
0.424929
0.409996
0.395985
0.382937
0.523474
0.52468
0.523768
0.518801
0.511054
0.501083
0.489508
0.476764
0.463211
0.449071
0.434511
0.419774
0.405359
0.391916
0.379577
0.506337
0.508881
0.509363
0.505691
0.499153
0.490303
0.479765
0.467979
0.455311
0.441983
0.428149
0.414039
0.400178
0.387324
0.375721
0.487915
0.491895
0.493859
0.491566
0.486314
0.478654
0.469217
0.458447
0.446718
0.434253
0.421194
0.407753
0.394478
0.382233
0.371385
0.46832
0.473821
0.477344
0.476507
0.472607
0.466201
0.457922
0.448221
0.437479
0.425921
0.41368
0.40095
0.388288
0.376666
0.366589
0.447671
0.454762
0.459911
0.460596
0.45811
0.453012
0.445941
0.437353
0.427641
0.417033
0.405651
0.393667
0.381643
0.370649
0.361353
0.426092
0.434828
0.441658
0.443921
0.442898
0.439155
0.433335
0.425902
0.417257
0.407634
0.397145
0.385939
0.374573
0.364213
0.3557
0.403711
0.414129
0.422685
0.426573
0.427054
0.424704
0.420169
0.413923
0.406376
0.397769
0.388206
0.377807
0.367118
0.35739
0.349656
0.380662
0.392784
0.403096
0.408643
0.410661
0.409732
0.406511
0.401477
0.395054
0.387489
0.378877
0.369309
0.359305
0.350203
0.343246
0.357079
0.370909
0.382998
0.390228
0.393802
0.394316
0.392427
0.388624
0.383342
0.376841
0.369205
0.360488
0.35118
0.342691
0.336497
0.333104
0.348628
0.362498
0.371423
0.376566
0.378533
0.377986
0.375424
0.371296
0.365878
0.359241
0.351393
0.342775
0.334869
0.329429
0.308877
0.326065
0.341709
0.352328
0.359038
0.362459
0.363258
0.361938
0.358969
0.354643
0.349027
0.342072
0.33414
0.326777
0.32207
0.284544
0.303346
0.320741
0.33304
0.341306
0.346174
0.348312
0.34823
0.346413
0.343185
0.338615
0.332588
0.32534
0.318429
0.314418
0.260249
0.280597
0.299706
0.313659
0.323457
0.329755
0.333218
0.33436
0.333682
0.331545
0.328038
0.322985
0.316444
0.309878
0.306481
0.236142
0.257946
0.278715
0.294281
0.305579
0.313278
0.318044
0.320392
0.320831
0.319764
0.31733
0.313316
0.307567
0.301227
0.298193
0.212368
0.235517
0.257876
0.275004
0.287757
0.296818
0.302858
0.306387
0.307915
0.307885
0.30651
0.303592
0.298775
0.292679
0.289499
0.18908
0.213428
0.237295
0.255924
0.270073
0.280447
0.287722
0.292403
0.294992
0.295954
0.295596
0.293807
0.290129
0.284562
0.280348
0.16643
0.191785
0.217075
0.237135
0.252609
0.264234
0.272698
0.278498
0.282115
0.284026
0.284618
0.283927
0.281533
0.276987
0.271058
0.144578
0.170666
0.197319
0.218729
0.235439
0.248246
0.257845
0.264721
0.269337
0.272155
0.273621
0.27393
0.272835
0.269719
0.264109
0.123695
0.15012
0.178136
0.200789
0.218631
0.232546
0.243218
0.251122
0.256699
0.260391
0.262663
0.263847
0.263937
0.262438
0.25804
0.103948
0.130176
0.159645
0.183385
0.202247
0.217194
0.228872
0.237743
0.244239
0.248774
0.251801
0.253742
0.254812
0.254704
0.251733
0.0854552
0.110967
0.14196
0.166563
0.186344
0.202251
0.214857
0.224625
0.231989
0.237334
0.241078
0.243681
0.245527
0.246487
0.2447
0.068162
0.0928907
0.125144
0.150356
0.170987
0.187774
0.20122
0.211807
0.219979
0.226093
0.230521
0.233718
0.236187
0.237966
0.237125
0.0521106
0.0762328
0.10915
0.13482
0.156246
0.173812
0.187999
0.199326
0.208239
0.215072
0.220152
0.223898
0.22689
0.229327
0.229353
0.037406
0.0611063
0.093875
0.120047
0.14219
0.160406
0.17523
0.187215
0.196798
0.204294
0.209987
0.214253
0.217708
0.220703
0.221563
0.0241251
0.0472345
0.0795259
0.106161
0.128867
0.147582
0.162944
0.175508
0.185687
0.193783
0.200048
0.204807
0.208689
0.212178
0.213817
0.0123012
0.0344889
0.0662278
0.0932365
0.116297
0.135362
0.151172
0.164232
0.174931
0.183563
0.190354
0.195578
0.199852
0.203786
0.206149
0.00193962
0.022908
0.0540708
0.0812228
0.104469
0.123766
0.139938
0.153412
0.164553
0.173655
0.180925
0.18658
0.191207
0.195533
0.198578
-0.00697641
0.0125641
0.0430632
0.070047
0.0933554
0.11282
0.129263
0.143066
0.154572
0.164078
0.171776
0.177827
0.182757
0.187423
0.191111
-0.0144948
0.0034724
0.033134
0.0597102
0.0828939
0.102563
0.11916
0.133207
0.145002
0.154845
0.162922
0.169334
0.174514
0.179459
0.183754
-0.0207052
-0.00441584
0.0241959
0.0502239
0.0731726
0.0928765
0.109652
0.12384
0.135852
0.145967
0.154371
0.161116
0.166497
0.171649
0.176518
-0.0257391
-0.011196
0.0161681
0.041573
0.0642178
0.0838249
0.100648
0.114971
0.127131
0.137452
0.146126
0.153186
0.158747
0.163992
0.16941
-0.0297608
-0.016996
0.00897565
0.0337217
0.0560141
0.0754312
0.0921821
0.106553
0.118833
0.129304
0.138185
0.145544
0.151298
0.156506
0.162417
-0.032966
-0.0219912
0.00254819
0.0266327
0.0485334
0.0676858
0.0842747
0.0986001
0.110932
0.121508
0.130565
0.138164
0.14417
0.149244
0.155514
-0.0355354
-0.0263668
-0.0031615
0.02028
0.0417448
0.060563
0.0769199
0.0911293
0.103446
0.114083
0.123239
0.131019
0.137331
0.142335
0.148607
-0.0376748
-0.0301645
-0.00815375
0.01465
0.0356184
0.0540313
0.0700974
0.0841386
0.0963856
0.107023
0.116221
0.12412
0.130681
0.135837
0.141715
-0.039543
-0.0333269
-0.0123831
0.00974168
0.0301257
0.0480585
0.063783
0.077612
0.0897427
0.10033
0.109533
0.117508
0.124242
0.129633
0.134905
-0.0411842
-0.0357328
-0.0157716
0.0055619
0.0252392
0.0426151
0.0579534
0.0715288
0.0835
0.0939996
0.10318
0.111192
0.118031
0.123568
0.128553
-0.0424846
-0.0371696
-0.0182221
0.0021095
0.0209257
0.0376752
0.0525902
0.0658717
0.0776402
0.0880187
0.0971496
0.105167
0.112071
0.117706
0.122737
-0.0431436
-0.0373152
-0.0196339
-0.000640214
0.017148
0.0332223
0.0476806
0.060622
0.0721429
0.0823666
0.0914235
0.0994282
0.106386
0.112139
0.117374
-0.0426822
-0.0357914
-0.0199664
-0.00276199
0.013871
0.0292511
0.0432136
0.0557562
0.0669823
0.0770221
0.0859877
0.0939715
0.100984
0.106874
0.112344
-0.0407297
-0.0323283
-0.0193312
-0.0043759
0.0110813
0.0257649
0.0391669
0.0512402
0.062129
0.0719654
0.0808299
0.088788
0.0958541
0.101872
0.107538
-0.0373111
-0.0271985
-0.0181842
-0.00561064
0.00879661
0.0227523
0.0354947
0.0470311
0.0575544
0.0671763
0.0759331
0.0838608
0.0909776
0.0970983
0.102907
-0.032791
-0.0214962
-0.0172296
-0.00648567
0.00703919
0.0201562
0.0321223
0.0430798
0.0532323
0.0626353
0.0712765
0.0791667
0.0863305
0.0925389
0.0984568
-0.0278492
-0.0168969
-0.0166313
-0.00687106
0.00576293
0.0178578
0.0289629
0.0393429
0.0491369
0.0583184
0.0668344
0.0746794
0.0818899
0.0881858
0.0942081
-0.0231746
-0.0145353
-0.0159862
-0.00666081
0.00481433
0.0156977
0.0259392
0.0357886
0.0452429
0.0541969
0.0625799
0.0703762
0.0776371
0.0840288
0.0901629
-0.0192496
-0.0143691
-0.0146768
-0.00597019
0.00392686
0.013534
0.0230135
0.0323955
0.0415153
0.0502329
0.0584824
0.0662357
0.073558
0.0800578
0.0863089
-0.0163302
-0.015175
-0.0123394
-0.00516797
0.00281067
0.0113031
0.0201861
0.0291402
0.0379124
0.0463858
0.0545122
0.0622386
0.06964
0.0762655
0.0826361
-0.0142634
-0.0156949
-0.00929119
-0.0048731
0.00130527
0.00906713
0.0174705
0.0259748
0.0343767
0.0426125
0.0506392
0.0583643
0.0658713
0.0726489
0.0791434
-0.0128934
-0.0154278
-0.00691985
-0.00568687
-0.000425674
0.00693962
0.0148378
0.0228347
0.0308581
0.0388762
0.0468354
0.0545917
0.0622371
0.0692064
0.0758397
-0.0121566
-0.0142655
-0.00687234
-0.00718544
-0.00193713
0.00496144
0.0121945
0.0196426
0.0273083
0.035142
0.0430706
0.0508972
0.0587223
0.0659366
0.0727409
-0.0118219
-0.0126279
-0.00886242
-0.00793437
-0.00297205
0.00299648
0.00944572
0.0163619
0.0236979
0.0313728
0.0393104
0.0472554
0.0553103
0.0628379
0.0698697
-0.0116758
-0.0113477
-0.0108847
-0.00708582
-0.00373925
0.000856182
0.00654706
0.0129693
0.01999
0.0275263
0.0355155
0.0436403
0.0519866
0.0599095
0.0672509
-0.0116549
-0.0107504
-0.0119462
-0.00603765
-0.00503366
-0.00146522
0.003565
0.00945444
0.0161351
0.0235461
0.0316411
0.0400249
0.0487407
0.0571541
0.0649063
-0.011759
-0.0109506
-0.0118453
-0.00716749
-0.006914
-0.00383362
0.00048266
0.00576003
0.0120746
0.019376
0.0276383
0.0363827
0.0455667
0.0545817
0.0628668
-0.0119809
-0.0114679
-0.0114646
-0.00999127
-0.00817446
-0.00606711
-0.00277797
0.00181087
0.00773273
0.0149426
0.0234505
0.0326858
0.0424672
0.0522052
0.0611544
-0.0123094
-0.0120578
-0.0117069
-0.0123002
-0.00889729
-0.00848022
-0.00624364
-0.00241251
0.00304588
0.0101709
0.0190166
0.0289048
0.039446
0.0500592
0.0598245
-0.0126962
-0.0126657
-0.0125412
-0.0134321
-0.0110848
-0.0111975
-0.00985492
-0.00695791
-0.00207884
0.0049699
0.014267
0.0250109
0.0365155
0.0481632
0.058915
-0.013041
-0.0132569
-0.0136037
-0.0143518
-0.0145338
-0.0136254
-0.0135306
-0.0118644
-0.00771924
-0.000749235
0.00913474
0.0209712
0.033694
0.0465808
0.0584921
-0.0132607
-0.0137837
-0.0145983
-0.0156475
-0.0173193
-0.0162654
-0.0174098
-0.0171622
-0.0139431
-0.00708213
0.00354086
0.0167672
0.031003
0.0453353
0.0585902
-0.0133008
-0.0141748
-0.0154437
-0.0171021
-0.019135
-0.0200091
-0.0212784
-0.022761
-0.0207867
-0.0141048
-0.00256978
0.0123737
0.0284981
0.0445312
0.059271
-0.0131504
-0.0143807
-0.016075
-0.0183887
-0.0208997
-0.0236744
-0.0252163
-0.0286323
-0.0282235
-0.0218825
-0.00925317
0.00781609
0.0262209
0.0442301
0.0606049
-0.0128376
-0.0144101
-0.016488
-0.0194042
-0.0227106
-0.0264307
-0.0299729
-0.0345698
-0.0361537
-0.0303719
-0.0164914
0.00311248
0.0242936
0.0445676
0.0627076
-0.0124676
-0.0143485
-0.0167281
-0.0202069
-0.0241901
-0.028829
-0.0348355
-0.040403
-0.0443689
-0.0394872
-0.0241944
-0.00159405
0.0228177
0.0456911
0.0656691
-0.0122711
-0.0144059
-0.0170668
-0.0210101
-0.0256688
-0.031202
-0.0386517
-0.0463966
-0.0524458
-0.0488296
-0.0321385
-0.0061881
0.0219563
0.0477245
0.0696764
-0.0125039
-0.0148266
-0.0177308
-0.0220311
-0.0272098
-0.0334584
-0.0415288
-0.0520868
-0.0596479
-0.0579347
-0.0398348
-0.0102633
0.0219341
0.0509057
0.0748073
-0.0134569
-0.0158856
-0.0189855
-0.0235859
-0.0290426
-0.0356404
-0.0442082
-0.0556516
-0.0656146
-0.0657529
-0.0467161
-0.0135712
0.0227942
0.0552924
0.0811783
-0.0153887
-0.0178183
-0.0210226
-0.0257854
-0.0312937
-0.0378319
-0.0462435
-0.057185
-0.0695658
-0.0706003
-0.0517931
-0.0152422
0.0249082
0.0609511
0.089035
-0.0184839
-0.0207799
-0.0239419
-0.0286781
-0.0339964
-0.0400977
-0.0477573
-0.05776
-0.0700737
-0.0719475
-0.054426
-0.0150958