/*--------------------------------*- C++ -*----------------------------------*\
  =========                 |
  \\      /  F ield         | OpenFOAM: The Open Source CFD Toolbox
   \\    /   O peration     | Website:  https://openfoam.org
    \\  /    A nd           | Version:  7
     \\/     M anipulation  |
\*---------------------------------------------------------------------------*/
FoamFile
{
    version     2.0;
    format      ascii;
    class       surfaceScalarField;
    location    "39.9993";
    object      phi;
}
// * * * * * * * * * * * * * * * * * * * * * * * * * * * * * * * * * * * * * //

dimensions      [0 3 -1 0 0 0 0];

internalField   nonuniform List<scalar> 
37105
(
5.86073e-06
0.000123391
-0.000129251
8.31956e-06
0.000231301
-0.00023376
7.91221e-06
0.000259821
-0.000259414
6.33543e-06
0.000264163
-0.000262586
4.38676e-06
0.000264363
-0.000262415
2.22568e-06
0.000262143
-0.000259982
-4.63885e-08
0.000257055
-0.000254783
-2.31494e-06
0.000248696
-0.000246428
-4.71524e-06
0.000237165
-0.000234765
-7.29733e-06
0.000222743
-0.000220161
-1.01284e-05
0.000205806
-0.000202975
-1.33256e-05
0.000186752
-0.000183555
-1.70387e-05
0.000165738
-0.000162025
-2.15525e-05
0.00014273
-0.000138217
0.000117579
-0.00011175
-2.73807e-05
6.90856e-06
0.000116482
1.04202e-05
0.000227789
1.0765e-05
0.000259476
9.77924e-06
0.000265148
8.38826e-06
0.000265754
6.80775e-06
0.000263723
5.09457e-06
0.000258769
3.27136e-06
0.00025052
1.35812e-06
0.000239078
-6.3856e-07
0.00022474
-2.86905e-06
0.000208037
-5.4526e-06
0.000189336
-8.5091e-06
0.000168794
-1.22358e-05
0.000146457
0.000122434
-1.70908e-05
7.9655e-06
0.000108517
1.25817e-05
0.000223173
1.37143e-05
0.000258344
1.33224e-05
0.00026554
1.24833e-05
0.000266593
1.14409e-05
0.000264766
1.02791e-05
0.00025993
9.01109e-06
0.000251788
7.65293e-06
0.000240437
6.15503e-06
0.000226237
4.46815e-06
0.000209724
2.50889e-06
0.000191295
1.55318e-07
0.000171148
-2.71613e-06
0.000149329
0.00012605
-6.33205e-06
9.0106e-06
9.9506e-05
1.47819e-05
0.000217402
1.67423e-05
0.000256383
1.6956e-05
0.000265327
1.66562e-05
0.000266893
1.61455e-05
0.000265277
1.55141e-05
0.000260562
1.47797e-05
0.000252522
1.39619e-05
0.000241254
1.303e-05
0.000227169
1.19432e-05
0.000210811
1.06297e-05
0.000192609
8.99301e-06
0.000172785
6.98694e-06
0.000151335
0.000128252
4.78451e-06
1.00171e-05
8.94889e-05
1.69903e-05
0.000210428
1.98259e-05
0.000253548
2.06643e-05
0.000264488
2.08972e-05
0.00026666
2.09095e-05
0.000265264
2.07926e-05
0.000260679
2.05847e-05
0.00025273
2.03015e-05
0.000241538
1.99328e-05
0.000227538
1.94537e-05
0.00021129
1.88145e-05
0.000193248
1.79677e-05
0.000173632
1.69065e-05
0.000152396
0.000129498
1.56601e-05
1.0949e-05
7.85399e-05
1.91668e-05
0.000202211
2.29356e-05
0.000249779
2.44272e-05
0.000262997
2.51942e-05
0.000265893
2.57163e-05
0.000264742
2.61065e-05
0.000260288
2.64142e-05
0.000252422
2.66612e-05
0.000241291
2.68571e-05
0.000227342
2.69946e-05
0.000211152
2.70549e-05
0.000193188
2.70101e-05
0.000173676
2.68681e-05
0.000152538
0.000129709
2.66578e-05
1.17585e-05
6.67814e-05
2.12582e-05
0.000192711
2.60338e-05
0.000245003
2.82218e-05
0.000260809
2.95304e-05
0.000264585
3.05518e-05
0.000263721
3.14399e-05
0.0002594
3.22531e-05
0.000251609
3.30271e-05
0.000240517
3.37873e-05
0.000226582
3.45481e-05
0.000210391
3.53164e-05
0.000192419
3.60813e-05
0.000172911
3.68504e-05
0.000151769
0.000128875
3.76844e-05
1.23812e-05
5.44002e-05
2.31965e-05
0.000181896
2.90757e-05
0.000239124
3.2022e-05
0.000257863
3.38861e-05
0.00026272
3.53997e-05
0.000262207
3.67746e-05
0.000258025
3.80856e-05
0.000250298
3.93819e-05
0.00023922
4.07051e-05
0.000225259
4.20924e-05
0.000209004
4.35744e-05
0.000190937
4.51552e-05
0.000171331
4.68272e-05
0.000150097
0.000127022
4.86805e-05
1.27264e-05
4.16738e-05
2.48991e-05
0.000169723
3.20087e-05
0.000232014
3.57957e-05
0.000254076
3.82382e-05
0.000260278
4.024e-05
0.000260206
4.2092e-05
0.000256173
4.38932e-05
0.000248497
4.57061e-05
0.000237407
4.75901e-05
0.000223375
4.9604e-05
0.00020699
5.18012e-05
0.00018874
5.4205e-05
0.000168927
5.67798e-05
0.000147522
0.000124197
5.96048e-05
1.26715e-05
2.90023e-05
2.62773e-05
0.000156117
3.47749e-05
0.000223517
3.95024e-05
0.000249348
4.25577e-05
0.000257223
4.50502e-05
0.000257713
4.73724e-05
0.000253851
4.96555e-05
0.000246214
5.19783e-05
0.000235085
5.44195e-05
0.000220933
5.70579e-05
0.000204352
5.99678e-05
0.00018583
6.32049e-05
0.00016569
6.66868e-05
0.00014404
0.000120409
7.04739e-05
1.2096e-05
1.69063e-05
2.7252e-05
0.000140961
3.73102e-05
0.000213459
4.30888e-05
0.000243569
4.68079e-05
0.000253504
4.98049e-05
0.000254716
5.25939e-05
0.000251062
5.53502e-05
0.000243457
5.81751e-05
0.00023226
6.11685e-05
0.00021794
6.4429e-05
0.000201091
6.80434e-05
0.000182216
7.21256e-05
0.000161607
7.65438e-05
0.000139622
0.000115645
8.13081e-05
1.09633e-05
5.943e-06
2.77699e-05
0.000124155
3.95378e-05
0.000201691
4.64866e-05
0.000236621
5.09453e-05
0.000249045
5.4476e-05
0.000251185
5.77321e-05
0.000247806
6.09526e-05
0.000240237
6.42702e-05
0.000228942
6.78096e-05
0.000214401
7.16914e-05
0.00019721
7.59951e-05
0.000177912
8.09257e-05
0.000156677
8.63284e-05
0.000134219
0.000109875
9.2099e-05
9.35852e-06
-3.41552e-06
2.78167e-05
0.000105696
4.13665e-05
0.000188141
4.96129e-05
0.000228374
5.492e-05
0.000243738
5.90312e-05
0.000247074
6.27594e-05
0.000244078
6.64348e-05
0.000236562
7.02349e-05
0.000225142
7.4312e-05
0.000210323
7.88186e-05
0.000192703
8.37911e-05
0.00017294
8.9548e-05
0.00015092
9.59967e-05
0.00012777
0.000103073
0.000102798
7.43509e-06
-1.08506e-05
2.74154e-05
8.57161e-05
4.26784e-05
0.000172878
5.23769e-05
0.000218676
5.86767e-05
0.000237438
6.34319e-05
0.000242319
6.76422e-05
0.000239867
7.17645e-05
0.000232439
7.60371e-05
0.00022087
8.06399e-05
0.000205721
8.57807e-05
0.000187562
9.14111e-05
0.000167309
9.79368e-05
0.000144394
0.000105455
0.000120252
9.51232e-05
0.000113405
5.42483e-06
-1.62754e-05
2.63303e-05
6.48106e-05
4.33209e-05
0.000155887
5.46866e-05
0.00020731
6.215e-05
0.000229974
6.76266e-05
0.000236843
7.23381e-05
0.000235156
7.69036e-05
0.000227874
8.16415e-05
0.000216132
8.6752e-05
0.00020061
9.25381e-05
0.000181776
9.88514e-05
0.000160996
0.000106068
0.000137177
0.000114555
0.000111765
8.57915e-05
0.000123887
3.56147e-06
-1.98369e-05
2.43743e-05
4.39977e-05
4.31721e-05
0.000137089
5.64495e-05
0.000194033
6.52534e-05
0.000221171
7.15454e-05
0.000230551
7.67931e-05
0.000229908
8.1806e-05
0.000222861
8.70085e-05
0.000210929
9.26014e-05
0.000195017
9.90319e-05
0.000175345
0.000106094
0.000153934
0.000114002
0.000129269
0.000123197
0.00010257
7.49527e-05
0.000134035
1.99569e-06
-2.18326e-05
2.15642e-05
2.44292e-05
4.22104e-05
0.000116443
5.75646e-05
0.000178678
6.7867e-05
0.000210868
7.50932e-05
0.000223324
8.09383e-05
0.000224063
8.64137e-05
0.000217385
9.20919e-05
0.000205251
9.81442e-05
0.000188965
0.000105189
0.000168301
0.000113052
0.000146071
0.000121843
0.000120478
0.000131513
9.29006e-05
6.27863e-05
0.000143679
7.96699e-07
-2.26293e-05
1.80605e-05
7.16533e-06
4.0434e-05
9.40699e-05
5.78887e-05
0.000161224
6.9834e-05
0.000198923
7.815e-05
0.000215008
8.4686e-05
0.000217527
9.06505e-05
0.000211421
9.68299e-05
0.000199072
0.000103344
0.000182451
0.000110955
0.00016069
0.000119559
0.000137466
0.000129524
0.000110513
0.000139766
8.26588e-05
4.95617e-05
0.000152991
3.94114e-08
-2.26687e-05
1.41837e-05
-6.97896e-06
3.77779e-05
7.04757e-05
5.72345e-05
0.000141767
7.09723e-05
0.000185185
8.05681e-05
0.000205413
8.79229e-05
0.000210172
9.44178e-05
0.000204926
0.000101136
0.000192353
0.000108144
0.000175443
0.000116321
0.000152514
0.000125489
0.000128298
0.000136747
9.92545e-05
0.000147883
7.15235e-05
3.52754e-05
0.000162169
-3.91766e-07
-2.22769e-05
1.0223e-05
-1.75937e-05
3.41661e-05
4.65326e-05
5.53886e-05
0.000120544
7.10833e-05
0.00016949
8.21668e-05
0.000194329
9.05006e-05
0.000201839
9.75903e-05
0.000197836
0.000104891
0.000185053
0.000112442
0.000167891
0.000121285
0.000143671
0.000130852
0.000118731
0.0001433
8.68066e-05
0.000155501
5.93226e-05
1.97818e-05
0.000170994
-4.11975e-07
-2.1865e-05
6.96171e-06
-2.49674e-05
2.93847e-05
2.41096e-05
5.21932e-05
9.77359e-05
6.99758e-05
0.000151708
8.27248e-05
0.00018158
9.22264e-05
0.000192337
0.000100011
0.000190052
0.000107941
0.000177123
0.000116066
0.000159767
0.000125767
0.000133969
0.000135717
0.000108781
0.000149206
7.33183e-05
0.000162458
4.60705e-05
3.03297e-06
0.000179207
-3.56592e-07
-2.15084e-05
4.30248e-06
-2.96265e-05
2.36322e-05
4.77994e-06
4.76459e-05
7.37223e-05
6.7465e-05
0.000131889
8.19816e-05
0.000167063
9.28533e-05
0.000181465
0.000101477
0.000181428
0.000110113
0.000168487
0.000118798
0.000151081
0.000129545
0.000123222
0.000140016
9.83107e-05
0.000154526
5.88077e-05
0.000168727
3.18697e-05
-1.5043e-05
0.000186803
-2.64985e-07
-2.12434e-05
2.44581e-06
-3.23373e-05
1.77497e-05
-1.0524e-05
4.18983e-05
4.95737e-05
6.34032e-05
0.000110384
7.96756e-05
0.000150791
9.20949e-05
0.000169046
0.000101726
0.000171797
0.000111179
0.000159034
0.000120391
0.000141869
0.00013231
0.000111304
0.000143403
8.72177e-05
0.000159078
4.31329e-05
0.000174141
1.68064e-05
-3.43933e-05
0.000193491
-1.35112e-07
-2.11083e-05
1.58338e-06
-3.40558e-05
1.26195e-05
-2.15601e-05
3.51602e-05
2.70329e-05
5.773e-05
8.7814e-05
7.5587e-05
0.000132934
8.96304e-05
0.000155003
0.000100446
0.000160981
0.000110886
0.000148594
0.000120539
0.000132216
0.000133717
9.81257e-05
0.000145401
7.55335e-05
0.000162383
2.61516e-05
0.000178065
1.12434e-06
-5.48867e-05
0.000198558
1.07182e-07
-2.12154e-05
1.53992e-06
-3.54885e-05
8.79168e-06
-2.88118e-05
2.78778e-05
7.94678e-06
5.05687e-05
6.51232e-05
6.96122e-05
0.00011389
8.51284e-05
0.000139487
9.72156e-05
0.000148894
0.000108951
0.000136859
0.000119024
0.000122143
0.000133296
8.38535e-05
0.000145648
6.31815e-05
0.000163879
7.92048e-06
0.00017967
-1.46668e-05
-7.6395e-05
0.000201179
3.87022e-07
-2.16025e-05
1.80436e-06
-3.69059e-05
6.37096e-06
-3.33784e-05
2.091e-05
-6.59226e-06
4.22488e-05
4.37844e-05
6.17817e-05
9.43575e-05
7.83581e-05
0.00012291
9.15879e-05
0.000135664
0.000104702
0.000123745
0.000115875
0.000110971
0.000130383
6.9345e-05
0.000143956
4.9609e-05
0.000163348
-1.14717e-05
0.000177884
-2.92033e-05
-9.92053e-05
0.000200695
6.76545e-07
-2.2279e-05
2.05026e-06
-3.82796e-05
5.00238e-06
-3.63305e-05
1.49841e-05
-1.6574e-05
3.32727e-05
2.54959e-05
5.23006e-05
7.53296e-05
6.91775e-05
0.000106033
8.35366e-05
0.000121305
9.70481e-05
0.000110233
0.00011072
9.72988e-05
0.000123847
5.62183e-05
0.000140473
3.2983e-05
0.00015883
-2.98285e-05
0.000172044
-4.24178e-05
-0.000124641
0.00019748
8.86011e-07
-2.3165e-05
2.08336e-06
-3.94769e-05
3.98678e-06
-3.8234e-05
1.02354e-05
-2.28226e-05
2.42223e-05
1.15089e-05
4.16482e-05
5.79037e-05
5.77399e-05
8.99415e-05
7.31921e-05
0.000105853
8.61161e-05
9.73091e-05
0.00010205
8.1365e-05
0.000113308
4.49598e-05
0.000134291
1.20009e-05
0.000146121
-4.16592e-05
0.000164163
-6.04598e-05
-0.0001552
0.000194722
9.33754e-07
-2.40988e-05
1.75355e-06
-4.02967e-05
2.76045e-06
-3.92409e-05
6.1369e-06
-2.61991e-05
1.5592e-05
2.05387e-06
3.03219e-05
4.31737e-05
4.47082e-05
7.55552e-05
6.01179e-05
9.0443e-05
7.30687e-05
8.43583e-05
8.88203e-05
6.56134e-05
0.000100588
3.31923e-05
0.000123328
-1.07395e-05
0.000127015
-4.53456e-05
0.000162505
-9.59506e-05
-0.000190409
0.000197714
7.59072e-07
-2.48579e-05
9.42103e-07
-4.04797e-05
8.95584e-07
-3.91943e-05
2.01918e-06
-2.73227e-05
7.55802e-06
-3.48497e-06
1.86722e-05
3.20596e-05
3.08559e-05
6.33715e-05
4.43533e-05
7.69455e-05
5.75926e-05
7.11191e-05
7.16668e-05
5.15392e-05
8.56242e-05
1.92349e-05
0.000102176
-2.72918e-05
0.00011527
-5.84388e-05
0.000174013
-0.000154694
-0.000218119
0.000201722
3.34854e-07
-2.51927e-05
-3.75867e-07
-3.9769e-05
-1.58967e-06
-3.79805e-05
-2.33437e-06
-2.6578e-05
-2.58819e-07
-5.56052e-06
7.03121e-06
2.47695e-05
1.65591e-05
5.38436e-05
2.72566e-05
6.62481e-05
3.92351e-05
5.91405e-05
5.23187e-05
3.84556e-05
6.67954e-05
4.75824e-06
8.15909e-05
-4.20872e-05
0.000127089
-0.000103937
0.000185393
-0.000212999
-0.000279337
0.000246612
-3.39913e-07
-2.48528e-05
-2.15617e-06
-3.79528e-05
-4.65287e-06
-3.54838e-05
-7.01808e-06
-2.42127e-05
-7.60205e-06
-4.97656e-06
-4.29778e-06
2.14653e-05
2.43295e-06
4.71129e-05
1.00963e-05
5.85848e-05
1.98283e-05
4.94085e-05
3.10374e-05
2.72465e-05
4.95269e-05
-1.37313e-05
8.92511e-05
-8.18114e-05
0.000155481
-0.000170167
0.000215485
-0.000273003
-0.000346952
0.0002831
-1.2125e-06
-2.36403e-05
-4.2942e-06
-3.48711e-05
-8.18605e-06
-3.1592e-05
-1.21561e-05
-2.02426e-05
-1.50995e-05
-2.03315e-06
-1.53358e-05
2.17016e-05
-1.22275e-05
4.40045e-05
-6.68754e-06
5.30448e-05
8.91935e-07
4.1829e-05
1.54714e-05
1.2667e-05
5.64954e-05
-5.47553e-05
0.000119195
-0.000144511
0.000189209
-0.00024018
0.000242089
-0.000325882
-0.000381539
0.000276675
-2.20937e-06
-2.14309e-05
-6.61354e-06
-3.04669e-05
-1.19182e-05
-2.62873e-05
-1.74529e-05
-1.47079e-05
-2.24301e-05
2.94405e-06
-2.56102e-05
2.48817e-05
-2.59774e-05
4.43716e-05
-2.29911e-05
5.00585e-05
-1.23548e-05
3.11928e-05
2.30897e-05
-2.27775e-05
8.71683e-05
-0.000118834
0.000154984
-0.000212327
0.000211854
-0.00029705
0.000246954
-0.000360983
-0.000414484
0.000279899
-3.20902e-06
-1.82219e-05
-8.8666e-06
-2.48093e-05
-1.54844e-05
-1.96695e-05
-2.24618e-05
-7.73051e-06
-2.91542e-05
9.63646e-06
-3.46611e-05
3.03886e-05
-3.73172e-05
4.70278e-05
-3.26355e-05
4.53768e-05
-5.05844e-06
3.61567e-06
5.39881e-05
-8.18241e-05
0.000122102
-0.000186948
0.000178925
-0.000269149
0.000221166
-0.000339292
0.000254642
-0.000394459
-0.000438556
0.000278715
-4.06471e-06
-1.41572e-05
-1.07438e-05
-1.81302e-05
-1.83872e-05
-1.20262e-05
-2.64398e-05
3.22117e-07
-3.41259e-05
1.73225e-05
-4.02483e-05
3.6511e-05
-4.15044e-05
4.82839e-05
-2.61643e-05
3.00368e-05
2.27132e-05
-4.52618e-05
9.02369e-05
-0.000149348
0.000147287
-0.000243998
0.000193178
-0.000315041
0.000229241
-0.000375355
0.000252923
-0.00041814
-0.000455322
0.000269689
-4.62528e-06
-9.5319e-06
-1.19008e-05
-1.08547e-05
-2.00502e-05
-3.87675e-06
-2.82786e-05
8.55051e-06
-3.56262e-05
2.46701e-05
-3.9644e-05
4.05287e-05
-3.58052e-05
4.44451e-05
-2.25249e-06
-3.51597e-06
5.79756e-05
-0.00010549
0.000117365
-0.000208737
0.000165165
-0.000291798
0.000203077
-0.000352952
0.00022943
-0.000401708
0.000249006
-0.000437716
-0.000473658
0.000267342
-4.77988e-06
-4.75202e-06
-1.20912e-05
-3.54334e-06
-1.9943e-05
3.975e-06
-2.73004e-05
1.59079e-05
-3.26452e-05
3.0015e-05
-3.21766e-05
4.006e-05
-1.88614e-05
3.113e-05
2.79312e-05
-5.03086e-05
8.73022e-05
-0.000164861
0.000138057
-0.000259491
0.000177419
-0.000331161
0.000206443
-0.000381976
0.00022848
-0.000423745
0.000245611
-0.000454847
-0.000485129
0.000257081
-4.51821e-06
-2.33811e-07
-1.13092e-05
3.24769e-06
-1.81799e-05
1.08456e-05
-2.37465e-05
2.14746e-05
-2.60762e-05
3.23447e-05
-2.19276e-05
3.59114e-05
4.4089e-06
4.7935e-06
5.86574e-05
-0.000104557
0.000109973
-0.000216177
0.000152589
-0.000302107
0.00018402
-0.000362593
0.000207957
-0.000405912
0.000225287
-0.000441074
0.000237753
-0.000467314
-0.000498518
0.000251142
-3.92751e-06
3.6937e-06
-9.76838e-06
9.08857e-06
-1.51996e-05
1.62768e-05
-1.85578e-05
2.48328e-05
-1.73172e-05
3.11041e-05
-9.22926e-06
2.78234e-05
2.80318e-05
-3.24676e-05
8.24739e-05
-0.000158999
0.000127566
-0.000261269
0.000162235
-0.000336776
0.000187648
-0.000388005
0.000206155
-0.000424419
0.000219913
-0.000454833
0.000232769
-0.000480169
-0.000508866
0.000243117
-3.12431e-06
6.81801e-06
-7.7936e-06
1.37579e-05
-1.16255e-05
2.01088e-05
-1.28573e-05
2.60646e-05
-9.71614e-06
2.79629e-05
6.4761e-06
1.16312e-05
5.3418e-05
-7.94095e-05
0.000101259
-0.000206841
0.000139798
-0.000299808
0.000167969
-0.000364947
0.000187749
-0.000407785
0.000202929
-0.000439599
0.000215149
-0.000467053
0.000224871
-0.000489891
-0.000518575
0.00023458
-2.26503e-06
9.08304e-06
-5.72883e-06
1.72217e-05
-8.11188e-06
2.24918e-05
-7.49647e-06
2.54492e-05
-3.98857e-06
2.4455e-05
2.18261e-05
-1.41835e-05
7.45967e-05
-0.00013218
0.000116249
-0.000248493
0.000147967
-0.000331526
0.000170303
-0.000387282
0.000186293
-0.000423776
0.000198765
-0.000452071
0.000208338
-0.000476626
0.000218281
-0.000499833
-0.000528299
0.000228005
-1.474e-06
1.0557e-05
-3.83128e-06
1.95789e-05
-4.96156e-06
2.36221e-05
-3.27252e-06
2.37601e-05
3.49712e-06
1.76854e-05
4.00885e-05
-5.07748e-05
8.95439e-05
-0.000181636
0.000126734
-0.000285683
0.00015255
-0.000357342
0.000170396
-0.000405128
0.0001831
-0.00043648
0.000193319
-0.00046229
0.000202496
-0.000485804
0.000211111
-0.000508447
-0.000535986
0.000218797
-8.41937e-07
1.1399e-05
-2.31991e-06
2.10569e-05
-2.38767e-06
2.36898e-05
-1.39469e-06
2.27671e-05
1.32441e-05
3.04662e-06
5.93803e-05
-9.69111e-05
0.000102083
-0.000224338
0.000133525
-0.000317125
0.000154555
-0.000378373
0.000168591
-0.000419164
0.000178982
-0.00044687
0.000188017
-0.000471325
0.000195569
-0.000493356
0.000203503
-0.000516381
-0.000544438
0.000211955
-4.12998e-07
1.1812e-05
-1.23201e-06
2.18759e-05
-5.7064e-07
2.30285e-05
1.55971e-07
2.20405e-05
2.42166e-05
-2.1014e-05
7.4243e-05
-0.000146937
0.0001115
-0.000261595
0.000137279
-0.000342903
0.000154167
-0.000395261
0.000165523
-0.00043052
0.00017423
-0.000455578
0.000181766
-0.000478861
0.000189026
-0.000500616
0.000196696
-0.00052405
-0.000550778
0.000203035
-2.0638e-07
1.20184e-05
-3.44572e-07
2.20141e-05
-1.13148e-08
2.26952e-05
4.68114e-06
1.73481e-05
3.94257e-05
-5.57586e-05
8.45485e-05
-0.00019206
0.000117592
-0.000294638
0.000138761
-0.000364072
0.000152336
-0.000408836
0.000161523
-0.000439707
0.000168857
-0.000462911
0.000175834
-0.000485838
0.000182288
-0.000507071
0.000188916
-0.000530679
-0.000557383
0.000195521
-1.92065e-07
1.22104e-05
1.26385e-07
2.16957e-05
-5.60737e-07
2.33823e-05
1.16117e-05
5.17565e-06
5.51503e-05
-9.92972e-05
9.33187e-05
-0.000230229
0.000120837
-0.000322157
0.000138231
-0.000381467
0.000149172
-0.000419777
0.000156804
-0.000447339
0.00016333
-0.000469438
0.000169364
-0.000491872
0.000175366
-0.000513072
0.000182053
-0.000537366
-0.000562973
0.000187643
-2.65225e-07
1.24756e-05
1.23752e-07
2.13067e-05
-9.09814e-07
2.44159e-05
1.94966e-05
-1.52308e-05
6.63357e-05
-0.000146136
9.97498e-05
-0.000263643
0.000122182
-0.000344589
0.000136255
-0.000395539
0.000145235
-0.000428758
0.000151724
-0.000453828
0.000157404
-0.000475117
0.000163042
-0.00049751
0.000168678
-0.000518708
0.000174391
-0.000543079
-0.000568416
0.000179834
-2.02845e-07
1.26785e-05
-8.11036e-08
2.1185e-05
1.51869e-06
2.28161e-05
3.13028e-05
-4.50149e-05
7.34586e-05
-0.000188292
0.000103516
-0.0002937
0.000121983
-0.000363056
0.000133247
-0.000406803
0.000140621
-0.000436132
0.000146215
-0.000459422
0.00015146
-0.000480362
0.000156514
-0.000502564
0.0001616
-0.000523795
0.000167243
-0.000548722
-0.000573521
0.000172349
-1.20715e-07
1.27992e-05
-7.34322e-07
2.17986e-05
6.56684e-06
1.5515e-05
4.43151e-05
-8.27631e-05
7.97204e-05
-0.000223697
0.000104923
-0.000318903
0.00012028
-0.000378413
0.000129461
-0.000415983
0.000135644
-0.000442315
0.000140616
-0.000464394
0.000145298
-0.000485045
0.000149965
-0.000507231
0.000154842
-0.000528671
0.000159754
-0.000553635
-0.000577992
0.000164225
-3.17802e-07
1.3117e-05
-1.8365e-06
2.33173e-05
1.18765e-05
1.80198e-06
5.42119e-05
-0.000125099
8.43499e-05
-0.000253835
0.000104936
-0.00033949
0.000117519
-0.000390995
0.000125106
-0.000423571
0.000130377
-0.000447586
0.000134772
-0.000468789
0.000139126
-0.000489398
0.000143403
-0.000511509
0.000147743
-0.000533011
0.000152365
-0.000558257
-0.00058234
0.000156713
-4.24745e-07
1.35417e-05
-2.13107e-06
2.50236e-05
1.88063e-05
-1.91354e-05
5.94234e-05
-0.000165716
8.71827e-05
-0.000281595
0.000104002
-0.000356309
0.000114067
-0.00040106
0.00012034
-0.000429843
0.00012492
-0.000452167
0.000128933
-0.000472802
0.000132869
-0.000493334
0.000136753
-0.000515393
0.000140874
-0.000537131
0.000144967
-0.00056235
-0.000585976
0.000148602
-3.26345e-07
1.38681e-05
1.83321e-07
2.45139e-05
2.7827e-05
-4.67791e-05
6.33558e-05
-0.000201244
8.79243e-05
-0.000306163
0.000102071
-0.000370456
0.000110149
-0.000409138
0.000115334
-0.000435029
0.000119352
-0.000456185
0.000122957
-0.000476407
0.000126581
-0.000496958
0.00013016
-0.000518971
0.000133803
-0.000540774
0.000137455
-0.000566002
-0.000589506
0.000140986
-3.74362e-07
1.42425e-05
3.62468e-06
2.05149e-05
3.68362e-05
-7.99906e-05
6.66645e-05
-0.000231073
8.72633e-05
-0.000326762
9.91341e-05
-0.000382326
0.000105806
-0.000415809
0.000110171
-0.000439394
0.000113708
-0.000459721
0.000117008
-0.000479707
0.000120288
-0.000500238
0.000123478
-0.000522161
0.000126842
-0.000544139
0.000130091
-0.000569251
-0.000592434
0.000133018
-4.72835e-07
1.47153e-05
7.43204e-06
1.261e-05
4.3538e-05
-0.000116097
6.89891e-05
-0.000256524
8.5767e-05
-0.00034354
9.55329e-05
-0.000392092
0.000101135
-0.000421411
0.000104899
-0.000443158
0.000108047
-0.00046287
0.000111001
-0.000482661
0.000113958
-0.000503195
0.000116857
-0.00052506
0.000119795
-0.000547076
0.000122566
-0.000572022
-0.000595174
0.000125307
-5.91442e-07
1.53067e-05
1.14479e-05
5.70686e-07
4.7289e-05
-0.000151938
7.02558e-05
-0.000279491
8.37754e-05
-0.000357059
9.1579e-05
-0.000399896
9.62473e-05
-0.000426079
9.95452e-05
-0.000446456
0.000102356
-0.00046568
0.000105025
-0.00048533
0.000107663
-0.000505834
0.000110185
-0.000527581
0.000112787
-0.000549678
0.000115213
-0.000574449
-0.000597445
0.000117484
-1.12541e-06
1.64321e-05
1.65352e-05
-1.70899e-05
4.84877e-05
-0.00018389
6.98592e-05
-0.000300862
8.12766e-05
-0.000368477
8.74581e-05
-0.000406077
9.12907e-05
-0.000429912
9.41602e-05
-0.000449326
9.66725e-05
-0.000468192
9.90336e-05
-0.000487691
0.000101341
-0.000508141
0.000103562
-0.000529802
0.000105776
-0.000551892
0.00010774
-0.000576413
-0.000599452
0.000109746
-1.7787e-06
1.82108e-05
2.1333e-05
-4.02016e-05
4.96357e-05
-0.000212193
6.82671e-05
-0.000319494
7.8159e-05
-0.000378369
8.31994e-05
-0.000411118
8.63245e-05
-0.000433037
8.87888e-05
-0.00045179
9.09932e-05
-0.000470397
9.30693e-05
-0.000489768
9.50684e-05
-0.00051014
9.69256e-05
-0.000531659
9.87759e-05
-0.000553742
0.000100419
-0.000578056
-0.000601089
0.000102056
-1.31246e-06
1.95233e-05
2.5659e-05
-6.71731e-05
5.02549e-05
-0.000236789
6.61258e-05
-0.000335364
7.45215e-05
-0.000386764
7.87732e-05
-0.00041537
8.13798e-05
-0.000435644
8.34615e-05
-0.000453872
8.53539e-05
-0.000472289
8.71203e-05
-0.000491534
8.87845e-05
-0.000511805
9.03254e-05
-0.0005332
9.18129e-05
-0.00055523
9.30456e-05
-0.000579289
-0.00060242
9.43765e-05
1.02163e-07
1.94211e-05
2.90291e-05
-9.61e-05
5.03491e-05
-0.000258109
6.36178e-05
-0.000348633
7.06065e-05
-0.000393753
7.42141e-05
-0.000418977
7.64284e-05
-0.000437858
7.81793e-05
-0.000455623
7.97522e-05
-0.000473862
8.12073e-05
-0.000492989
8.25542e-05
-0.000513152
8.37413e-05
-0.000534387
8.48565e-05
-0.000556345
8.57722e-05
-0.000580204
-0.000603464
8.68169e-05
1.69357e-06
1.77276e-05
3.12151e-05
-0.000125622
5.00763e-05
-0.00027697
6.09647e-05
-0.000359522
6.66111e-05
-0.0003994
6.96015e-05
-0.000421967
7.14832e-05
-0.00043974
7.29362e-05
-0.000457076
7.42002e-05
-0.000475126
7.53318e-05
-0.000494121
7.63342e-05
-0.000514154
7.71881e-05
-0.000535241
7.79509e-05
-0.000557108
7.84949e-05
-0.000580748
-0.000604196
7.9227e-05
4.08553e-06
1.3642e-05
3.2151e-05
-0.000153687
4.94063e-05
-0.000294225
5.82264e-05
-0.000368342
6.26263e-05
-0.000403799
6.50064e-05
-0.000424348
6.6554e-05
-0.000441287
6.77251e-05
-0.000458247
6.86876e-05
-0.000476089
6.94983e-05
-0.000494931
7.01713e-05
-0.000514827
7.0674e-05
-0.000535744
7.10637e-05
-0.000557497
7.12754e-05
-0.00058096
-0.000604581
7.16597e-05
7.13712e-06
6.50492e-06
3.19472e-05
-0.000178497
4.79927e-05
-0.000310271
5.54013e-05
-0.00037575
5.87047e-05
-0.000407103
6.04792e-05
-0.000426122
6.16724e-05
-0.00044248
6.25541e-05
-0.000459129
6.32189e-05
-0.000476753
6.37093e-05
-0.000495422
6.40364e-05
-0.000515154
6.41942e-05
-0.000535902
6.423e-05
-0.000557533
6.40612e-05
-0.000580791
-0.00060452
6.40002e-05
1.0503e-05
-3.99813e-06
3.22538e-05
-0.000200248
4.60746e-05
-0.000324092
5.23299e-05
-0.000382006
5.4807e-05
-0.00040958
5.60327e-05
-0.000427348
5.68507e-05
-0.000443298
5.74282e-05
-0.000459706
5.77934e-05
-0.000477119
5.79652e-05
-0.000495593
5.79589e-05
-0.000515148
5.77659e-05
-0.000535709
5.74252e-05
-0.000557192
5.68854e-05
-0.000580251
-0.000604045
5.64106e-05
1.32378e-05
-1.72359e-05
3.23548e-05
-0.000219365
4.39142e-05
-0.000335651
4.89924e-05
-0.000387084
5.08572e-05
-0.000411445
5.16439e-05
-0.000428135
5.21035e-05
-0.000443758
5.23638e-05
-0.000459967
5.24206e-05
-0.000477175
5.22723e-05
-0.000495445
5.19222e-05
-0.000514798
5.13744e-05
-0.000535161
5.06697e-05
-0.000556488
4.9749e-05
-0.000579331
-0.000603113
4.88172e-05
1.51344e-05
-3.23703e-05
3.19593e-05
-0.00023619
4.15171e-05
-0.000345209
4.54934e-05
-0.00039106
4.68479e-05
-0.000412799
4.72904e-05
-0.000428577
4.74229e-05
-0.000443891
4.73635e-05
-0.000459907
4.71063e-05
-0.000476918
4.66349e-05
-0.000494974
4.59467e-05
-0.000514109
4.50409e-05
-0.000534255
4.39518e-05
-0.000555399
4.26571e-05
-0.000578036
-0.000601755
4.12994e-05
1.60785e-05
-4.84487e-05
3.10921e-05
-0.000251204
3.89442e-05
-0.000353061
4.19353e-05
-0.000394051
4.2831e-05
-0.000413695
4.29718e-05
-0.000428718
4.28074e-05
-0.000443726
4.24358e-05
-0.000459535
4.18587e-05
-0.000476341
4.10607e-05
-0.000494176
4.00284e-05
-0.000513077
3.87575e-05
-0.000532984
3.72847e-05
-0.000553926
3.56105e-05
-0.000576362
-0.000599958
3.38127e-05
1.62304e-05
-6.46791e-05
2.97597e-05
-0.000264733
3.62094e-05
-0.00035951
3.83709e-05
-0.000396213
3.88426e-05
-0.000414167
3.86995e-05
-0.000428575
3.82527e-05
-0.000443279
3.75763e-05
-0.000458859
3.66813e-05
-0.000475446
3.55548e-05
-0.000493049
3.41827e-05
-0.000511705
3.2554e-05
-0.000531356
3.06838e-05
-0.000552056
2.85918e-05
-0.00057427
-0.000597758
2.63922e-05
1.5885e-05
-8.05641e-05
2.80902e-05
-0.000276938
3.33699e-05
-0.00036479
3.48321e-05
-0.000397675
3.49128e-05
-0.000414248
3.4488e-05
-0.00042815
3.37654e-05
-0.000442557
3.27915e-05
-0.000457885
3.15789e-05
-0.000474234
3.01219e-05
-0.000491592
2.8408e-05
-0.000509991
2.6427e-05
-0.000529375
2.4178e-05
-0.000549807
2.16215e-05
-0.000571713
-0.000595138
1.90016e-05
1.52232e-05
-9.57873e-05
2.61669e-05
-0.000287882
3.04523e-05
-0.000369076
3.13316e-05
-0.000398554
3.10571e-05
-0.000413973
3.03513e-05
-0.000427444
2.93504e-05
-0.000441556
2.80801e-05
-0.000456615
2.65534e-05
-0.000472707
2.47666e-05
-0.000489806
2.27107e-05
-0.000507935
2.03861e-05
-0.00052705
1.77883e-05
-0.000547209
1.47461e-05
-0.000568671
-0.000592024
1.16318e-05
1.43609e-05
-0.000110148
2.40907e-05
-0.000297612
2.75099e-05
-0.000372495
2.7891e-05
-0.000398935
2.72895e-05
-0.000413372
2.63002e-05
-0.000426455
2.50167e-05
-0.000440272
2.34505e-05
-0.000455049
2.16098e-05
-0.000470866
1.94924e-05
-0.000487688
1.70917e-05
-0.000505534
1.44113e-05
-0.00052437
1.14817e-05
-0.000544279
8.07641e-06
-0.000565266
-0.000588166
4.21832e-06
1.33579e-05
-0.000123506
2.19191e-05
-0.000306173
2.45777e-05
-0.000375153
2.45262e-05
-0.000398884
2.36182e-05
-0.000412464
2.23427e-05
-0.000425179
2.07695e-05
-0.000438699
1.89034e-05
-0.000453183
1.67495e-05
-0.000468712
1.43035e-05
-0.000485242
1.15605e-05
-0.000502791
8.52288e-06
-0.000521332
5.19603e-06
-0.000540952
1.76517e-06
-0.000561835
-0.00058348
-2.92004e-06
1.21725e-05
-0.000135679
1.9712e-05
-0.000313712
2.17018e-05
-0.000377143
2.12576e-05
-0.000398439
2.00505e-05
-0.000411256
1.84831e-05
-0.000423612
1.66147e-05
-0.000436831
1.44455e-05
-0.000451013
1.19751e-05
-0.000466242
9.19948e-06
-0.000482467
6.11961e-06
-0.000499711
2.71569e-06
-0.000517928
-1.07993e-06
-0.000537157
-4.87287e-06
-0.000558042
-0.000578797
-9.55623e-06
1.09784e-05
-0.000146657
1.75234e-05
-0.000320257
1.89036e-05
-0.000378523
1.80968e-05
-0.000397633
1.65879e-05
-0.000409748
1.47242e-05
-0.000421748
1.25545e-05
-0.000434661
1.0075e-05
-0.000448534
7.28302e-06
-0.00046345
4.17852e-06
-0.000479362
7.54221e-07
-0.000496287
-2.95692e-06
-0.000514217
-6.88062e-06
-0.000533233
-1.14241e-05
-0.000553498
-0.000574016
-1.62054e-05
9.91032e-06
-0.000156567
1.54061e-05
-0.000325753
1.61956e-05
-0.000379313
1.50343e-05
-0.000396471
1.32285e-05
-0.000407942
1.10662e-05
-0.000419586
8.58944e-06
-0.000432184
5.79124e-06
-0.000445736
2.6653e-06
-0.000460324
-7.62739e-07
-0.000475934
-4.46412e-06
-0.000492586
-8.46579e-06
-0.000510215
-1.27459e-05
-0.000528953
-1.77429e-05
-0.000548502
-0.000568958
-2.2801e-05
8.88444e-06
-0.000165452
1.33784e-05
-0.000330247
1.35887e-05
-0.000379523
1.20744e-05
-0.000394957
9.97184e-06
-0.000405839
7.50798e-06
-0.000417122
4.71303e-06
-0.000429389
1.57415e-06
-0.000442597
-1.83544e-06
-0.000456914
-5.5413e-06
-0.000472228
-9.57791e-06
-0.000488549
-1.38981e-05
-0.000505895
-1.85735e-05
-0.000524277
-2.38952e-05
-0.00054318
-0.000563537
-2.93152e-05
7.89431e-06
-0.000173346
1.14477e-05
-0.000333801
1.10928e-05
-0.000379168
9.22346e-06
-0.000393088
6.81774e-06
-0.000403433
4.04059e-06
-0.000414345
8.97988e-07
-0.000426247
-2.48797e-06
-0.000439211
-6.19436e-06
-0.000453208
-1.02394e-05
-0.000468183
-1.45943e-05
-0.000484194
-1.92563e-05
-0.000501233
-2.43347e-05
-0.000519199
-2.99248e-05
-0.00053759
-0.000557732
-3.57305e-05
6.94477e-06
-0.000180291
9.61524e-06
-0.000336471
8.70945e-06
-0.000378262
6.48571e-06
-0.000390864
3.76205e-06
-0.00040071
6.28011e-07
-0.000411211
-2.73264e-06
-0.000422886
-6.4336e-06
-0.00043551
-1.04718e-05
-0.00044917
-1.48378e-05
-0.000463817
-1.95138e-05
-0.000479518
-2.45248e-05
-0.000496222
-2.99998e-05
-0.000513724
-3.58477e-05
-0.000531742
-0.000551565
-4.20148e-05
6.04011e-06
-0.000186331
7.87988e-06
-0.000338311
6.44416e-06
-0.000376827
3.85902e-06
-0.000388279
7.76286e-07
-0.000397627
-2.57407e-06
-0.00040786
-6.2642e-06
-0.000419196
-1.02919e-05
-0.000431482
-1.46525e-05
-0.000444809
-1.93369e-05
-0.000459133
-2.43378e-05
-0.000474517
-2.9693e-05
-0.000490867
-3.54892e-05
-0.000507928
-4.16533e-05
-0.000525578
-0.000545092
-4.81257e-05
5.18469e-06
-0.000191516
6.23889e-06
-0.000339365