/*--------------------------------*- C++ -*----------------------------------*\
  =========                 |
  \\      /  F ield         | OpenFOAM: The Open Source CFD Toolbox
   \\    /   O peration     | Website:  https://openfoam.org
    \\  /    A nd           | Version:  7
     \\/     M anipulation  |
\*---------------------------------------------------------------------------*/
FoamFile
{
    version     2.0;
    format      ascii;
    class       volVectorField;
    location    "39.9993";
    object      U;
}
// * * * * * * * * * * * * * * * * * * * * * * * * * * * * * * * * * * * * * //

dimensions      [0 1 -1 0 0 0 0];

internalField   nonuniform List<vector> 
18750
(
(0.0242005 0.549892 -2.61035e-19)
(0.0510093 0.962367 7.05798e-20)
(0.0446462 1.02203 4.49328e-19)
(0.0331363 0.986348 7.40674e-20)
(0.0202779 0.9385 -1.05299e-19)
(0.00741138 0.885125 -2.12444e-19)
(-0.0052032 0.825602 1.59109e-19)
(-0.016948 0.759912 8.58772e-20)
(-0.0280176 0.689116 -5.68584e-20)
(-0.0384271 0.615294 -1.36775e-19)
(-0.0487043 0.540263 4.69396e-19)
(-0.059164 0.465565 -3.51474e-19)
(-0.0702902 0.391932 1.96184e-19)
(-0.0829304 0.319367 -3.53057e-19)
(-0.0984193 0.247598 8.24314e-20)
(0.0138129 0.522892 1.73029e-19)
(0.0386629 0.951697 1.242e-19)
(0.0354503 1.02374 -1.17186e-20)
(0.0277474 0.992542 3.80766e-19)
(0.0185962 0.945626 6.28661e-19)
(0.00933461 0.892295 6.6272e-19)
(0.000263624 0.832687 -4.46371e-19)
(-0.00811313 0.766574 5.94162e-19)
(-0.0157649 0.695641 4.87948e-19)
(-0.0229447 0.621729 -1.14431e-19)
(-0.0300971 0.546814 -4.89419e-19)
(-0.0374744 0.472474 3.19623e-20)
(-0.0456258 0.399462 1.06822e-19)
(-0.0553595 0.32797 2.34276e-19)
(-0.0674323 0.258054 -3.37522e-19)
(0.00480438 0.491141 3.71933e-19)
(0.0273713 0.936611 3.16627e-19)
(0.0269794 1.02272 -9.51846e-19)
(0.022911 0.996962 -3.69381e-20)
(0.0173509 0.951338 -1.23527e-18)
(0.0115617 0.898439 2.9777e-19)
(0.0059162 0.838827 -6.5225e-19)
(0.000910282 0.77275 -1.04781e-19)
(-0.00343212 0.701795 -3.8592e-19)
(-0.00742923 0.62785 9.54969e-19)
(-0.0114036 0.55319 1.12553e-18)
(-0.015678 0.479311 8.98342e-19)
(-0.0207399 0.406967 4.96916e-19)
(-0.0271994 0.336461 3.19316e-19)
(-0.0356989 0.26809 -5.5304e-19)
(-0.00258549 0.45468 -1.2588e-18)
(0.01731 0.916929 1.23027e-18)
(0.0193412 1.01882 -7.39538e-19)
(0.0186724 0.999626 -1.17591e-18)
(0.0165611 0.955752 1.57284e-18)
(0.0141199 0.903517 -1.25355e-18)
(0.011791 0.84418 1.44579e-18)
(0.0100943 0.778344 -1.03401e-18)
(0.00895942 0.707473 6.02484e-19)
(0.00816172 0.633764 -1.35478e-18)
(0.00735736 0.559459 -1.73338e-18)
(0.00619826 0.486066 8.86703e-20)
(0.00433833 0.414379 -2.8836e-19)
(0.00144602 0.344672 -5.8174e-19)
(-0.00331476 0.2772 2.04419e-18)
(-0.00813965 0.41365 -6.38586e-19)
(0.00860606 0.892492 1.31779e-18)
(0.0126022 1.01193 4.06769e-19)
(0.015074 1.00051 1.05478e-18)
(0.0162343 0.958935 -9.32634e-19)
(0.0170206 0.907589 3.57453e-19)
(0.0179027 0.848798 3.25111e-18)
(0.0194078 0.783327 3.87591e-19)
(0.0214411 0.712768 6.13501e-19)
(0.0238139 0.639429 -1.75101e-19)
(0.0261564 0.565522 1.97603e-19)
(0.0281624 0.492659 -4.3505e-20)
(0.0295865 0.421636 -1.57252e-18)
(0.0303035 0.352602 -8.43674e-19)
(0.0292937 0.285572 -2.34161e-18)
(-0.011701 0.368318 1.52122e-18)
(0.00134069 0.863128 2.6588e-20)
(0.00678158 1.00186 -5.65427e-19)
(0.0121195 0.999557 -3.57145e-19)
(0.016379 0.960916 1.51592e-19)
(0.0202569 0.910738 -3.2282e-18)
(0.0242462 0.852692 -4.1002e-19)
(0.0288506 0.787767 1.83036e-19)
(0.0340023 0.717694 -9.62011e-19)
(0.0394991 0.644795 -1.18097e-18)
(0.0449917 0.571366 7.76876e-19)
(0.0502074 0.499056 -7.1813e-19)
(0.0549607 0.428661 2.05599e-18)
(0.0593185 0.360221 -1.51803e-18)
(0.062068 0.29364 3.20575e-18)
(-0.0132102 0.319113 -1.02589e-18)
(-0.004464 0.828649 -1.93074e-18)
(0.00186187 0.988382 5.31861e-19)
(0.00977537 0.996687 3.68501e-18)
(0.0169826 0.961714 3.08446e-18)
(0.0238187 0.913025 -8.20625e-19)
(0.030804 0.855912 3.64201e-19)
(0.0384125 0.791711 1.77933e-19)
(0.0466153 0.722236 1.91926e-18)
(0.055202 0.649873 2.44926e-18)
(0.0638469 0.576973 -1.14197e-18)
(0.0723075 0.50521 -1.96908e-18)
(0.0804187 0.435409 -3.44398e-18)
(0.0884407 0.367563 5.55785e-19)
(0.0949706 0.301412 -3.89181e-18)
(-0.0127357 0.266671 -6.14689e-19)
(-0.00886745 0.788848 -7.90456e-19)
(-0.00221106 0.97113 -5.51608e-18)
(0.0079957 0.991713 1.54949e-18)
(0.0180147 0.961316 -2.0172e-18)
(0.0276895 0.914492 1.03958e-18)
(0.0375481 0.858508 8.20628e-19)
(0.0480672 0.795174 -3.71916e-18)
(0.0592526 0.726411 -2.20948e-18)
(0.0708982 0.654665 -3.37639e-18)
(0.0826933 0.582321 -5.83536e-19)
(0.0944336 0.511095 2.08984e-18)
(0.105927 0.441862 7.68942e-18)
(0.117607 0.374644 -1.10206e-18)
(0.128008 0.308924 1.92902e-18)
(-0.0105175 0.211908 3.4934e-18)
(-0.0120102 0.743469 1.39953e-18)
(-0.0055273 0.949624 5.82315e-18)
(0.00672861 0.984353 -3.85254e-18)
(0.0194371 0.959663 1.45974e-18)
(0.0318383 0.915165 -2.13195e-18)
(0.044444 0.860513 -4.28441e-18)
(0.0577781 0.798177 3.57509e-18)
(0.0718804 0.730229 3.57566e-19)
(0.0865527 0.65916 4.93483e-18)
(0.101497 0.587392 -1.49211e-18)
(0.116549 0.516693 -6.19398e-18)
(0.13146 0.448001 -3.59335e-18)
(0.146751 0.38146 3.5828e-19)
(0.161237 0.31628 -1.599e-18)
(-0.00703318 0.156167 -2.61626e-18)
(-0.0140903 0.692176 -1.55871e-18)
(-0.00817299 0.923265 1.50627e-18)
(0.00593043 0.974245 2.2266e-19)
(0.0212076 0.956639 -5.50307e-19)
(0.0362175 0.915042 -5.47158e-19)
(0.0514469 0.861943 1.99897e-18)
(0.0674989 0.800732 -1.98091e-18)
(0.0844549 0.733687 1.82329e-18)
(0.102125 0.663346 2.00893e-18)
(0.120216 0.592171 -3.42794e-18)
(0.138609 0.521987 6.19293e-18)
(0.157003 0.453798 7.07738e-19)
(0.175791 0.387971 8.57104e-19)
(0.194816 0.323599 1.90843e-18)
(-0.00308508 0.101388 4.2551e-18)
(-0.0153094 0.634533 -1.37974e-18)
(-0.0101676 0.89132 -6.00664e-18)
(0.00558183 0.960926 2.01697e-18)
(0.0232779 0.952059 -1.13532e-18)
(0.0407648 0.914076 1.24807e-18)
(0.0584989 0.862796 7.74482e-18)
(0.0771743 0.802841 3.30478e-18)
(0.096922 0.736779 2.01475e-18)
(0.117564 0.667208 -6.43754e-18)
(0.138807 0.596635 6.53645e-18)
(0.160554 0.52696 2.16416e-18)
(0.182562 0.45922 -3.414e-18)
(0.204587 0.394087 4.03452e-18)
(0.229009 0.330994 -1.31502e-19)
(0.000278161 0.0499621 5.074e-19)
(-0.0158235 0.570018 2.80877e-19)
(-0.0114035 0.853057 -1.78042e-19)
(0.00570283 0.943873 -3.53581e-18)
(0.0255889 0.945645 6.43018e-18)
(0.0454023 0.912163 -3.04055e-18)
(0.065529 0.863046 -8.04271e-18)
(0.0867384 0.804493 2.02686e-18)
(0.109217 0.739489 -3.27707e-18)
(0.132812 0.67072 4.72924e-18)
(0.15722 0.600752 -7.94918e-18)
(0.182305 0.531596 5.4945e-19)
(0.208174 0.464243 3.00891e-18)
(0.232918 0.399629 -6.05125e-18)
(0.264122 0.338545 -1.39105e-18)
(0.00238271 0.00425472 -2.52388e-18)
(-0.0156628 0.498167 7.39795e-19)
(-0.0116036 0.807829 2.04056e-18)
(0.00634334 0.922466 -4.47736e-20)
(0.0280682 0.936991 -8.2605e-18)
(0.0500396 0.909121 8.13886e-19)
(0.0724549 0.862632 2.60037e-18)
(0.0961129 0.805663 -6.34963e-18)
(0.121263 0.741789 4.18056e-18)
(0.147792 0.673847 -3.63906e-18)
(0.175411 0.604475 9.45133e-18)
(0.20375 0.535869 -3.82359e-18)
(0.233925 0.468895 4.25251e-18)
(0.260477 0.404306 8.3925e-18)
(0.300138 0.346276 3.45702e-18)
(0.00379724 -0.0337925 -8.78975e-19)
(-0.0147332 0.41872 6.17968e-20)
(-0.0105101 0.755249 -1.54056e-19)
(0.00754061 0.896012 -2.10767e-19)
(0.030626 0.925538 -3.56843e-18)
(0.0545737 0.904681 -1.41469e-18)
(0.0791789 0.86146 2.36641e-18)
(0.105203 0.806307 1.27586e-18)
(0.132966 0.743638 -7.21368e-18)
(0.162409 0.676543 -3.71766e-19)
(0.193349 0.60774 -1.85827e-18)
(0.224732 0.539723 3.51748e-18)
(0.259963 0.473305 -4.74957e-18)
(0.286985 0.407773 -6.55666e-19)
(0.336751 0.354005 -3.8899e-18)
(0.00615014 -0.0626872 3.70304e-18)
(-0.0125827 0.332333 -3.14873e-18)
(-0.0078869 0.695097 -4.29866e-18)
(0.00924569 0.86363 7.18995e-18)
(0.0331593 0.910565 6.05882e-18)
(0.0588891 0.898475 7.21065e-18)
(0.0855814 0.859378 2.54996e-19)
(0.113889 0.806349 4.11592e-18)
(0.144217 0.74497 5.26077e-18)
(0.176535 0.678747 7.34843e-18)
(0.211025 0.610469 -3.19103e-18)
(0.245041 0.543012 6.34702e-18)
(0.286489 0.477727 -1.11054e-19)
(0.31231 0.409838 -3.0797e-18)
(0.373378 0.361074 -7.19795e-18)
(0.0109568 -0.0818053 -2.22698e-18)
(-0.00894652 0.241869 3.54124e-18)
(-0.00368867 0.627244 2.22348e-18)
(0.0113925 0.824265 -6.57351e-18)
(0.0355756 0.891205 -2.9551e-18)
(0.0628565 0.89002 -4.95962e-19)
(0.0915111 0.856156 -3.30929e-18)
(0.12202 0.805665 -5.41142e-18)
(0.154893 0.745681 -8.58958e-18)
(0.189993 0.680378 -3.50701e-18)
(0.228455 0.612588 4.61883e-18)
(0.264398 0.545434 -9.38778e-18)
(0.31371 0.482451 2.79022e-19)
(0.336788 0.410849 5.46094e-18)
(0.409249 0.366483 7.65856e-18)
(0.0186018 -0.091833 -5.12356e-18)
(-0.00379574 0.152319 3.98882e-18)
(0.00175642 0.551385 -6.71736e-18)
(0.0139596 0.776829 -2.95901e-18)
(0.0378091 0.866518 -1.38654e-19)
(0.0663145 0.878694 3.70658e-18)
(0.0967687 0.85144 5.55809e-18)
(0.129398 0.804054 1.65474e-18)
(0.164857 0.745623 2.3093e-18)
(0.202548 0.681314 -6.3188e-18)
(0.245688 0.614089 6.51659e-20)
(0.282459 0.54649 -4.3189e-18)
(0.341518 0.487363 -3.15641e-18)
(0.361319 0.411967 -8.7204e-18)
(0.444333 0.369923 -1.50997e-19)
(0.0277584 -0.0945181 4.54371e-18)
(0.00322682 0.0702714 6.69784e-19)
(0.00788797 0.467164 1.12788e-18)
(0.0169371 0.720348 7.49252e-18)
(0.0397913 0.83549 2.93837e-18)
(0.0690616 0.86369 -3.3496e-18)
(0.101105 0.844713 2.50993e-18)
(0.13576 0.801211 -1.33341e-18)
(0.173965 0.744567 -2.44875e-18)
(0.213886 0.681339 2.8675e-18)
(0.262791 0.615076 -8.76061e-18)
(0.298984 0.545785 -2.5498e-19)
(0.369304 0.491434 -4.48618e-18)
(0.386319 0.413936 6.87338e-18)
(0.479674 0.372715 6.19487e-19)
(0.0363707 -0.0924565 -1.6821e-18)
(0.0132177 0.00241754 -4.65977e-18)
(0.0142631 0.374919 1.20286e-18)
(0.0203873 0.654269 -8.38896e-18)
(0.0414303 0.797067 -5.42559e-18)
(0.0708441 0.843975 -2.84858e-18)
(0.104214 0.835247 -4.61379e-18)
(0.140757 0.796691 4.26805e-18)
(0.18206 0.742214 5.58985e-18)
(0.223618 0.68006 1.02399e-17)
(0.279779 0.615633 -3.1472e-19)
(0.314009 0.543446 1.05483e-17)
(0.396458 0.493418 4.04915e-18)
(0.411109 0.415635 2.97107e-18)
(0.515571 0.375784 -6.60348e-18)
(0.0428337 -0.0882563 2.86924e-18)
(0.0270388 -0.0473653 7.05016e-18)
(0.020643 0.276397 4.64739e-18)
(0.0241449 0.578488 5.79901e-18)
(0.0425389 0.750111 -3.29973e-20)
(0.0713559 0.818299 1.96943e-18)
(0.105753 0.822065 1.23436e-19)
(0.14393 0.789847 -3.09936e-18)
(0.188942 0.738158 4.65241e-18)
(0.231277 0.676889 -1.5462e-17)
(0.296489 0.615549 4.31039e-18)
(0.327799 0.540063 -2.80889e-18)
(0.422779 0.492936 5.23315e-19)
(0.435194 0.415583 -3.82936e-18)
(0.550958 0.377855 -4.15613e-18)
(0.0465954 -0.0841709 -4.66025e-18)
(0.042857 -0.0803215 6.16252e-18)
(0.0268647 0.175829 -1.47843e-18)
(0.0281347 0.493414 -2.41129e-18)
(0.0429423 0.693474 4.78494e-18)
(0.0702756 0.785244 3.71517e-19)
(0.105349 0.803961 -1.30803e-18)
(0.144707 0.779782 -1.49213e-19)
(0.194345 0.731898 -2.96277e-18)
(0.236369 0.67108 7.36312e-18)
(0.312417 0.613992 4.19833e-18)
(0.340603 0.536103 2.13706e-18)
(0.44828 0.490407 -1.66199e-19)
(0.458894 0.413676 4.8051e-18)
(0.585411 0.377793 -3.95478e-19)
(0.0485138 -0.081005 1.35718e-18)
(0.0577805 -0.0992018 -1.44052e-18)
(0.0333066 0.0831051 1.14481e-18)
(0.0320706 0.400149 4.49573e-18)
(0.0425341 0.626266 -2.74052e-18)
(0.067294 0.743409 -1.68433e-18)
(0.102636 0.779463 -2.82334e-18)
(0.142399 0.765246 2.11851e-18)
(0.197862 0.722749 -2.06333e-18)
(0.23846 0.661999 -2.18652e-18)
(0.326755 0.609581 -3.67752e-18)
(0.352288 0.531178 -2.0715e-18)
(0.472681 0.486093 7.07961e-18)
(0.482633 0.410409 -9.5395e-18)
(0.618993 0.375975 -2.22634e-19)
(0.0496924 -0.0785368 5.77901e-18)
(0.0701325 -0.108346 -2.24617e-18)
(0.0427135 0.00890874 -5.69595e-18)
(0.0360001 0.301223 -1.39915e-18)
(0.041439 0.54845 7.1268e-18)
(0.0621409 0.691605 -2.29933e-19)
(0.0972769 0.747034 2.93003e-18)
(0.136284 0.74463 -1.58081e-18)
(0.198858 0.709593 -5.39909e-18)
(0.23717 0.649058 1.19187e-17)
(0.338398 0.60075 -8.32532e-18)
(0.362617 0.524303 2.33359e-18)
(0.494556 0.47866 -1.00606e-17)
(0.50659 0.406179 3.52931e-18)
(0.650719 0.371582 2.80462e-18)
(0.0512257 -0.0763395 -2.05402e-18)
(0.0801475 -0.112029 -6.71663e-18)
(0.0575563 -0.0417315 3.05465e-18)
(0.0404748 0.201804 5.45075e-19)
(0.0398297 0.461229 -6.47777e-18)
(0.0545739 0.629137 3.77592e-18)
(0.088915 0.705092 1.3606e-19)
(0.12568 0.716161 -8.92966e-19)
(0.196467 0.690918 -5.6563e-18)
(0.232395 0.631765 -6.9202e-19)
(0.345615 0.585405 6.49962e-18)
(0.371708 0.514867 5.04025e-19)
(0.511668 0.465281 1.44212e-18)
(0.530435 0.400384 4.00881e-18)
(0.678016 0.362134 -1.0012e-17)
(0.0537552 -0.0743611 -3.1424e-18)
(0.0890753 -0.113303 4.47134e-20)
(0.0753153 -0.0711151 -3.78907e-18)
(0.0464682 0.111228 3.0067e-18)
(0.038037 0.367591 3.70816e-18)
(0.0444594 0.556214 -2.60992e-18)
(0.0772719 0.652546 -3.78977e-19)
(0.110008 0.677765 -1.79018e-18)
(0.189237 0.664294 4.29889e-18)
(0.224604 0.610434 8.40077e-19)
(0.346543 0.561218 -9.35257e-18)
(0.378838 0.502247 2.44566e-18)
(0.523113 0.443524 1.45567e-18)
(0.552046 0.392838 -6.50892e-18)
(0.697923 0.34587 1.45107e-18)
(0.0574519 -0.0728519 7.29095e-19)
(0.0979597 -0.11363 1.94483e-18)
(0.0914027 -0.0860132 3.7016e-18)
(0.0546786 0.0401068 -2.9455e-18)
(0.036372 0.272923 1.3931e-20)
(0.0318534 0.474259 6.67413e-18)
(0.0619388 0.589207 -1.54984e-19)
(0.0894583 0.628486 1.15632e-19)
(0.175013 0.625604 6.86961e-18)
(0.213321 0.583626 -3.62383e-18)
(0.341223 0.528876 2.38031e-18)
(0.380133 0.48259 -6.46901e-18)
(0.531668 0.415361 5.33578e-19)
(0.565597 0.381369 -1.61375e-18)
(0.708663 0.320962 2.77095e-18)
(0.0621103 -0.0720611 -5.07339e-19)
(0.106662 -0.113723 2.51192e-18)
(0.103786 -0.0936 -3.19704e-18)
(0.0650255 -0.00770046 6.75551e-18)
(0.034693 0.184441 -5.23756e-18)
(0.0172827 0.386769 -4.38434e-18)
(0.0421696 0.515394 -2.67317e-18)
(0.0644668 0.568617 -4.99968e-18)
(0.153325 0.573657 -8.52995e-18)
(0.195551 0.544422 1.09346e-18)
(0.330483 0.491313 5.63692e-18)
(0.370706 0.448837 4.26167e-18)
(0.53961 0.384337 6.71721e-19)
(0.557606 0.357121 -3.39749e-18)
(0.716477 0.287176 -1.6584e-18)
(0.0673954 -0.0720561 1.32716e-18)
(0.114355 -0.113921 2.34969e-18)
(0.111765 -0.0984268 -9.99936e-18)
(0.0744665 -0.0369958 -6.74939e-18)
(0.032169 0.109671 -1.99417e-19)
(0.00118051 0.298562 4.86517e-18)
(0.0179511 0.434124 -1.50245e-18)
(0.0347331 0.496632 1.1039e-17)
(0.123187 0.511544 5.96222e-19)
(0.173397 0.48823 -5.0079e-18)
(0.304141 0.444099 -4.34604e-18)
(0.361538 0.400288 -6.52143e-18)
(0.53279 0.346591 7.12479e-18)
(0.520686 0.311323 4.58771e-18)
(0.740537 0.250107 -4.27913e-20)
(0.0727667 -0.0726239 -3.67788e-18)
(0.119954 -0.114355 -6.91665e-18)
(0.114922 -0.102701 5.0028e-18)
(0.0784539 -0.0556366 6.06946e-18)
(0.0268755 0.0520901 3.65411e-18)
(-0.0160007 0.214565 -3.30008e-18)
(-0.0115675 0.349705 8.19091e-18)
(0.00341212 0.414364 -1.00874e-17)
(0.0789729 0.435518 1.00954e-17)
(0.156807 0.425064 5.75497e-18)
(0.247933 0.373436 -1.67125e-18)
(0.37664 0.350798 -2.21011e-18)
(0.471481 0.286265 -2.89159e-18)
(0.508544 0.256744 -5.583e-18)
(0.797592 0.220834 6.68538e-18)
(0.0774751 -0.073341 1.0426e-17)
(0.122327 -0.1149 8.07592e-18)
(0.112585 -0.107163 1.86274e-18)
(0.0743699 -0.0698043 -1.06038e-19)
(0.0171715 0.00888627 -1.25365e-18)
(-0.0346915 0.139337 -1.50763e-18)
(-0.046351 0.264705 -6.42219e-18)
(-0.0289017 0.32844 9.97966e-18)
(0.026037 0.344547 -6.96131e-18)
(0.132901 0.354588 9.21176e-20)
(0.186842 0.286259 5.54506e-18)
(0.379891 0.291702 3.63878e-18)
(0.356867 0.195794 3.57547e-18)
(0.629011 0.22265 -1.65119e-20)
(0.868914 0.201974 -4.16512e-18)
(0.0806453 -0.073655 -6.24872e-18)
(0.120552 -0.115178 -6.52424e-18)
(0.10441 -0.111878 2.04485e-18)
(0.0620581 -0.0828096 -3.33812e-18)
(0.00147028 -0.0247999 -1.52515e-18)
(-0.0568093 0.0749897 5.23478e-18)
(-0.0838759 0.182111 -1.42287e-18)
(-0.0672902 0.242315 -1.05831e-18)
(-0.0219181 0.250319 -3.11051e-18)
(0.083233 0.263833 -6.19609e-18)
(0.154996 0.204866 2.70876e-18)
(0.309182 0.198299 -3.02617e-18)
(0.357817 0.134549 -4.32499e-18)
(0.824854 0.213229 -1.91718e-18)
(0.860524 0.184641 7.53166e-18)
(0.0813811 -0.072979 7.03548e-18)
(0.113988 -0.114722 -5.55169e-18)
(0.0904413 -0.116566 -9.24639e-18)
(0.0428096 -0.0955335 9.64696e-19)
(-0.0210762 -0.0531472 2.2085e-18)
(-0.0842532 0.0204385 -1.42683e-18)
(-0.122079 0.105042 3.98342e-18)
(-0.11207 0.157907 9.64038e-19)
(-0.0665377 0.159861 -8.12509e-19)
(0.0265032 0.162433 -2.99456e-19)
(0.118324 0.120066 -2.88232e-18)
(0.284608 0.116668 2.5562e-19)
(0.594425 0.148882 1.3706e-18)
(0.921454 0.208726 -1.05156e-18)
(1.17389 0.230781 7.74843e-18)
(0.078908 -0.0707787 1.46532e-18)
(0.102337 -0.112969 -3.1303e-18)
(0.0709426 -0.120588 8.9229e-18)
(0.0176043 -0.107634 6.93049e-18)
(-0.0499041 -0.0780703 -6.93715e-18)
(-0.117391 -0.0256972 -4.19074e-19)
(-0.161181 0.0365881 -2.97222e-18)
(-0.158809 0.0767277 -9.20556e-19)
(-0.112088 0.0733636 6.78919e-18)
(-0.0259684 0.0647066 3.04118e-18)
(0.13381 0.04864 4.2202e-18)
(0.469571 0.109987 -3.1836e-18)
(0.801868 0.168491 1.88539e-18)
(1.13652 0.233331 -1.11729e-18)
(1.28856 0.241395 -9.89396e-18)
(0.0727437 -0.0666263 1.16308e-18)
(0.0857663 -0.109281 1.91865e-18)
(0.0466449 -0.123057 -4.88473e-18)
(-0.0122687 -0.118225 -5.59228e-18)
(-0.0835094 -0.0997496 -5.06218e-18)
(-0.154515 -0.0644866 4.33069e-19)
(-0.202414 -0.0224553 3.51838e-18)
(-0.205944 0.00117199 -6.25898e-18)
(-0.15344 -0.00651718 -3.28482e-18)
(-0.0149693 -0.00641982 1.64638e-18)
(0.331325 0.0452746 -4.07379e-18)
(0.704103 0.136209 2.75152e-19)
(1.02362 0.195688 2.49079e-18)
(1.2245 0.237915 -3.25762e-18)
(1.31041 0.242119 2.53712e-18)
(0.0628114 -0.0602708 -2.60806e-18)
(0.0649663 -0.10301 5.93651e-18)
(0.0188307 -0.122798 3.93597e-18)
(-0.045054 -0.125712 2.64393e-18)
(-0.119841 -0.116778 4.32886e-18)
(-0.193946 -0.0950942 -4.34924e-19)
(-0.244607 -0.0701989 -3.34128e-18)
(-0.242164 -0.0613813 6.74703e-19)
(-0.136294 -0.0647212 4.11734e-18)
(0.163804 -0.00714712 -7.01454e-18)
(0.58959 0.0806604 -3.3632e-18)
(0.920912 0.164595 4.95049e-20)
(1.13949 0.205231 -8.10974e-19)
(1.28617 0.241539 4.17793e-18)
(1.40473 0.250974 -3.51125e-18)
(0.049556 -0.0517188 2.82608e-18)
(0.041193 -0.0935878 1.86943e-18)
(-0.0105279 -0.118412 -2.39343e-19)
(-0.0778367 -0.127773 -1.69953e-18)
(-0.154723 -0.125765 3.85987e-19)
(-0.228358 -0.113222 -4.96866e-18)
(-0.271096 -0.0992231 1.15206e-18)
(-0.227219 -0.09623 -2.33263e-18)
(0.00996296 -0.0664219 -2.67209e-18)
(0.442297 0.0384172 4.94115e-18)
(0.811722 0.114723 7.02117e-18)
(1.06122 0.181321 3.149e-18)
(1.236 0.215239 2.78614e-18)
(1.35818 0.247135 -3.36633e-18)
(1.38478 0.245001 -3.3246e-18)
(0.0339577 -0.0412902 2.33655e-18)
(0.0162477 -0.0807062 -4.45905e-18)
(-0.0388179 -0.10851 -2.15141e-18)
(-0.106617 -0.121244 -4.76622e-18)
(-0.180224 -0.122315 2.14251e-18)
(-0.243658 -0.11342 5.25582e-18)
(-0.260434 -0.103178 -6.23964e-18)
(-0.134462 -0.0992057 2.17628e-18)
(0.268893 -0.00770518 4.13584e-18)
(0.678618 0.0794962 1.29953e-18)
(0.976346 0.141621 -4.92433e-18)
(1.17914 0.198188 -1.77648e-18)
(1.30853 0.223024 2.60637e-20)
(1.36149 0.244935 1.86969e-18)
(1.41761 0.246425 6.80591e-18)
(0.0173756 -0.0296352 -3.78362e-18)
(-0.00776056 -0.0645911 -3.80084e-18)
(-0.0628282 -0.0924389 2.11658e-18)
(-0.126707 -0.105009 8.46627e-18)
(-0.189412 -0.104576 -5.50042e-18)
(-0.230136 -0.0924041 1.60645e-18)
(-0.206139 -0.0818972 2.53594e-18)
(0.0547216 -0.052011 -1.74364e-19)
(0.518436 0.0481252 5.32022e-19)
(0.8691 0.114823 2.63291e-18)
(1.11263 0.167363 -2.4039e-18)
(1.26116 0.210993 -4.31235e-18)
(1.33949 0.226707 -3.35741e-18)
(1.40032 0.248571 2.71682e-18)
(1.41944 0.24457 7.25072e-19)
(0.00117414 -0.0176511 -9.39329e-19)
(-0.0291647 -0.0463347 7.55851e-18)
(-0.0807029 -0.0717265 1.5911e-18)
(-0.135615 -0.0814487 2.24518e-18)
(-0.18146 -0.0766281 2.04429e-18)
(-0.192421 -0.0601734 1.98239e-18)
(-0.11653 -0.0617789 -7.64506e-19)
(0.299279 0.0216477 1.42445e-18)
(0.721543 0.0926651 7.68918e-19)
(1.02419 0.147193 3.36971e-18)
(1.21053 0.18876 1.43378e-19)
(1.31462 0.22132 3.00048e-18)
(1.38081 0.233201 -2.0949e-18)
(1.39802 0.247929 -1.79136e-18)
(1.41034 0.241735 1.12203e-18)
(-0.0132809 -0.00647772 3.42044e-18)
(-0.046911 -0.0276006 -3.09066e-18)
(-0.0920779 -0.0487511 3.50727e-19)
(-0.134332 -0.0541277 -4.57554e-18)
(-0.159586 -0.0440629 -3.83106e-18)
(-0.143256 -0.0273447 6.72218e-18)
(0.0217992 -0.0270817 2.06459e-18)
(0.520909 0.0718077 -3.04213e-18)
(0.898037 0.132619 8.01944e-19)
(1.14371 0.175267 -9.05871e-18)
(1.28333 0.207745 3.00119e-18)
(1.36001 0.231197 -3.28419e-18)
(1.38732 0.236049 3.43324e-18)
(1.40695 0.249475 -4.8601e-19)
(1.42612 0.2433 -1.7198e-18)
(-0.0251024 0.003079 -5.35804e-18)
(-0.0605831 -0.00998816 -5.45013e-18)
(-0.0976785 -0.0262384 -5.5499e-18)
(-0.125557 -0.0274663 -4.19568e-18)
(-0.129426 -0.0126364 2.80906e-18)
(-0.0883775 -0.010456 -1.16507e-17)
(0.218553 0.0377466 1.07899e-18)
(0.708004 0.116224 1.04895e-18)
(1.03724 0.167721 5.72201e-19)
(1.23416 0.199862 4.23909e-18)
(1.3363 0.224088 -3.25227e-18)
(1.37929 0.238031 7.11027e-18)
(1.40504 0.241472 -1.38831e-18)
(1.41161 0.251438 -2.39813e-18)
(1.40685 0.240874 1.28907e-18)
(-0.034135 0.0105367 9.51198e-19)
(-0.0705238 0.00512128 4.43611e-18)
(-0.0989176 -0.00640209 6.33513e-18)
(-0.112104 -0.00436477 1.00842e-18)
(-0.100246 0.0102331 5.06212e-18)
(-0.0111561 -0.0112705 2.86869e-18)
(0.441492 0.0885288 8.79039e-19)
(0.874857 0.153277 -4.82351e-18)
(1.1504 0.197153 -3.04593e-19)
(1.30152 0.220525 2.13912e-18)
(1.36907 0.237568 7.91738e-18)
(1.40162 0.24574 -9.85821e-19)
(1.40677 0.245651 2.32072e-18)
(1.40501 0.25227 2.04886e-18)
(1.41819 0.243344 3.04239e-18)
(-0.0404203 0.0156784 1.76254e-18)
(-0.077301 0.016871 -5.88934e-18)
(-0.0972151 0.0093457 -1.25235e-18)
(-0.0961288 0.0151208 5.53066e-20)
(-0.0766224 0.019089 -9.47303e-18)
(0.11414 0.0181983 2.445e-18)
(0.631696 0.128277 -1.27221e-18)
(1.01077 0.186334 1.52563e-18)
(1.23422 0.22228 5.21552e-18)
(1.34692 0.238047 -1.89099e-18)
(1.39463 0.249863 -5.91829e-18)
(1.40652 0.251377 -7.41844e-19)
(1.40942 0.250561 -7.84332e-19)
(1.41196 0.255597 -1.67742e-18)
(1.40563 0.243746 -3.30309e-18)
(-0.0443824 0.0186375 3.67695e-19)
(-0.0817227 0.0248618 1.591e-18)
(-0.0937074 0.0202154 -4.11391e-18)
(-0.0827551 0.0295147 1.71696e-18)
(-0.0452792 0.00512493 3.93899e-18)
(0.305661 0.0734463 -1.66853e-18)
(0.798394 0.164969 -3.21726e-19)
(1.12203 0.214661 -3.92702e-18)
(1.29853 0.243012 7.74937e-19)
(1.38082 0.252871 -2.97779e-18)
(1.40621 0.259675 2.77502e-18)
(1.41471 0.257734 -2.14713e-18)
(1.41141 0.256115 3.5339e-18)
(1.40213 0.257063 -1.23212e-18)
(1.40572 0.246207 -2.36072e-18)
(-0.0466724 0.0198048 1.89663e-18)
(-0.0845582 0.0291315 1.18737e-18)
(-0.0885897 0.027765 1.06764e-18)
(-0.0765593 0.0347072 2.55894e-19)
(0.019425 -0.00889704 1.76244e-18)
(0.51237 0.117174 -4.26988e-18)
(0.943282 0.195135 2.3931e-18)
(1.20869 0.238448 5.61716e-18)
(1.34396 0.26049 -6.40014e-19)
(1.39955 0.26529 4.2748e-18)
(1.41617 0.269061 2.46672e-18)
(1.41485 0.263331 4.47207e-19)
(1.40684 0.261073 6.93336e-19)
(1.40586 0.26071 1.26944e-18)
(1.40149 0.249405 2.79293e-18)
(-0.0480653 0.0196035 2.87405e-18)
(-0.0860492 0.0298678 4.08299e-18)
(-0.0835394 0.0342723 -3.66258e-18)
(-0.0718273 0.0263235 3.32982e-18)
(0.137946 0.0234217 -7.56273e-18)
(0.682709 0.155801 1.84931e-18)
(1.05997 0.224086 -6.55445e-19)
(1.27488 0.259434 -3.46887e-18)
(1.37585 0.275014 -6.22532e-18)
(1.41419 0.276234 -2.39332e-18)
(1.41825 0.276785 -5.81157e-18)
(1.41507 0.26905 3.46123e-18)
(1.40838 0.2673 -4.36831e-18)
(1.39845 0.263361 2.75235e-18)
(1.39358 0.252265 1.74995e-18)
(-0.0494116 0.018205 -6.8017e-18)
(-0.0861349 0.0280921 2.28525e-19)
(-0.0830727 0.0376287 4.85169e-19)
(-0.0519593 -0.00020968 9.22569e-19)
(0.322011 0.0821188 5.0348e-19)
(0.834073 0.189897 3.6068e-18)
(1.15608 0.248057 1.97131e-18)
(1.32484 0.276593 -5.44587e-19)
(1.39772 0.287288 2.76367e-18)
(1.4193 0.285517 1.76716e-18)
(1.41988 0.28431 7.86137e-19)
(1.41377 0.274939 -1.9234e-18)
(1.40174 0.272561 6.02098e-18)
(1.39743 0.266976 9.86515e-19)
(1.39337 0.257132 -1.92833e-18)
(-0.0512207 0.0157886 6.2428e-18)
(-0.0849319 0.0266911 -4.45095e-18)
(-0.0875723 0.0344027 1.41416e-18)
(0.00358234 -0.0221525 -1.41421e-19)
(0.519733 0.126932 7.20656e-18)
(0.964451 0.218254 -5.9308e-19)
(1.22974 0.269352 -2.3762e-18)
(1.36031 0.291941 5.75688e-18)
(1.41065 0.297939 5.38039e-19)
(1.42365 0.294205 2.25677e-18)
(1.4183 0.29103 -4.51262e-18)
(1.4101 0.28054 1.18233e-19)
(1.40151 0.278831 -1.84218e-18)
(1.39299 0.270617 -3.19422e-19)
(1.38306 0.260653 -1.09707e-18)
(-0.0531735 0.0126206 -1.66884e-18)
(-0.0833783 0.0279935 4.63023e-18)
(-0.09121 0.0236745 2.81848e-18)
(0.102012 0.00101056 2.19795e-18)
(0.678422 0.165559 -1.16991e-18)
(1.07069 0.246344 -4.71423e-19)
(1.28766 0.288158 3.07989e-18)
(1.38573 0.304608 -2.44576e-18)
(1.41929 0.307205 7.3983e-19)
(1.42273 0.301852 -3.83489e-18)
(1.41578 0.297543 2.71234e-19)
(1.40795 0.286698 5.45374e-19)
(1.39513 0.284347 -7.60212e-19)
(1.38836 0.274173 -4.38049e-18)
(1.38267 0.266015 1.74776e-18)
(-0.0547042 0.00933396 -2.92624e-18)
(-0.0842059 0.0296089 -3.65379e-18)
(-0.0829458 0.00122455 1.94271e-18)
(0.255861 0.0620095 -2.41987e-19)
(0.816725 0.200959 -2.98462e-18)
(1.15854 0.2702 -1.12912e-19)
(1.33116 0.304341 -2.16781e-18)
(1.40252 0.316045 -4.24973e-18)
(1.42227 0.315687 -1.70782e-18)
(1.42187 0.309376 1.57969e-18)
(1.41284 0.303895 1.40905e-18)
(1.40274 0.292461 -1.38232e-19)
(1.39276 0.290319 -2.09137e-18)
(1.38543 0.278386 3.65252e-18)
(1.37324 0.270408 1.08028e-18)
(-0.0559657 0.00780788 2.87162e-18)
(-0.0897661 0.0266202 1.74236e-21)
(-0.0483935 -0.0262101 -4.74856e-18)
(0.441424 0.116106 -9.2213e-20)
(0.938986 0.229337 7.16841e-19)
(1.22711 0.291227 1.29164e-18)
(1.3631 0.318901 -2.29036e-18)
(1.41327 0.326042 1.17126e-18)
(1.42395 0.323495 -5.31954e-20)
(1.41859 0.316332 1.27203e-18)
(1.4084 0.309996 -1.11682e-18)
(1.39966 0.298763 -3.04747e-18)
(1.38716 0.295917 -1.45822e-19)
(1.37895 0.282114 -1.76801e-18)
(1.37063 0.275921 -1.4487e-18)
(-0.0569708 0.0105276 1.1633e-18)
(-0.0980035 0.0186136 -2.38815e-18)
(0.0191998 -0.0339518 2.40653e-18)
(0.606697 0.156807 -7.60969e-19)
(1.04269 0.256733 -4.13236e-19)
(1.28158 0.309973 -1.15142e-18)
(1.38591 0.331526 1.81638e-18)
(1.41948 0.335311 1.15553e-18)
(1.42226 0.331005 -6.82378e-19)
(1.41518 0.323342 -1.90548e-18)
(1.40478 0.316295 -6.76011e-19)
(1.39401 0.304757 3.12495e-18)
(1.38302 0.301544 1.85964e-18)
(1.37601 0.286715 1.76986e-18)
(1.36296 0.281162 -5.21798e-19)
(-0.0573056 0.0181708 -7.32079e-19)
(-0.103913 0.0058163 2.60986e-19)
(0.11919 -0.00250141 -9.89484e-19)
(0.740955 0.194047 -3.01419e-20)
(1.12884 0.282888 -7.60013e-19)
(1.3236 0.327197 -1.11991e-18)
(1.40148 0.343155 3.91136e-19)
(1.42208 0.343872 -2.28891e-18)
(1.42039 0.338271 2.00358e-18)
(1.41101 0.330119 2.51386e-18)
(1.3995 0.322346 3.06941e-19)
(1.38998 0.311107 -2.71054e-18)
(1.37791 0.307132 -2.55745e-18)
(1.3689 0.290881 -1.86574e-18)
(1.35802 0.286742 7.10265e-19)
(-0.0576042 0.0272639 -2.34667e-18)
(-0.0985514 -0.0112969 6.41441e-19)
(0.25408 0.0544713 -4.5789e-19)
(0.856629 0.226468 2.06626e-20)
(1.19867 0.306676 -1.98198e-19)
(1.35579 0.342882 -4.23916e-19)
(1.41179 0.353649 7.90454e-19)
(1.42263 0.352074 -4.44558e-19)
(1.41665 0.345476 -5.73023e-19)
(1.40634 0.336987 -1.09855e-18)
(1.39529 0.328731 -9.63885e-19)
(1.38424 0.317306 -4.36929e-19)
(1.37255 0.312556 1.59104e-18)
(1.36513 0.295838 -6.28424e-20)
(1.35171 0.292547 1.16664e-18)
(-0.0591561 0.0323583 9.76791e-19)
(-0.0762679 -0.0262699 1.65156e-18)
(0.410522 0.109063 2.67322e-19)
(0.957791 0.254516 1.01784e-18)
(1.25388 0.327355 2.19407e-18)
(1.37911 0.357026 8.003e-19)
(1.41791 0.363694 2.92071e-18)
(1.42114 0.360096 1.52146e-18)
(1.41299 0.352687 9.52539e-19)
(1.40172 0.343837 2.15322e-18)
(1.38963 0.334927 6.55173e-19)
(1.37933 0.323674 1.17621e-18)
(1.36748 0.318151 5.74486e-19)
(1.35797 0.300569 2.54484e-19)
(1.34519 0.298156 8.19241e-19)
(-0.0625614 0.0286274 1.35661e-18)
(-0.0352083 -0.0318827 -2.33281e-18)
(0.55983 0.155363 -4.56865e-19)
(1.04696 0.280985 1.04409e-18)
(1.29758 0.345742 -2.2047e-18)
(1.39573 0.369837 -8.92478e-19)
(1.42096 0.373121 -1.79765e-18)
(1.41883 0.368059 -5.65635e-20)
(1.40837 0.359992 -4.70889e-19)
(1.39637 0.350783 -1.813e-18)
(1.38481 0.341467 1.36092e-18)
(1.37349 0.330041 1.03276e-19)
(1.36134 0.323557 -5.58358e-20)
(1.35313 0.305872 4.49779e-19)
(1.33954 0.304186 -1.00056e-18)
(-0.0686089 0.0127931 -9.50634e-20)
(0.0233336 -0.0281975 9.91428e-19)
(0.687759 0.195079 2.7793e-19)
(1.12466 0.307383 -1.46475e-18)
(1.33251 0.362803 9.69875e-19)
(1.40684 0.381547 3.06393e-19)
(1.42154 0.382325 -8.01178e-19)
(1.41525 0.37609 -3.77381e-19)
(1.40371 0.367434 -1.13091e-18)
(1.39134 0.357844 1.95349e-19)
(1.37887 0.347902 -1.31842e-18)
(1.36782 0.336452 -9.16478e-19)
(1.35595 0.329214 2.3981e-19)
(1.34606 0.311128 2.38582e-19)
(1.33225 0.309753 -4.0947e-19)
(-0.0762675 -0.0127007 -5.05497e-19)
(0.108657 -0.00804079 -3.08707e-19)
(0.797744 0.229737 7.2313e-19)
(1.18944 0.332638 1.26171e-18)
(1.36002 0.379198 2.4105e-19)
(1.41416 0.392796 -6.62015e-19)
(1.42037 0.391296 8.28387e-19)
(1.41128 0.384179 7.16801e-19)
(1.39851 0.375029 3.68238e-19)
(1.3855 0.365001 6.78927e-20)
(1.37341 0.354635 4.24243e-19)
(1.36175 0.342961 1.83139e-19)
(1.3493 0.334728 -1.23336e-19)
(1.34026 0.316702 -1.55378e-19)
(1.32674 0.315699 1.311e-19)
(-0.0833434 -0.041297 -2.35829e-19)
(0.216479 0.0280201 -2.69045e-19)
(0.892649 0.259636 2.14939e-19)
(1.24328 0.356806 -3.00398e-19)
(1.38145 0.395187 -6.30845e-19)
(1.41847 0.403876 4.82566e-20)
(1.41791 0.400386 3.82701e-19)
(1.40643 0.392448 -3.43074e-19)
(1.39305 0.382785 2.25437e-19)
(1.37994 0.372321 4.5092e-19)
(1.36713 0.361336 7.12516e-20)
(1.35542 0.349442 1.74366e-19)
(1.3434 0.340478 -2.06474e-19)
(1.33323 0.322302 1.37381e-19)
(1.31925 0.321088 -9.9357e-20)
(-0.0857667 -0.0648339 -7.54083e-20)
(0.338746 0.072284 -2.89846e-20)
(0.975799 0.28655 -3.89666e-19)