/*--------------------------------*- C++ -*----------------------------------*\
  =========                 |
  \\      /  F ield         | OpenFOAM: The Open Source CFD Toolbox
   \\    /   O peration     | Website:  https://openfoam.org
    \\  /    A nd           | Version:  7
     \\/     M anipulation  |
\*---------------------------------------------------------------------------*/
FoamFile
{
    version     2.0;
    format      ascii;
    class       volScalarField;
    location    "6.9993";
    object      p;
}
// * * * * * * * * * * * * * * * * * * * * * * * * * * * * * * * * * * * * * //

dimensions      [0 2 -2 0 0 0 0];

internalField   nonuniform List<scalar> 
18750
(
-0.0180102
-0.0369173
-0.071635
-0.12263
-0.187606
-0.264854
-0.351634
-0.445017
-0.542011
-0.640139
-0.737105
-0.830317
-0.916492
-0.992034
-1.05356
-0.026237
-0.044654
-0.0789373
-0.129563
-0.194228
-0.271204
-0.357725
-0.450833
-0.547498
-0.64525
-0.741899
-0.835019
-0.921356
-0.997055
-1.05852
-0.0422356
-0.0597006
-0.0931239
-0.143011
-0.207043
-0.283452
-0.369429
-0.46196
-0.557953
-0.654942
-0.750917
-0.843755
-0.930323
-1.0064
-1.06803
-0.0651377
-0.0812419
-0.113401
-0.16219
-0.225262
-0.300784
-0.385898
-0.477523
-0.572494
-0.668337
-0.763243
-0.855486
-0.94223
-1.019
-1.08131
-0.0937439
-0.108135
-0.138673
-0.186043
-0.247835
-0.322146
-0.406061
-0.496442
-0.590051
-0.684389
-0.77782
-0.869073
-0.955835
-1.03365
-1.09735
-0.126637
-0.138977
-0.167628
-0.213333
-0.273566
-0.346357
-0.428746
-0.517554
-0.609484
-0.701998
-0.793594
-0.883466
-0.970038
-1.04926
-1.11519
-0.162271
-0.172194
-0.198855
-0.242747
-0.301199
-0.372203
-0.452773
-0.53971
-0.629687
-0.720131
-0.809634
-0.897815
-0.98397
-1.06489
-1.13397
-0.198971
-0.20623
-0.230959
-0.272989
-0.329508
-0.398518
-0.477032
-0.561852
-0.649659
-0.737866
-0.825127
-0.911429
-0.996955
-1.07966
-1.1527
-0.235054
-0.239595
-0.262655
-0.302849
-0.357351
-0.424232
-0.500517
-0.583039
-0.668516
-0.75439
-0.839377
-0.923737
-1.00843
-1.09268
-1.17016
-0.268955
-0.270978
-0.292813
-0.331244
-0.383716
-0.44841
-0.522365
-0.602468
-0.685515
-0.769021
-0.851775
-0.934206
-1.01786
-1.10314
-1.18506
-0.299289
-0.29936
-0.320477
-0.357242
-0.407756
-0.470275
-0.541857
-0.619479
-0.70004
-0.781168
-0.86175
-0.942307
-1.02477
-1.11034
-1.196
-0.324944
-0.324122
-0.344842
-0.38009
-0.428808
-0.489216
-0.558428
-0.63355
-0.711601
-0.790351
-0.868802
-0.94754
-1.02868
-1.11383
-1.20163
-0.345217
-0.34491
-0.365224
-0.399247
-0.446403
-0.50479
-0.57166
-0.644291
-0.719826
-0.796193
-0.872513
-0.949409
-1.02911
-1.11329
-1.20132
-0.3602
-0.361249
-0.381117
-0.414438
-0.460258
-0.516711
-0.581283
-0.651437
-0.724456
-0.798424
-0.872569
-0.947517
-1.02559
-1.10847
-1.1953
-0.370122
-0.37268
-0.392711
-0.425662
-0.470242
-0.524847
-0.587172
-0.654852
-0.725342
-0.796874
-0.86877
-0.941632
-1.01777
-1.09907
-1.18394
-0.375429
-0.379497
-0.400184
-0.43294
-0.476414
-0.52924
-0.589351
-0.654526
-0.722441
-0.791499
-0.861073
-0.931728
-1.0055
-1.08484
-1.16684
-0.376955
-0.382485
-0.403872
-0.436443
-0.478871
-0.529968
-0.587877
-0.650552
-0.7159
-0.782412
-0.849574
-0.917898
-0.988795
-1.06585
-1.14391
-0.375934
-0.382642
-0.404286
-0.436473
-0.477821
-0.527202
-0.582913
-0.643108
-0.705889
-0.769765
-0.83437
-0.900395
-0.967916
-1.04249
-1.11574
-0.373832
-0.380989
-0.401994
-0.4334
-0.473563
-0.5212
-0.5747
-0.632399
-0.692592
-0.753783
-0.815564
-0.879562
-0.943328
-1.0153
-1.0833
-0.372041
-0.378358
-0.397507
-0.427636
-0.466459
-0.512279
-0.563525
-0.618642
-0.676179
-0.734791
-0.793304
-0.855722
-0.9156
-0.984978
-1.04766
-0.37135
-0.375089
-0.391234
-0.419639
-0.4569
-0.500767
-0.549679
-0.602105
-0.656776
-0.713145
-0.767917
-0.829046
-0.885264
-0.951865
-1.01062
-0.371431
-0.370826
-0.383566
-0.409905
-0.445277
-0.486979
-0.533439
-0.583135
-0.634492
-0.689064
-0.739907
-0.799667
-0.852869
-0.915933
-0.972757
-0.370893
-0.364947
-0.375067
-0.398954
-0.431966
-0.471251
-0.515047
-0.562117
-0.609517
-0.662502
-0.709741
-0.767663
-0.8192
-0.877724
-0.933221
-0.368453
-0.357963
-0.366585
-0.387292
-0.417374
-0.454015
-0.494738
-0.539314
-0.582237
-0.633246
-0.677661
-0.732855
-0.784433
-0.838771
-0.892335
-0.364006
-0.352163
-0.358861
-0.375472
-0.402033
-0.435846
-0.472833
-0.514772
-0.553109
-0.601145
-0.643858
-0.695191
-0.747443
-0.799569
-0.851202
-0.358552
-0.349152
-0.352006
-0.364229
-0.386712
-0.417451
-0.449826
-0.488409
-0.522501
-0.566052
-0.608416
-0.655105
-0.707766
-0.759087
-0.809595
-0.353677
-0.3481
-0.34611
-0.354613
-0.372425
-0.399567
-0.426497
-0.460195
-0.490639
-0.527952
-0.570839
-0.612829
-0.666357
-0.716704
-0.767544
-0.350615
-0.347223
-0.342302
-0.347751
-0.360376
-0.382908
-0.403877
-0.430544
-0.457537
-0.487178
-0.530461
-0.568193
-0.623548
-0.672345
-0.72515
-0.349371
-0.346473
-0.341651
-0.343954
-0.35176
-0.368357
-0.38297
-0.400556
-0.423273
-0.444707
-0.486735
-0.521611
-0.578455
-0.625802
-0.684115
-0.349398
-0.346613
-0.343159
-0.343042
-0.347385
-0.35698
-0.364834
-0.371534
-0.388044
-0.402145
-0.439401
-0.471013
-0.529926
-0.577493
-0.647129
-0.35004
-0.347678
-0.345423
-0.344694
-0.34717
-0.349571
-0.350221
-0.345689
-0.352247
-0.361453
-0.389812
-0.425809
-0.477368
-0.530894
-0.604089
-0.350954
-0.349293
-0.34841
-0.348275
-0.349876
-0.346177
-0.339356
-0.324666
-0.318347
-0.323352
-0.342399
-0.382512
-0.429571
-0.487355
-0.55234
-0.351853
-0.351105
-0.351774
-0.352527
-0.353778
-0.345818
-0.332195
-0.308385
-0.290407
-0.288879
-0.303267
-0.342735
-0.391551
-0.450169
-0.50745
-0.352512
-0.352752
-0.354938
-0.356603
-0.35761
-0.34707
-0.328115
-0.296316
-0.269483
-0.261459
-0.272723
-0.311344
-0.361317
-0.419164
-0.47292
-0.352791
-0.353933
-0.35739
-0.359943
-0.36076
-0.349033
-0.326209
-0.288561
-0.255547
-0.242315
-0.252319
-0.288609
-0.338559
-0.393767
-0.444319
-0.35269
-0.354694
-0.35878
-0.362386
-0.363208
-0.351602
-0.326372
-0.285953
-0.24836
-0.231914
-0.241745
-0.274844
-0.322923
-0.373491
-0.420185
-0.352437
-0.355035
-0.359444
-0.364045
-0.365366
-0.355459
-0.330497
-0.289542
-0.249657
-0.230389
-0.239931
-0.270261
-0.313252
-0.358035
-0.400181
-0.352488
-0.355437
-0.360035
-0.365617
-0.369001
-0.362842
-0.341142
-0.300289
-0.258937
-0.237936
-0.245478
-0.271704
-0.308274
-0.346612
-0.383447
-0.353418
-0.356595
-0.361487
-0.368545
-0.375271
-0.374976
-0.357716
-0.316444
-0.274225
-0.251887
-0.255739
-0.276699
-0.306432
-0.338056
-0.369472
-0.355628
-0.359027
-0.364526
-0.373435
-0.384471
-0.390943
-0.375116
-0.335654
-0.292305
-0.268662
-0.268301
-0.283292
-0.306359
-0.33165
-0.357685
-0.359113
-0.362752
-0.369031
-0.379955
-0.395529
-0.408077
-0.390999
-0.352684
-0.31046
-0.285538
-0.280975
-0.290203
-0.307138
-0.326503
-0.347527
-0.363467
-0.367301
-0.374298
-0.38686
-0.406833
-0.420019
-0.405729
-0.366302
-0.326086
-0.300567
-0.292482
-0.29662
-0.308061
-0.32222
-0.338704
-0.368077
-0.371968
-0.37936
-0.392732
-0.417057
-0.425761
-0.414566
-0.376541
-0.338418
-0.312858
-0.302049
-0.302008
-0.308787
-0.318333
-0.330757
-0.372346
-0.376082
-0.383355
-0.396796
-0.422633
-0.428971
-0.416994
-0.382398
-0.347064
-0.322053
-0.309376
-0.306109
-0.308978
-0.314636
-0.323543
-0.375844
-0.379189
-0.385565
-0.399615
-0.420792
-0.429323
-0.415653
-0.384529
-0.352318
-0.328346
-0.314508
-0.308809
-0.308556
-0.310945
-0.316774
-0.378394
-0.381005
-0.386157
-0.400178
-0.412577
-0.42459
-0.411231
-0.383546
-0.354614
-0.332035
-0.31762
-0.310173
-0.3074
-0.307126
-0.310348
-0.379947
-0.381654
-0.384848
-0.397837
-0.40383
-0.415412
-0.404446
-0.38043
-0.354664
-0.333608
-0.319011
-0.310288
-0.305556
-0.303133
-0.304073
-0.380682
-0.381289
-0.382809
-0.3917
-0.398232
-0.405605
-0.396437
-0.375869
-0.353018
-0.333469
-0.318942
-0.309336
-0.303045
-0.298895
-0.297877
-0.380918
-0.380239
-0.381428
-0.381477
-0.393627
-0.396988
-0.388201
-0.370455
-0.350174
-0.332027
-0.31771
-0.307451
-0.299951
-0.294445
-0.291697
-0.380952
-0.378792
-0.3813
-0.370831
-0.387161
-0.389194
-0.380525
-0.364755
-0.346531
-0.32959
-0.315525
-0.304804
-0.296347
-0.28975
-0.285561
-0.380928
-0.377729
-0.380455
-0.367668
-0.380261
-0.381807
-0.373457
-0.359045
-0.342368
-0.326408
-0.312597
-0.30151
-0.292298
-0.284856
-0.279475
-0.380988
-0.378662
-0.377154
-0.372711
-0.376236
-0.375244
-0.366949
-0.353486
-0.33792
-0.322693
-0.309072
-0.297695
-0.287876
-0.279744
-0.273395
-0.381319
-0.382134
-0.371616
-0.377486
-0.37502
-0.370126
-0.361052
-0.348091
-0.333276
-0.318563
-0.305077
-0.293436
-0.283118
-0.274441
-0.267266
-0.382119
-0.386998
-0.367097
-0.377828
-0.374016
-0.366278
-0.355907
-0.342947
-0.328546
-0.314144
-0.300702
-0.288812
-0.278075
-0.268926
-0.261021
-0.383703
-0.391129
-0.369031
-0.375798
-0.372166
-0.363039
-0.351433
-0.338084
-0.323763
-0.309478
-0.296009
-0.283867
-0.272761
-0.263207
-0.254649
-0.38648
-0.392956
-0.377911
-0.375627
-0.369958
-0.359907
-0.347359
-0.333467
-0.318978
-0.304636
-0.291048
-0.278646
-0.267212
-0.257278
-0.24813
-0.390756
-0.392074
-0.388341
-0.378485
-0.368526
-0.356884
-0.343462
-0.328985
-0.314164
-0.29962
-0.285843
-0.273169
-0.261429
-0.251152
-0.241492
-0.397023
-0.389567
-0.395937
-0.382614
-0.368285
-0.35423
-0.339655
-0.324523
-0.309282
-0.294445
-0.280415
-0.267456
-0.255433
-0.244839
-0.23475
-0.405792
-0.388738
-0.399945
-0.386342
-0.368792
-0.352063
-0.335968
-0.320015
-0.304271
-0.289078
-0.274758
-0.261507
-0.249218
-0.238354
-0.227939
-0.416477
-0.393839
-0.401958
-0.388863
-0.369314
-0.350192
-0.332382
-0.315424
-0.299088
-0.283498
-0.268863
-0.255322
-0.242795
-0.231704
-0.221055
-0.428101
-0.405682
-0.404348
-0.390077
-0.369233
-0.348244
-0.32879
-0.310722
-0.293704
-0.277671
-0.262708
-0.248888
-0.236148
-0.224881
-0.214075
-0.439211
-0.421168
-0.408394
-0.390423
-0.36825
-0.345863
-0.325009
-0.305843
-0.288091
-0.27158
-0.256279
-0.242194
-0.229273
-0.217867
-0.206941
-0.447833
-0.435192
-0.413492
-0.390395
-0.366371
-0.342834
-0.320859
-0.300704
-0.282216
-0.265203
-0.249559
-0.235222
-0.222143
-0.210635
-0.199627
-0.452574
-0.444738
-0.417652
-0.390027
-0.363791
-0.339117
-0.316219
-0.295213
-0.276032
-0.258521
-0.242532
-0.227954
-0.214739
-0.20316
-0.192108
-0.453344
-0.449366
-0.419827
-0.389024
-0.360652
-0.334777
-0.31104
-0.289302
-0.269498
-0.25151
-0.235183
-0.220371
-0.20703
-0.19541
-0.184366
-0.451871
-0.450129
-0.419902
-0.38714
-0.356979
-0.329887
-0.305324
-0.282927
-0.262567
-0.244142
-0.227494
-0.212458
-0.199
-0.187348
-0.176346
-0.4498
-0.448547
-0.418185
-0.384273
-0.352723
-0.324476
-0.299085
-0.276066
-0.255208
-0.236388
-0.219445
-0.204203
-0.190633
-0.178946
-0.167958
-0.448252
-0.445896
-0.415135
-0.380452
-0.347824
-0.31853
-0.292325
-0.268707
-0.247392
-0.22822
-0.211012
-0.195589
-0.181938
-0.170216
-0.159069
-0.447683
-0.442887
-0.411135
-0.375753
-0.342235
-0.312013
-0.285031
-0.260835
-0.239099
-0.219614
-0.202172
-0.186604
-0.172923
-0.161213
-0.14957
-0.448053
-0.439835
-0.40646
-0.37026
-0.335932
-0.304878
-0.27717
-0.252428
-0.230306
-0.210547
-0.19291
-0.177238
-0.163596
-0.152004
-0.139476
-0.449013
-0.436825
-0.401259
-0.364027
-0.328889
-0.297072
-0.268702
-0.243459
-0.220993
-0.201006
-0.183221
-0.167501
-0.153959
-0.142546
-0.129031
-0.450042
-0.433804
-0.395577
-0.357066
-0.321073
-0.288544
-0.259579
-0.233895
-0.211142
-0.190985
-0.173116
-0.157421
-0.144047
-0.132634
-0.118599
-0.450585
-0.430535
-0.389343
-0.349343
-0.312439
-0.279242
-0.249759
-0.223712
-0.200748
-0.18049
-0.16261
-0.14703
-0.133894
-0.12215
-0.108229
-0.450213
-0.426515
-0.382388
-0.340787
-0.302936
-0.269121
-0.239211
-0.212903
-0.189815
-0.169528
-0.151713
-0.136326
-0.123377
-0.11124
-0.09782
-0.448525
-0.4213
-0.374492
-0.331299
-0.292516
-0.258151
-0.227928
-0.201474
-0.178351
-0.1581
-0.140411
-0.125268
-0.112434
-0.100046
-0.0872765
-0.445196
-0.414593
-0.365443
-0.320775
-0.281133
-0.246325
-0.215925
-0.189437
-0.166334
-0.146179
-0.128697
-0.113825
-0.101068
-0.0886403
-0.0765446
-0.439966
-0.406184
-0.355061
-0.309121
-0.268759
-0.233662
-0.20322
-0.176748
-0.153739
-0.133767
-0.116566
-0.101987
-0.0893271
-0.0770286
-0.0656127
-0.432651
-0.395947
-0.343206
-0.296268
-0.255403
-0.220188
-0.189748
-0.163384
-0.140565
-0.120867
-0.104016
-0.0897619
-0.0772658
-0.065199
-0.0544976
-0.423138
-0.383829
-0.329766
-0.282183
-0.241091
-0.20583
-0.17549
-0.149344
-0.126819
-0.107489
-0.0910525
-0.0771689
-0.0649125
-0.0531547
-0.0432256
-0.411375
-0.369862
-0.314664
-0.266865
-0.225756
-0.190563
-0.160449
-0.134637
-0.112514
-0.0936434
-0.0776908
-0.0642275
-0.0522811
-0.0409081
-0.0318088
-0.397353
-0.354122
-0.2979
-0.25027
-0.209335
-0.174389
-0.144637
-0.119277
-0.0976661
-0.0793499
-0.0639509
-0.0509567
-0.0393791
-0.0284665
-0.0202525
-0.381103
-0.336642
-0.279621
-0.232286
-0.191812
-0.157323
-0.128078
-0.10329
-0.0822988
-0.0646313
-0.049855
-0.0373746
-0.0262152
-0.0158332
-0.00858736
-0.362693
-0.317289
-0.259943
-0.212989
-0.173209
-0.139385
-0.110799
-0.0867015
-0.0664384
-0.0495115
-0.0354237
-0.0234995
-0.0128107
-0.0030363
0.00312156
-0.342249
-0.295779
-0.239039
-0.192525
-0.153582
-0.120608
-0.0928295
-0.0695448
-0.0501138
-0.0340122
-0.0206704
-0.00934792
0.000789721
0.00983447
0.0148216
-0.319931
-0.272067
-0.21691
-0.171029
-0.133014
-0.101035
-0.074208
-0.0518556
-0.033355
-0.0181506
-0.00559959
0.00506718
0.0145233
0.0226275
0.0264351
-0.295844
-0.246492
-0.193439
-0.148577
-0.111592
-0.0807243
-0.0549786
-0.0336731
-0.016192
-0.00194081
0.00978812
0.0197335
0.0283269
0.0351706
0.0376396
-0.269958
-0.219571
-0.168655
-0.125196
-0.089394
-0.0597441
-0.0351935
-0.01504
0.00134419
0.0146014
0.025483
0.0346239
0.0421389
0.0472948
0.0477803
-0.24223
-0.191745
-0.142721
-0.100916
-0.0664831
-0.0381643
-0.0149114
0.0039979
0.0192209
0.0314512
0.0414494
0.0496734
0.055871
0.0588711
0.0565835
-0.212852
-0.163087
-0.115821
-0.0758079
-0.0429235
-0.0160552
0.00580542
0.0233923
0.0374015
0.0485693
0.0576146
0.0647663
0.0694053
0.0700295
0.0652439
-0.182071
-0.133581
-0.0881073
-0.0499805
-0.0187896
0.00651203
0.0268931
0.0430919
0.0558426
0.0659
0.0738823
0.0797706
0.0826779
0.0813747
0.076367
-0.15012
-0.103264
-0.059706
-0.0235517
0.00583196
0.0294635
0.0482865
0.0630416
0.0744908
0.0833735
0.0901631
0.0946198
0.0957979
0.0932489
0.0921214
-0.117204
-0.0722288
-0.0307313
0.00336161
0.0308466
0.0527212
0.0699183
0.083181
0.0932829
0.100914
0.106396
0.109353
0.109022
0.105947
0.107455
-0.0835179
-0.0406054
-0.00129929
0.0306458
0.0561561
0.0762034
0.091718
0.103445
0.11215
0.118453
0.122552
0.124051
0.122513
0.119376
0.12184
-0.049243
-0.00853808
0.0284683
0.0581892
0.0816608
0.0998251
0.113612
0.123762
0.131022
0.135935
0.138624
0.138753
0.136208
0.133006
0.135317
-0.0145577
0.0238223
0.0584453
0.0858796
0.107261
0.1235
0.135522
0.144063
0.149834
0.153319
0.154609
0.153469
0.150061
0.146625
0.148146
0.0203648
0.0563254
0.0885027
0.113605
0.132857
0.147139
0.157371
0.164273
0.168526
0.170565
0.17048
0.168129
0.163872
0.159982
0.16057
0.0553541
0.0888225
0.118512
0.141252
0.15835
0.170655
0.179078
0.184323
0.187041
0.187636
0.186209
0.182703
0.177591
0.173065
0.172647
0.090244
0.121168
0.148344
0.168708
0.183639
0.193958
0.200565
0.204145
0.205322
0.204481
0.201733
0.197083
0.191085
0.185851
0.184438
0.124872
0.15322
0.177873
0.195863
0.208627
0.216961
0.221753
0.22367
0.223314
0.221056
0.217016
0.211243
0.204334
0.19832
0.195913
0.159079
0.184839
0.206977
0.222606
0.233216
0.239578
0.242567
0.242832
0.240957
0.237298
0.231983
0.225096
0.217278
0.210483
0.207074
0.192712
0.215892
0.235534
0.248832
0.257311
0.261725
0.262931
0.261565
0.258196
0.253164
0.2466
0.238616
0.229881
0.222279
0.217881
0.225622
0.246247
0.26343
0.274435
0.280821
0.283317
0.282772
0.279805
0.274968
0.268587
0.2608
0.251745
0.242122
0.233717
0.228315
0.257666
0.275779
0.290552
0.299317
0.303654
0.304277
0.30202
0.297489
0.29122
0.283527
0.274548
0.264447
0.253943
0.244733
0.238343
0.288707
0.304368
0.316791
0.323379
0.325724
0.324526
0.320604
0.314554
0.306893
0.297924
0.287793
0.276687
0.265335
0.255321
0.247939
0.318612
0.331898
0.342044
0.346528
0.346948
0.34399
0.338461
0.330942
0.321937
0.311737
0.300493
0.288416
0.27624
0.265438
0.257079
0.347258
0.358258
0.366213
0.368678
0.367248
0.362598
0.355524
0.346593
0.336296
0.324917
0.312612
0.299613
0.286644
0.275058
0.265736
0.374525
0.383346
0.389204
0.389743
0.386547
0.380283
0.371734
0.361458
0.349927
0.33742
0.324103
0.310228
0.296503
0.284156
0.273891
0.400302
0.407063
0.41093
0.409644
0.404774
0.39698
0.387033
0.37548
0.362781
0.349209
0.33494
0.320239
0.305792
0.292703
0.281523
0.424485
0.429317
0.431309
0.428307
0.421863
0.41263
0.401369
0.388614
0.374814
0.360241
0.34508
0.329609
0.314482
0.300678
0.288614
0.446976
0.450023
0.450263
0.445664
0.437752
0.427177
0.41469
0.400814
0.38599
0.370485
0.354497
0.33831
0.322544
0.308057
0.295149
0.467686
0.469104
0.467723
0.461651
0.452384
0.440571
0.426951
0.412039
0.396268
0.379905
0.363157
0.346315
0.329955
0.31482
0.301114
0.486531
0.486488
0.483626
0.476211
0.465707
0.452762
0.438109
0.422252
0.405616
0.388471
0.371034
0.353598
0.336692
0.32095
0.306497
0.503437
0.502117
0.497916
0.489291
0.477672
0.463708
0.448124
0.431416
0.414003
0.396156
0.378103
0.360134
0.342733
0.326432
0.311288
0.518339
0.515934
0.510543
0.500843
0.488237
0.473372
0.456964
0.439503
0.421402
0.402935
0.38434
0.365904
0.348061
0.33125
0.315481
0.531198
0.52788
0.521457
0.510824
0.497364
0.481718
0.464598
0.446484
0.427788
0.408787
0.389726
0.370887
0.352658
0.335393
0.319071
0.541987
0.537897
0.530616
0.519198
0.50502
0.488719
0.470999
0.452337
0.433141
0.413692
0.394242
0.375067
0.356509
0.338853
0.322054
0.550668
0.54595
0.537982
0.525934
0.511177
0.494348
0.476146
0.457043
0.437444
0.417635
0.397874
0.378429
0.359603
0.341622
0.324434
0.557211
0.552012
0.543528
0.531006
0.515814
0.498587
0.480021
0.460585
0.440684
0.420603
0.400608
0.380961
0.36193
0.343699
0.326213
0.561587
0.556063
0.547237
0.534398
0.518915
0.501421
0.482612
0.462954
0.442849
0.422587
0.402437
0.382653
0.363485
0.345082
0.327396
0.56378
0.558092
0.549094
0.536096
0.520468
0.502841
0.483909
0.46414
0.443933
0.423581
0.403353
0.383501
0.364263
0.345772
0.327985
0.56378
0.558092
0.549094
0.536096
0.520468
0.502841
0.483909
0.46414
0.443933
0.423581
0.403353
0.383501
0.364263
0.345772
0.327985
0.561587
0.556063
0.547237
0.534398
0.518915
0.501421
0.482612
0.462954
0.442849
0.422587
0.402437
0.382653
0.363485
0.345082
0.327396
0.557211
0.552012
0.543528
0.531006
0.515815
0.498587
0.480021
0.460586
0.440684
0.420603
0.400608
0.380961
0.36193
0.343699
0.326213
0.550668
0.54595
0.537982
0.525934
0.511177
0.494348
0.476146
0.457043
0.437444
0.417635
0.397874
0.378429
0.359603
0.341622
0.324434
0.541987
0.537898
0.530616
0.519198
0.50502
0.488719
0.470999
0.452337
0.433141
0.413692
0.394242
0.375067
0.356509
0.338853
0.322054
0.531198
0.52788
0.521457
0.510824
0.497364
0.481719
0.464598
0.446484
0.427788
0.408787
0.389726
0.370887
0.352658
0.335394
0.319071
0.518339
0.515934
0.510543
0.500843
0.488237
0.473372
0.456964
0.439503
0.421402
0.402935
0.384341
0.365904
0.348061
0.33125
0.315481
0.503437
0.502117
0.497917
0.489291
0.477672
0.463709
0.448124
0.431416
0.414003
0.396156
0.378103
0.360134
0.342733
0.326432
0.311288
0.486531
0.486488
0.483626
0.476211
0.465707
0.452762
0.438109
0.422252
0.405616
0.388471
0.371034
0.353598
0.336692
0.320951
0.306497
0.467686
0.469104
0.467723
0.461651
0.452384
0.440571
0.426951
0.412039
0.396268
0.379905
0.363158
0.346315
0.329955
0.31482
0.301114
0.446976
0.450023
0.450263
0.445664
0.437752
0.427178
0.41469
0.400814
0.38599
0.370485
0.354497
0.33831
0.322544
0.308057
0.295149
0.424485
0.429317
0.431309
0.428307
0.421863
0.41263
0.401369
0.388614
0.374815
0.360241
0.345081
0.329609
0.314482
0.300678
0.288614
0.400302
0.407063
0.410931
0.409644
0.404774
0.39698
0.387033
0.37548
0.362781
0.349209
0.334941
0.320239
0.305792
0.292703
0.281523
0.374525
0.383346
0.389205
0.389743
0.386547
0.380283
0.371734
0.361458
0.349927
0.33742
0.324103
0.310228
0.296503
0.284156
0.273891
0.347258
0.358259
0.366213
0.368678
0.367248
0.362598
0.355524
0.346594
0.336296
0.324917
0.312612
0.299613
0.286644
0.275058
0.265736
0.318612
0.331898
0.342044
0.346529
0.346949
0.34399
0.338461
0.330942
0.321937
0.311737
0.300493
0.288416
0.27624
0.265438
0.257079
0.288707
0.304368
0.316791
0.323379
0.325724
0.324526
0.320605
0.314554
0.306893
0.297924
0.287793
0.276687
0.265335
0.255321
0.247939
0.257666
0.275779
0.290552
0.299317
0.303654
0.304277
0.30202
0.297489
0.291221
0.283528
0.274549
0.264447
0.253943
0.244733
0.238343
0.225622
0.246247
0.26343
0.274436
0.280821
0.283318
0.282772
0.279805
0.274968
0.268587
0.2608
0.251745
0.242122
0.233717
0.228315
0.192712
0.215892
0.235535
0.248832
0.257312
0.261725
0.262931
0.261566
0.258196
0.253164
0.2466
0.238616
0.229882
0.222279
0.217882
0.159079
0.18484
0.206977
0.222606
0.233216
0.239579
0.242567
0.242832
0.240958
0.237298
0.231983
0.225096
0.217278
0.210483
0.207075
0.124872
0.15322
0.177873
0.195863
0.208627
0.216962
0.221753
0.22367
0.223315
0.221056
0.217017
0.211243
0.204334
0.19832
0.195913
0.0902443
0.121168
0.148344
0.168708
0.183639
0.193958
0.200565
0.204145
0.205322
0.204481
0.201733
0.197083
0.191085
0.185851
0.184438
0.0553544
0.0888229
0.118512
0.141252
0.15835
0.170655
0.179078
0.184324
0.187041
0.187636
0.186209
0.182703
0.177591
0.173065
0.172647
0.0203651
0.0563258
0.088503
0.113605
0.132858
0.147139
0.157371
0.164273
0.168526
0.170566
0.17048
0.16813
0.163872
0.159982
0.16057
-0.0145573
0.0238227
0.0584456
0.08588
0.107261
0.1235
0.135523
0.144063
0.149834
0.153319
0.154609
0.153469
0.150061
0.146625
0.148146
-0.0492426
-0.0085377
0.0284687
0.0581895
0.0816611
0.0998254
0.113612
0.123763
0.131022
0.135935
0.138625
0.138753
0.136208
0.133006
0.135317
-0.0835175
-0.040605
-0.00129891
0.0306462
0.0561564
0.0762037
0.0917183
0.103445
0.11215
0.118453
0.122552
0.124051
0.122513
0.119377
0.121841
-0.117204
-0.0722283
-0.0307309
0.003362
0.030847
0.0527216
0.0699186
0.0831814
0.0932832
0.100915
0.106396
0.109353
0.109022
0.105947
0.107456
-0.150119
-0.103263
-0.0597056
-0.0235512
0.00583235
0.0294639
0.0482869
0.0630419
0.0744911
0.0833738
0.0901634
0.0946201
0.0957982
0.0932492
0.0921217
-0.182071
-0.13358
-0.0881069
-0.0499801
-0.0187892
0.00651242
0.0268935
0.0430923
0.055843
0.0659003
0.0738827
0.0797709
0.0826783
0.081375
0.0763673
-0.212852
-0.163087
-0.11582
-0.0758075
-0.0429231
-0.0160548
0.00580582
0.0233927
0.0374019
0.0485697
0.0576149
0.0647666
0.0694056
0.0700299
0.0652442
-0.242229
-0.191745
-0.14272
-0.100915
-0.0664826
-0.0381639
-0.014911
0.0039983
0.0192213
0.0314516
0.0414498
0.0496738
0.0558714
0.0588714
0.0565838
-0.269958
-0.219571
-0.168654
-0.125196
-0.0893936
-0.0597436
-0.035193
-0.0150396
0.0013446
0.0146017
0.0254834
0.0346243
0.0421393
0.0472951
0.0477806
-0.295844
-0.246491
-0.193438
-0.148577
-0.111592
-0.0807238
-0.0549781
-0.0336727
-0.0161916
-0.00194041
0.00978851
0.0197338
0.0283272
0.035171
0.0376399
-0.31993
-0.272066
-0.21691
-0.171029
-0.133013
-0.101034
-0.0742076
-0.0518551
-0.0333545
-0.0181502
-0.00559918
0.00506757
0.0145236
0.0226279
0.0264355
-0.342248
-0.295778
-0.239038
-0.192525
-0.153582
-0.120607
-0.092829
-0.0695443
-0.0501134
-0.0340118
-0.0206699
-0.00934751
0.000790111
0.00983485
0.0148219
-0.362692
-0.317288
-0.259942
-0.212989
-0.173208
-0.139385
-0.110798
-0.086701
-0.066438
-0.0495111
-0.0354233
-0.0234991
-0.0128103
-0.00303591
0.00312194
-0.381102
-0.336641
-0.27962
-0.232286
-0.191811
-0.157322
-0.128078
-0.103289
-0.0822983
-0.0646308
-0.0498546
-0.0373742
-0.0262148
-0.0158328
-0.00858698
-0.397353
-0.354121
-0.297899
-0.250269
-0.209334
-0.174388
-0.144637
-0.119277
-0.0976656
-0.0793494
-0.0639504
-0.0509563
-0.0393787
-0.0284661
-0.0202521
-0.411374
-0.369861
-0.314663
-0.266864
-0.225756
-0.190562
-0.160448
-0.134636
-0.112513
-0.0936429
-0.0776904
-0.0642271
-0.0522807
-0.0409077
-0.0318084
-0.423138
-0.383828
-0.329765
-0.282182
-0.24109
-0.20583
-0.175489
-0.149344
-0.126819
-0.107488
-0.091052
-0.0771684
-0.0649121
-0.0531542
-0.0432252
-0.432651
-0.395946
-0.343205
-0.296267
-0.255402
-0.220188
-0.189747
-0.163384
-0.140565
-0.120867
-0.104015
-0.0897614
-0.0772654
-0.0651985
-0.0544972
-0.439965
-0.406183
-0.35506
-0.30912
-0.268758
-0.233661
-0.203219
-0.176748
-0.153739
-0.133766
-0.116566
-0.101986
-0.0893266
-0.0770281
-0.0656122
-0.445196
-0.414592
-0.365442
-0.320774
-0.281132
-0.246324
-0.215924
-0.189437
-0.166333
-0.146178
-0.128697
-0.113825
-0.101067
-0.0886398
-0.0765441
-0.448525
-0.421299
-0.374491
-0.331299
-0.292515
-0.25815
-0.227927
-0.201474
-0.17835
-0.158099
-0.140411
-0.125268
-0.112434
-0.100046
-0.087276
-0.450212
-0.426514
-0.382387
-0.340787
-0.302936
-0.26912
-0.23921
-0.212902
-0.189814
-0.169528
-0.151713
-0.136325
-0.123377
-0.11124
-0.0978195
-0.450584
-0.430534
-0.389342
-0.349342
-0.312438
-0.279241
-0.249758
-0.223712
-0.200747
-0.18049
-0.162609
-0.14703
-0.133893
-0.122149
-0.108229
-0.450041
-0.433803
-0.395576
-0.357065
-0.321073
-0.288544
-0.259578
-0.233894
-0.211141
-0.190985
-0.173115
-0.157421
-0.144046
-0.132634
-0.118599
-0.449013
-0.436824
-0.401258
-0.364026
-0.328889
-0.297072
-0.268701
-0.243458
-0.220992
-0.201005
-0.18322
-0.1675
-0.153958
-0.142546
-0.129031
-0.448052
-0.439834
-0.40646
-0.370259
-0.335932
-0.304877
-0.277169
-0.252428
-0.230305
-0.210546
-0.192909
-0.177237
-0.163595
-0.152004
-0.139475
-0.447682
-0.442886
-0.411134
-0.375752
-0.342235
-0.312012
-0.28503
-0.260834
-0.239098
-0.219613
-0.202172
-0.186603
-0.172923
-0.161213
-0.14957
-0.448251
-0.445896
-0.415134
-0.380451
-0.347823
-0.31853
-0.292325
-0.268706
-0.247391
-0.22822
-0.211011
-0.195588
-0.181937
-0.170215
-0.159069
-0.449799
-0.448547
-0.418184
-0.384272
-0.352722
-0.324475
-0.299084
-0.276066
-0.255207
-0.236387
-0.219444
-0.204202
-0.190632
-0.178946
-0.167958
-0.45187
-0.450128
-0.419901
-0.387139
-0.356978
-0.329887
-0.305323
-0.282926
-0.262566
-0.244141
-0.227493
-0.212458
-0.198999
-0.187347
-0.176345
-0.453343
-0.449365
-0.419826
-0.389023
-0.360651
-0.334776
-0.311039
-0.289302
-0.269497
-0.251509
-0.235182
-0.22037
-0.207029
-0.195409
-0.184366
-0.452573
-0.444737
-0.417651
-0.390027
-0.36379
-0.339116
-0.316218
-0.295212
-0.276032
-0.258521
-0.242531
-0.227953
-0.214738
-0.20316
-0.192107
-0.447832
-0.435191
-0.413491
-0.390394
-0.366371
-0.342833
-0.320858
-0.300703
-0.282215
-0.265202
-0.249558
-0.235221
-0.222142
-0.210635
-0.199626
-0.43921
-0.421167
-0.408393
-0.390422
-0.368249
-0.345862
-0.325008
-0.305842
-0.28809
-0.271579
-0.256279
-0.242193
-0.229273
-0.217867
-0.206941
-0.4281
-0.40568
-0.404347
-0.390076
-0.369233
-0.348243
-0.328789
-0.310721
-0.293703
-0.27767
-0.262708
-0.248887
-0.236148
-0.224881
-0.214074
-0.416476
-0.393838
-0.401957
-0.388862
-0.369313
-0.350191
-0.332381
-0.315423
-0.299087
-0.283497
-0.268862
-0.255321
-0.242795
-0.231703
-0.221055
-0.405791
-0.388737
-0.399944
-0.386341
-0.368791
-0.352062
-0.335967
-0.320014
-0.30427
-0.289077
-0.274757
-0.261506
-0.249218
-0.238354
-0.227939
-0.397022
-0.389566
-0.395936
-0.382613
-0.368285
-0.354229
-0.339654
-0.324522
-0.309281
-0.294445
-0.280415
-0.267456
-0.255432
-0.244839
-0.234749
-0.390755
-0.392073
-0.38834
-0.378484
-0.368525
-0.356883
-0.343461
-0.328985
-0.314163
-0.299619
-0.285843
-0.273168
-0.261428
-0.251152
-0.241492
-0.386479
-0.392955
-0.37791
-0.375626
-0.369957
-0.359906
-0.347358
-0.333466
-0.318977
-0.304635
-0.291047
-0.278646
-0.267211
-0.257278
-0.24813
-0.383702
-0.391128
-0.36903
-0.375797
-0.372165
-0.363038
-0.351432
-0.338083
-0.323763
-0.309478
-0.296008
-0.283866
-0.272761
-0.263206
-0.254649
-0.382118
-0.386997
-0.367097
-0.377827
-0.374015
-0.366277
-0.355906
-0.342946
-0.328545
-0.314144
-0.300701
-0.288811
-0.278075
-0.268925
-0.26102
-0.381318
-0.382133
-0.371615
-0.377485
-0.375019
-0.370125
-0.361051
-0.34809
-0.333275
-0.318563
-0.305076
-0.293435
-0.283117
-0.27444
-0.267265
-0.380987
-0.378661
-0.377153
-0.37271
-0.376235
-0.375243
-0.366948
-0.353485
-0.337919
-0.322692
-0.309072
-0.297694
-0.287875
-0.279743
-0.273394
-0.380928
-0.377728
-0.380454
-0.367667
-0.38026
-0.381806
-0.373456
-0.359045
-0.342367
-0.326408
-0.312596
-0.30151
-0.292297
-0.284856
-0.279475
-0.380951
-0.378791
-0.3813
-0.37083
-0.38716
-0.389193
-0.380524
-0.364754
-0.34653
-0.32959
-0.315524
-0.304803
-0.296346
-0.289749
-0.28556
-0.380917
-0.380238
-0.381427
-0.381476
-0.393626
-0.396988
-0.3882
-0.370454
-0.350173
-0.332026
-0.317709
-0.30745
-0.29995
-0.294444
-0.291697
-0.380681
-0.381288
-0.382808
-0.391699
-0.398231
-0.405604
-0.396437
-0.375868
-0.353018
-0.333468
-0.318941
-0.309335
-0.303044
-0.298895
-0.297876
-0.379946
-0.381653
-0.384847
-0.397836
-0.403829
-0.415411
-0.404446
-0.38043
-0.354663
-0.333607
-0.31901
-0.310288
-0.305555
-0.303133
-0.304072
-0.378393
-0.381005
-0.386156
-0.400177
-0.412576
-0.424589
-0.41123
-0.383545
-0.354613
-0.332034
-0.31762
-0.310173
-0.3074
-0.307125
-0.310347
-0.375843
-0.379189
-0.385564
-0.399614
-0.420792
-0.429322
-0.415653
-0.384528
-0.352317
-0.328346
-0.314507
-0.308808
-0.308555
-0.310944
-0.316773
-0.372345
-0.376081
-0.383354
-0.396795
-0.422632
-0.42897
-0.416993
-0.382397
-0.347063
-0.322053
-0.309375
-0.306108
-0.308977
-0.314635
-0.323543
-0.368076
-0.371967
-0.37936
-0.392731
-0.417056
-0.42576
-0.414565
-0.376541
-0.338417
-0.312858
-0.302048
-0.302007
-0.308787
-0.318332
-0.330756
-0.363466
-0.3673
-0.374297
-0.386859
-0.406833
-0.420018
-0.405728
-0.366302
-0.326085
-0.300566
-0.292481
-0.296619
-0.30806
-0.322219
-0.338703
-0.359112
-0.362751
-0.36903
-0.379954
-0.395528
-0.408076
-0.390998
-0.352684
-0.310459
-0.285537
-0.280974
-0.290202
-0.307137
-0.326502
-0.347526
-0.355628
-0.359026
-0.364525
-0.373434
-0.38447
-0.390942
-0.375116
-0.335653
-0.292304
-0.268661
-0.2683
-0.283291
-0.306358
-0.331649
-0.357684
-0.353417
-0.356594
-0.361486
-0.368544
-0.37527
-0.374975
-0.357715
-0.316443
-0.274224
-0.251886
-0.255738
-0.276698
-0.306431