/*--------------------------------*- C++ -*----------------------------------*\
  =========                 |
  \\      /  F ield         | OpenFOAM: The Open Source CFD Toolbox
   \\    /   O peration     | Website:  https://openfoam.org
    \\  /    A nd           | Version:  7
     \\/     M anipulation  |
\*---------------------------------------------------------------------------*/
FoamFile
{
    version     2.0;
    format      ascii;
    class       volVectorField;
    location    "5";
    object      U;
}
// * * * * * * * * * * * * * * * * * * * * * * * * * * * * * * * * * * * * * //

dimensions      [0 1 -1 0 0 0 0];

internalField   nonuniform List<vector> 
8500
(
(-0.0188212 0.0136334 -7.45967e-20)
(-0.0805656 0.0233499 -1.77572e-19)
(-0.17163 0.025507 -3.05499e-19)
(-0.260665 0.0253406 3.17281e-19)
(-0.348433 0.0247103 -3.08339e-19)
(-0.434476 0.0238753 -1.78859e-19)
(-0.517607 0.022679 3.34029e-19)
(-0.596117 0.0209588 4.47357e-19)
(-0.668089 0.0186267 -8.2703e-20)
(-0.730914 0.0157517 2.50689e-19)
(-0.0197935 0.0402076 3.87202e-20)
(-0.0805591 0.0692476 2.49159e-19)
(-0.169253 0.0758888 -7.43024e-19)
(-0.255847 0.0754926 6.98881e-19)
(-0.34091 0.0736308 2.75694e-20)
(-0.423829 0.0711255 5.85126e-19)
(-0.503281 0.0675265 -1.10873e-18)
(-0.577398 0.0623541 -1.77504e-18)
(-0.644067 0.0553419 -3.83018e-19)
(-0.700639 0.0467286 9.06656e-19)
(-0.0216239 0.0647506 9.66543e-20)
(-0.0805095 0.11277 6.90026e-19)
(-0.164595 0.124391 1.63716e-18)
(-0.246433 0.124076 -1.56505e-18)
(-0.326254 0.121077 -3.9337e-19)
(-0.403156 0.116909 -3.76352e-19)
(-0.47558 0.110887 2.00328e-18)
(-0.541418 0.102245 1.33636e-18)
(-0.598193 0.0905229 3.63113e-19)
(-0.643253 0.076182 -2.8181e-18)
(-0.024097 0.0860593 3.45059e-19)
(-0.0803466 0.152431 -3.96251e-19)
(-0.157834 0.169815 -3.12633e-18)
(-0.232844 0.170108 2.72701e-19)
(-0.305187 0.166149 9.35521e-19)
(-0.373589 0.160357 -8.03712e-19)
(-0.436214 0.151913 -3.85092e-20)
(-0.490729 0.139821 -3.88433e-19)
(-0.534219 0.123407 9.23758e-19)
(-0.564058 0.103295 2.87511e-18)
(-0.026921 0.103148 2.47262e-19)
(-0.0799725 0.186886 -1.3683e-18)
(-0.149222 0.211036 3.29623e-18)
(-0.215653 0.21268 -1.56331e-18)
(-0.278674 0.208049 4.40067e-23)
(-0.336605 0.200732 2.44421e-18)
(-0.387337 0.189925 -1.19912e-18)
(-0.428441 0.174488 1.86714e-19)
(-0.456631 0.153562 -5.39588e-19)
(-0.469007 0.127533 2.34692e-19)
(-0.0297611 0.115316 3.00605e-18)
(-0.0792729 0.214985 3.5647e-18)
(-0.139063 0.247017 -9.03375e-19)
(-0.195543 0.25097 1.80562e-18)
(-0.247826 0.24609 6.12103e-19)
(-0.293853 0.237435 -8.84851e-19)
(-0.331263 0.224418 -3.4535e-19)
(-0.357691 0.205847 -1.84888e-18)
(-0.369912 0.180901 3.9891e-19)
(-0.363481 0.148682 -2.75149e-18)
(-0.0322792 0.122196 -2.90698e-18)
(-0.078131 0.235811 -1.88036e-18)
(-0.127702 0.276822 1.57546e-18)
(-0.173266 0.284232 -2.81996e-18)
(-0.213821 0.279681 3.81413e-19)
(-0.247015 0.269978 3.74056e-18)
(-0.270268 0.255022 -6.78967e-19)
(-0.28127 0.233615 -3.07388e-19)
(-0.278083 0.205548 2.58094e-18)
(-0.251777 0.166987 -6.00585e-19)
(-0.0341651 0.123764 2.55453e-18)
(-0.0764465 0.24874 -4.50929e-18)
(-0.115524 0.299629 -1.81654e-18)
(-0.14962 0.311768 2.14051e-18)
(-0.17786 0.308294 1.04069e-19)
(-0.19772 0.297939 -7.01411e-18)
(-0.20653 0.281439 2.41248e-18)
(-0.20153 0.25758 1.67883e-18)
(-0.184408 0.227478 -5.05355e-18)
(-0.137368 0.183434 2.85142e-18)
(-0.0351676 0.120392 -1.42963e-18)
(-0.0741354 0.253505 6.59927e-19)
(-0.102959 0.314763 1.6571e-18)
(-0.125438 0.332889 -1.5681e-18)
(-0.141151 0.331422 -5.68021e-18)
(-0.147527 0.320926 2.07863e-18)
(-0.142118 0.303367 -1.08993e-18)
(-0.120689 0.277686 9.63658e-19)
(-0.0909023 0.245705 8.63652e-18)
(-0.0235178 0.199777 -4.10184e-18)
(-0.035143 0.112777 2.32431e-18)
(-0.0711444 0.250189 2.05941e-18)
(-0.0904494 0.321644 -3.05352e-19)
(-0.101602 0.346927 7.73013e-18)
(-0.104905 0.348539 3.3619e-18)
(-0.0979232 0.338523 2.67895e-18)
(-0.0788798 0.320403 1.90868e-18)
(-0.0412394 0.29342 -5.80453e-18)
(0.000120539 0.259694 -2.89266e-18)
(0.0889675 0.215784 -5.01619e-18)
(-0.0340522 0.101867 -1.90157e-19)
(-0.0674911 0.239319 -3.25289e-18)
(-0.0784398 0.319932 -2.34904e-18)
(-0.0790095 0.353241 -3.8295e-18)
(-0.0703927 0.359021 -3.21773e-18)
(-0.0504128 0.350201 3.28691e-18)
(-0.0187839 0.33198 -2.68843e-18)
(0.0351685 0.303985 2.56517e-18)
(0.0848718 0.268989 3.3415e-19)
(0.197236 0.229013 1.35185e-18)
(-0.0319666 0.0887835 -6.47486e-18)
(-0.0632344 0.221913 2.98952e-18)
(-0.0673933 0.309665 2.18654e-18)
(-0.0585655 0.351215 2.75777e-18)
(-0.0389308 0.362129 -3.97363e-18)
(-0.00652342 0.355325 -2.51909e-18)
(0.0361444 0.337456 3.79626e-18)
(0.106518 0.309104 1.18869e-18)
(0.160897 0.272391 2.8612e-18)
(0.29495 0.236011 -3.81741e-18)
(-0.0290651 0.0747 5.42495e-18)
(-0.0584825 0.199443 2.12297e-18)
(-0.0577256 0.29134 1.3499e-19)
(-0.0411472 0.340446 -1.27498e-18)
(-0.0118571 0.357071 -8.87745e-19)
(0.0320987 0.353135 1.89597e-18)
(0.0839463 0.335931 -2.17329e-18)
(0.170203 0.308182 -3.6565e-18)
(0.226549 0.270347 -7.71531e-18)
(0.3762 0.233059 5.80471e-18)
(-0.0256202 0.0607056 3.63325e-18)
(-0.0534171 0.173723 -5.7214e-18)
(-0.0497606 0.26603 -4.36307e-18)
(-0.0275009 0.320949 1.85898e-18)
(0.00959979 0.343143 3.90625e-18)
(0.06368 0.342754 4.47889e-18)
(0.122799 0.32633 -2.52721e-18)
(0.223342 0.299727 7.97857e-18)
(0.278922 0.263315 -2.35954e-18)
(0.438817 0.219762 -6.6615e-18)
(-0.0219736 0.0476991 -2.7118e-19)
(-0.0483244 0.146713 3.19865e-18)
(-0.043717 0.235411 -1.47425e-18)
(-0.0181294 0.293383 1.41965e-19)
(0.024535 0.320045 1.53058e-18)
(0.0865135 0.323359 -5.33119e-18)
(0.15123 0.307659 5.05516e-18)
(0.263413 0.282298 -5.03266e-18)
(0.314038 0.24924 8.82402e-18)
(0.4882 0.197897 3.43545e-18)
(-0.0185073 0.0363308 -1.688e-18)
(-0.043612 0.12027 6.10419e-18)
(-0.0397275 0.201628 -1.48223e-18)
(-0.0131928 0.259203 1.51306e-18)
(0.0326041 0.288287 1.68776e-18)
(0.0994519 0.294604 -4.56351e-19)
(0.168772 0.279416 3.97081e-18)
(0.288389 0.255707 1.17107e-19)
(0.331538 0.224287 -5.70154e-18)
(0.5384 0.17036 7.74685e-18)
(-0.0156116 0.0269968 -3.05421e-18)
(-0.0397806 0.0959304 -5.74804e-18)
(-0.03786 0.167005 4.91708e-18)
(-0.0124373 0.220595 2.40134e-18)
(0.0342209 0.249465 -1.13203e-17)
(0.102743 0.257159 9.25187e-18)
(0.177007 0.242512 -8.77041e-18)
(0.298187 0.22087 5.72705e-21)
(0.344608 0.188466 -2.23021e-18)
(0.605794 0.142593 -7.26847e-18)
(-0.0136466 0.0198722 2.57476e-18)
(-0.0373297 0.074784 -3.14842e-19)
(-0.0380748 0.133724 -1.21064e-18)
(-0.0151134 0.180234 -1.67899e-19)
(0.0307992 0.206234 -6.09471e-19)
(0.0991063 0.213223 -3.03277e-18)
(0.180613 0.200123 1.44258e-18)
(0.300609 0.17944 -2.1367e-18)
(0.383278 0.150218 6.36981e-19)
(0.695408 0.120259 1.65571e-19)
(-0.0128902 0.0149552 -5.23657e-18)
(-0.0366029 0.0574647 -3.30972e-19)
(-0.0400682 0.103595 5.29522e-19)
(-0.0198076 0.140946 2.00388e-19)
(0.0251891 0.162025 3.62368e-18)
(0.0945534 0.166728 -1.04299e-17)
(0.18834 0.157079 7.26676e-18)
(0.315869 0.135861 -5.5333e-18)
(0.476217 0.122669 5.13883e-18)
(0.793885 0.105253 6.27864e-18)
(-0.0134727 0.0120983 -5.99467e-19)
(-0.0376136 0.0442022 2.83578e-18)
(-0.043055 0.0779498 -3.47663e-18)
(-0.0242209 0.105384 -1.0702e-18)
(0.0220772 0.120595 2.03049e-18)
(0.0981719 0.122791 9.81447e-18)
(0.212886 0.118479 -2.04877e-18)
(0.369358 0.0992676 1.02867e-18)
(0.617878 0.111359 -5.71515e-18)
(0.881656 0.0941963 2.69944e-18)
(-0.015327 0.0110248 -1.83929e-18)
(-0.0399223 0.0348624 -1.39334e-18)
(-0.0456555 0.0575923 3.38664e-19)
(-0.0251741 0.0756732 1.35001e-18)
(0.0275846 0.0853744 -3.90593e-18)
(0.120141 0.0863379 -1.57879e-18)
(0.267022 0.0885169 -4.98304e-18)
(0.473664 0.0795672 5.46719e-18)
(0.768263 0.10944 6.05521e-18)
(0.950798 0.0800458 -2.9035e-18)
(-0.0181716 0.0113123 -8.47758e-19)
(-0.0426906 0.0289853 3.52623e-18)
(-0.0460377 0.0427201 -3.87568e-18)
(-0.0191466 0.0530345 -4.32363e-19)
(0.0476934 0.0586388 -1.76723e-18)
(0.168209 0.0606139 3.86118e-18)
(0.357546 0.0703773 5.08018e-18)
(0.614224 0.0778305 -4.99383e-18)
(0.895267 0.1075 5.50082e-18)
(1.09338 0.0897587 7.30872e-19)
(-0.0215396 0.0124363 -2.48048e-18)
(-0.0448693 0.025824 -7.05537e-18)
(-0.0423379 0.0328483 6.81876e-18)
(-0.00316366 0.0375106 9.7672e-19)
(0.086485 0.0409597 1.41098e-18)
(0.245116 0.0465959 8.30213e-19)
(0.480085 0.0655426 3.85981e-18)
(0.760179 0.0848885 2.93102e-18)
(1.01899 0.112847 -1.07629e-17)
(1.19221 0.101769 -5.51581e-18)
(-0.0248912 0.0138417 3.43354e-18)
(-0.0454032 0.0243912 -8.3075e-19)
(-0.0330912 0.0269008 -3.83083e-18)
(0.024584 0.0280425 7.36802e-19)
(0.14544 0.0314609 1.1733e-18)
(0.348261 0.0435001 -8.40152e-18)
(0.61905 0.0713054 3.72112e-18)
(0.89694 0.0962851 -2.62714e-18)
(1.11897 0.121584 2.80115e-18)
(1.25118 0.112356 -9.8344e-19)
(-0.0277268 0.0150233 3.41587e-18)
(-0.0433961 0.0236359 7.61056e-18)
(-0.0173577 0.0234821 2.23259e-19)
(0.0648157 0.0229953 -1.03777e-18)
(0.223943 0.0288203 4.24508e-20)
(0.470237 0.0493585 9.27569e-20)
(0.7581 0.083257 -5.68237e-18)
(1.01408 0.109619 6.74526e-19)
(1.19407 0.130917 7.37248e-18)
(1.29842 0.12189 3.50611e-18)
(-0.0296659 0.0156123 -5.81564e-21)
(-0.0381969 0.0226701 -1.53389e-18)
(0.00547251 0.021238 6.24998e-18)
(0.11774 0.0209134 1.64356e-19)
(0.319826 0.032098 -2.67121e-18)
(0.600707 0.0615388 7.17843e-18)
(0.885675 0.0981729 1.59258e-18)
(1.10878 0.123322 1.02395e-19)
(1.25053 0.140341 -3.20267e-18)
(1.32268 0.13087 -4.2996e-18)
(-0.0304212 0.0154108 4.31559e-18)
(-0.0293331 0.0209058 -1.1972e-18)
(0.0358905 0.0192204 -3.76536e-18)
(0.183521 0.0211747 2.46836e-19)
(0.429151 0.0406876 4.36191e-18)
(0.729514 0.0775437 -4.34281e-18)
(0.996013 0.114247 -2.45489e-18)
(1.1827 0.136855 -5.7112e-19)
(1.28868 0.149439 -1.80669e-18)
(1.33891 0.138833 2.08673e-18)
(-0.0298116 0.0144314 -1.5906e-18)
(-0.01631 0.0181322 -9.29974e-18)
(0.0745011 0.0171155 9.66563e-19)
(0.262101 0.0241443 2.50052e-18)
(0.546095 0.053794 1.62107e-18)
(0.849153 0.0955867 -5.72651e-18)
(1.08756 0.130564 5.18597e-18)
(1.23789 0.149852 -5.86181e-18)
(1.3147 0.158078 -8.64595e-19)
(1.34566 0.146757 1.02517e-18)
(-0.0277428 0.0127932 -1.73539e-18)
(0.00138654 0.0144647 3.30309e-18)
(0.122106 0.0152979 4.27237e-18)
(0.352443 0.030687 -5.22769e-18)
(0.663977 0.0703414 2.97763e-18)
(0.955306 0.114564 4.47865e-18)
(1.16088 0.146608 1.31634e-18)
(1.27798 0.162222 3.64902e-18)
(1.33037 0.166456 2.60344e-18)
(1.34772 0.15435 -2.8367e-18)
(-0.0240786 0.0106693 -2.23785e-18)
(0.024289 0.0102945 -7.44973e-19)
(0.179438 0.0147336 -7.7311e-18)
(0.45184 0.0413661 -1.20684e-18)
(0.776902 0.0892716 -1.43702e-19)
(1.04619 0.133802 4.02411e-19)
(1.21794 0.162142 -8.06192e-18)
(1.30573 0.174004 1.45802e-18)
(1.33923 0.174594 5.86903e-20)
(1.3463 0.162145 1.93417e-18)
(-0.0186468 0.00825713 -5.84103e-19)
(0.0529612 0.00617543 2.69238e-18)
(0.24671 0.0167084 3.77279e-18)
(0.556065 0.0560559 2.34531e-18)
(0.880733 0.109744 -6.97947e-19)
(1.12176 0.152909 -5.72118e-19)
(1.26102 0.177091 6.13266e-18)
(1.32412 0.185295 5.63005e-19)
(1.3429 0.182729 8.77389e-19)
(1.34264 0.170061 -1.17009e-18)
(-0.0112435 0.00574465 5.56027e-18)
(0.0879235 0.00276985 3.56038e-18)
(0.323168 0.0223878 -3.57918e-18)
(0.660389 0.0741584 -7.10965e-19)
(0.973152 0.131165 3.69223e-19)
(1.18302 0.17168 -1.34371e-18)
(1.29258 0.191492 -1.06911e-18)
(1.33531 0.196255 -2.32852e-18)
(1.34311 0.190931 -3.79721e-18)
(1.33772 0.178286 1.86682e-18)
(-0.00165043 0.00330325 6.89865e-19)
(0.129532 0.000828331 -1.938e-18)
(0.406912 0.0324333 4.55495e-18)
(0.760694 0.0949755 2.95976e-18)
(1.05327 0.15314 8.69342e-20)
(1.23151 0.190042 2.09049e-18)
(1.31481 0.205452 -5.01079e-19)
(1.34121 0.207025 -1.8751e-18)
(1.34087 0.199349 4.73149e-18)
(1.33178 0.186802 1.25066e-18)
(0.0103422 0.00110329 -4.58616e-18)
(0.177839 0.00115759 -1.33454e-18)
(0.495135 0.0469212 -1.19583e-18)
(0.854031 0.117905 -2.07845e-18)
(1.12114 0.175411 4.82136e-19)
(1.26892 0.208008 1.29913e-20)
(1.32965 0.219102 1.61433e-18)
(1.34316 0.217753 -1.9032e-18)
(1.33692 0.208035 -2.83093e-18)
(1.32527 0.195635 -1.91209e-18)
(0.0249098 -0.000657033 3.73979e-19)
(0.23247 0.00454313 2.16553e-18)
(0.584664 0.065534 1.04475e-18)
(0.938628 0.142486 -3.24093e-18)
(1.17743 0.197817 -1.65346e-19)
(1.29694 0.225642 -1.37872e-18)
(1.33867 0.232586 3.65969e-20)
(1.3422 0.22855 6.57918e-19)
(1.33172 0.217052 -7.46124e-19)
(1.31818 0.204756 2.10762e-18)
(0.0421698 -0.00172774 8.8312e-19)
(0.292564 0.011641 -2.12741e-18)
(0.67251 0.0877928 -4.98724e-18)
(1.01363 0.168377 4.55755e-18)
(1.22312 0.220271 -3.38154e-19)
(1.3171 0.243034 9.95315e-19)
(1.34315 0.246029 -1.4194e-19)
(1.33906 0.239505 9.72403e-19)
(1.32555 0.226409 -6.68014e-20)
(1.31065 0.214127 -1.63616e-18)
(0.0621614 -0.00179959 -1.81112e-18)
(0.356808 0.0228955 2.77839e-18)
(0.756226 0.113192 2.27257e-18)
(1.07878 0.195312 -3.25242e-18)
(1.2593 0.242734 -5.33644e-19)
(1.33075 0.260283 2.0221e-19)
(1.34404 0.259535 2.04834e-18)
(1.33421 0.250671 1.09097e-19)
(1.31857 0.236106 4.12015e-19)
(1.30262 0.2237 -8.89837e-19)
(0.084821 -0.000523997 1.37534e-18)
(0.423559 0.0385094 -1.21703e-18)
(0.83403 0.141256 -1.03451e-18)
(1.13426 0.223067 1.74411e-18)
(1.28708 0.2652 5.9501e-19)
(1.33898 0.277479 4.49234e-19)
(1.34207 0.273177 -2.0844e-18)
(1.32798 0.262077 -7.24619e-19)
(1.31084 0.246115 -6.58229e-19)
(1.29411 0.233409 2.92248e-19)
(0.109966 0.0024439 -4.11632e-19)
(0.491021 0.0584593 -3.82466e-19)
(0.904754 0.171565 1.95828e-18)
(1.18044 0.251445 -7.06663e-19)
(1.30747 0.287662 -3.08645e-19)
(1.3427 0.294689 -2.01537e-19)
(1.33775 0.286997 5.05335e-19)
(1.32054 0.273718 8.81987e-19)
(1.30237 0.256388 -2.6975e-20)
(1.28507 0.243188 3.31495e-19)
(0.137289 0.00739829 -1.26654e-19)
(0.55741 0.0825324 5.01118e-19)
(0.967709 0.203742 -4.30133e-19)
(1.21787 0.280259 -2.62731e-19)
(1.32137 0.31011 2.03791e-19)
(1.34262 0.311956 1.4182e-19)
(1.33143 0.301002 -7.97073e-20)
(1.312 0.285569 1.372e-19)
(1.29317 0.266856 3.54024e-20)
(1.2755 0.25296 -1.06556e-19)
(0.166364 0.0145511 5.48188e-20)
(0.621096 0.110366 4.1516e-19)
(1.02257 0.237435 -3.22425e-19)
(1.24716 0.309332 -3.07872e-19)
(1.32958 0.332512 2.03719e-19)
(1.33927 0.329289 1.32451e-19)
(1.32335 0.31517 -2.10388e-19)
(1.3024 0.297574 2.13548e-19)
(1.2832 0.277435 1.93104e-20)
(1.26536 0.26265 -1.02866e-19)
(0.196655 0.0240232 2.14238e-19)
(0.680691 0.141485 -1.90632e-19)
(1.06927 0.272292 1.36273e-18)
(1.26892 0.338496 -5.90347e-19)
(1.33275 0.354823 -2.84327e-19)
(1.33306 0.346663 -3.20501e-19)
(1.31365 0.32945 6.57269e-19)
(1.29174 0.309662 4.44591e-19)
(1.27243 0.288024 3.60109e-19)
(1.25463 0.27219 2.00546e-19)
(0.227542 0.0358542 2.1888e-18)
(0.735102 0.175334 -1.17689e-18)
(1.1079 0.307953 -1.29854e-18)
(1.28377 0.367592 1.72353e-18)
(1.33144 0.376978 8.93401e-19)
(1.3243 0.364028 -6.01387e-20)
(1.30241 0.34377 -1.10163e-18)
(1.28 0.321741 -7.98373e-19)
(1.26081 0.298521 -8.49855e-19)
(1.24322 0.281507 5.13874e-19)
(0.258352 0.050013 -2.97071e-18)
(0.78355 0.211326 2.7368e-18)
(1.13865 0.344047 3.06243e-18)
(1.29227 0.396454 -2.92875e-18)
(1.32612 0.398892 -9.96189e-19)
(1.31319 0.381302 6.38424e-19)
(1.28968 0.358038 1.16241e-18)
(1.26714 0.333721 1.85745e-19)
(1.24826 0.308821 -3.68551e-20)
(1.23103 0.290523 -7.10398e-19)
(0.288399 0.0663954 -4.35671e-19)
(0.825547 0.248886 -3.8683e-18)
(1.16179 0.380207 -4.01298e-18)
(1.29493 0.424905 4.36281e-18)
(1.31715 0.420458 -4.89334e-19)
(1.2999 0.398381 8.96909e-19)
(1.27549 0.372148 1.79885e-19)
(1.25315 0.34551 -5.02625e-19)
(1.23473 0.318857 2.68663e-19)
(1.21784 0.299174 -3.83466e-20)
(0.317022 0.0848267 8.82971e-19)
(0.860808 0.287458 2.4142e-18)
(1.17765 0.416073 1.31682e-18)
(1.29222 0.452751 -1.00934e-18)
(1.30486 0.441549 -1.54678e-18)
(1.28454 0.415144 -1.42869e-18)
(1.25982 0.385977 -2.90878e-19)
(1.238 0.357009 7.84192e-19)
(1.22025 0.32862 -1.64851e-19)
(1.20351 0.307438 3.91026e-19)
(0.343611 0.105067 -3.38293e-18)
(0.889208 0.326507 -3.04803e-18)
(1.1866 0.451288 -4.61412e-19)
(1.28456 0.479789 -5.1276e-19)
(1.28949 0.462021 -1.14668e-18)
(1.26719 0.431454 6.97646e-19)
(1.24268 0.399389 -1.25094e-19)
(1.22166 0.368077 -1.25691e-18)
(1.20484 0.338122 -2.27711e-19)
(1.18816 0.315307 -1.74825e-18)
(0.367632 0.126822 7.79686e-19)
(0.910752 0.365517 2.57429e-18)
(1.18903 0.48551 2.14301e-18)
(1.27233 0.505806 2.28497e-18)
(1.27125 0.481718 3.9175e-20)
(1.24792 0.447168 1.97154e-18)
(1.22408 0.412247 -1.20932e-18)
(1.20419 0.378551 6.6546e-19)
(1.18843 0.347245 1.47953e-18)
(1.17219 0.322651 8.45373e-19)
(0.388641 0.149752 2.21376e-18)
(0.925549 0.403997 4.82067e-18)
(1.18534 0.518409 -5.96578e-19)
(1.25589 0.530587 -2.89446e-18)
(1.25033 0.500469 1.28199e-18)
(1.2268 0.462126 -1.32986e-18)
(1.2041 0.424413 -1.07821e-18)
(1.18572 0.388392 -8.32362e-19)
(1.17086 0.355724 -1.45038e-18)
(1.1557 0.329488 5.75213e-19)
(0.406293 0.173483 1.05371e-18)
(0.933789 0.44148 7.71761e-19)
(1.17595 0.549671 5.74208e-18)
(1.23556 0.55392 1.03534e-18)
(1.22689 0.518086 -9.03414e-19)
(1.20397 0.476149 -4.5955e-19)
(1.1829 0.435703 2.92413e-18)
(1.16616 0.397519 -1.29999e-19)
(1.1522 0.363495 1.17351e-18)
(1.13859 0.335574 -1.65337e-19)
(0.420341 0.197624 2.16198e-19)
(0.935729 0.477522 -4.92868e-18)
(1.16128 0.579005 -6.75307e-18)
(1.21168 0.5756 2.07188e-19)
(1.20114 0.534372 1.27781e-18)
(1.17957 0.489042 -1.76847e-18)
(1.16044 0.446017 -4.3753e-18)
(1.14543 0.405806 1.30741e-18)
(1.13268 0.370446 -7.72842e-20)
(1.12082 0.340879 6.62858e-19)
(0.430633 0.221774 -1.84893e-18)
(0.931687 0.511699 4.5364e-18)
(1.14176 0.606131 4.07762e-18)
(1.18454 0.595419 -1.36399e-18)
(1.17331 0.549151 -1.35265e-18)
(1.15363 0.500622 4.34744e-18)
(1.13671 0.455204 -1.00982e-18)
(1.12365 0.413133 1.70888e-18)
(1.11234 0.376478 8.02964e-19)
(1.10242 0.345302 -6.09769e-19)
(0.437118 0.245541 -4.24395e-18)
(0.922048 0.543624 -7.13287e-18)
(1.11775 0.63076 -1.33543e-18)
(1.15444 0.613142 2.62695e-18)
(1.14354 0.562251 1.50501e-18)
(1.1262 0.510736 -3.89296e-18)
(1.11182 0.463124 2.79514e-18)
(1.10089 0.419372 -1.96067e-18)
(1.09125 0.381478 -3.261e-19)
(1.08346 0.34881 1.37821e-20)
(0.439865 0.268551 3.24271e-18)
(0.907279 0.573014 1.97808e-19)
(1.0895 0.652571 -6.66725e-19)
(1.12166 0.628541 -2.6585e-18)
(1.11199 0.573472 1.73426e-18)
(1.09745 0.51925 -6.83583e-19)
(1.08587 0.469649 -1.33399e-18)
(1.07725 0.424409 2.06014e-19)
(1.06948 0.385334 -3.47722e-19)
(1.06402 0.351303 2.53967e-19)
(0.439063 0.290424 2.59007e-19)
(0.887856 0.599728 -1.24552e-18)
(1.05722 0.671297 2.89866e-18)
(1.08651 0.641319 1.3135e-18)
(1.07886 0.582636 -1.76748e-18)
(1.06753 0.526019 2.60931e-18)
(1.05897 0.474665 1.63451e-19)
(1.05281 0.428137 1.62048e-19)
(1.0471 0.387939 -1.93158e-19)
(1.04414 0.352704 -1.9264e-20)
(0.434957 0.310711 2.65598e-18)
(0.864026 0.623539 4.34439e-18)
(1.02149 0.686943 -2.57934e-19)
(1.04934 0.651189 -6.34626e-19)
(1.04435 0.589552 -7.33693e-19)
(1.03658 0.530912 -3.69496e-19)
(1.03124 0.478069 1.45051e-19)
(1.02769 0.430469 2.05193e-19)
(1.02422 0.389205 2.22005e-19)
(1.02394 0.352975 -8.74258e-20)
(0.427687 0.329001 6.37862e-19)
(0.835706 0.643749 8.31144e-19)
(0.983164 0.699638 -3.85086e-18)
(1.01055 0.65811 1.70053e-18)
(1.00871 0.594051 5.54764e-19)
(1.00476 0.533796 -1.27452e-18)
(1.0028 0.479759 4.10311e-19)
(1.00195 0.431313 1.03068e-19)
(1.00101 0.389073 -2.19479e-19)
(1.00381 0.352145 1.49296e-19)
(0.417228 0.345218 -2.28266e-18)
(0.803233 0.659777 -1.66455e-18)
(0.942597 0.708882 1.26262e-18)
(0.970389 0.662192 3.84427e-19)
(0.972143 0.596056 -6.3277e-19)
(0.972229 0.534557 6.4771e-19)
(0.973746 0.479628 1.36741e-19)
(0.975743 0.430548 -3.24293e-19)
(0.977864 0.387451 1.23668e-18)
(0.984539 0.350242 5.37952e-19)
(0.40377 0.359228 -1.83509e-18)
(0.767723 0.671847 4.56578e-18)
(0.900133 0.714382 -2.74699e-18)
(0.929137 0.663288 -3.29156e-19)
(0.934869 0.595494 -5.29913e-19)
(0.939142 0.533112 1.7809e-19)
(0.944188 0.477588 -4.42079e-19)
(0.949258 0.428034 2.45281e-19)
(0.955238 0.384109 6.03562e-20)
(0.966403 0.347274 -2.00543e-19)
(0.387493 0.370566 -5.55244e-20)
(0.729638 0.679688 -1.36066e-18)
(0.856121 0.715999 7.55346e-19)
(0.88706 0.661294 -4.58896e-19)
(0.897099 0.592304 2.06384e-19)
(0.905663 0.529406 3.45405e-19)
(0.914312 0.473598 9.78183e-19)
(0.922806 0.423731 -8.0383e-19)
(0.93334 0.378715 -1.52368e-18)
(0.948009 0.342559 7.15366e-19)
(0.36888 0.379074 2.16659e-19)
(0.689541 0.683229 -9.74601e-20)
(0.810974 0.713671 6.47848e-20)
(0.844451 0.656103 2.15735e-19)
(0.859054 0.586418 -7.21167e-19)
(0.871988 0.523384 -1.42064e-18)
(0.88438 0.46763 -3.97959e-19)
(0.896678 0.417818 -1.71926e-19)
(0.91193 0.371692 2.20152e-18)
(0.926803 0.331757 -4.14542e-19)
(0.348332 0.384611 -8.26833e-19)
(0.647885 0.682352 -5.24921e-19)
(0.765092 0.707355 1.66924e-19)
(0.801608 0.647655 1.11525e-19)
(0.820963 0.577784 -7.0441e-19)
(0.838338 0.514992 2.85971e-18)
(0.854667 0.459579 -2.06617e-18)
(0.870961 0.410205 2.44448e-18)
(0.889644 0.365055 -1.68569e-18)
(0.903248 0.327432 -2.27775e-18)
(0.326232 0.387071 2.76154e-19)
(0.605156 0.677016 -2.72818e-19)
(0.718881 0.697043 1.12141e-19)
(0.758834 0.635922 1.09805e-18)
(0.783064 0.566373 -5.16107e-19)
(0.804934 0.5042 7.66046e-19)
(0.825316 0.449391 1.19201e-18)
(0.845535 0.400448 -6.24483e-19)
(0.867216 0.355363 -1.70882e-18)
(0.881875 0.31717 2.32996e-18)
(0.302951 0.386386 6.69222e-19)
(0.561826 0.667209 9.67859e-19)
(0.672735 0.682748 -1.09412e-18)
(0.716431 0.620901 -9.60143e-19)
(0.745604 0.552178 3.65589e-18)
(0.771988 0.491015 -3.69499e-18)
(0.796422 0.437169 4.44673e-18)
(0.820284 0.389179 -1.0835e-18)
(0.844423 0.345347 1.15427e-18)
(0.860607 0.308457 2.21075e-18)
(0.278857 0.382527 1.88051e-18)
(0.518359 0.652968 -1.00637e-18)
(0.62704 0.664519 -7.75552e-19)
(0.674702 0.602619 -3.95506e-19)
(0.708831 0.535213 5.23908e-19)
(0.739708 0.475432 -1.01948e-18)
(0.768154 0.422814 -1.32356e-18)
(0.79552 0.375879 -2.91245e-18)
(0.822161 0.333107 2.87641e-18)
(0.840453 0.297272 -9.10384e-19)
(0.254308 0.375503 7.95934e-19)
(0.475205 0.634362 -3.51227e-19)
(0.582172 0.642426 -1.11298e-18)
(0.633938 0.581129 1.36971e-18)
(0.672984 0.515521 -2.4056e-18)
(0.708277 0.45751 6.47838e-18)
(0.740617 0.406484 -3.42519e-18)
(0.77129 0.361038 3.0636e-18)
(0.80036 0.319865 -5.56349e-18)
(0.820972 0.285382 -1.48033e-18)
(0.229654 0.365362 -5.47974e-19)
(0.432793 0.611495 2.4387e-18)
(0.538492 0.616568 5.58872e-19)
(0.594429 0.556505 -1.29215e-18)
(0.638303 0.493159 -2.20927e-18)
(0.6779 0.437282 -1.63407e-18)
(0.714011 0.388139 1.08326e-18)
(0.747863 0.344406 -2.78473e-18)
(0.779355 0.304961 1.33864e-18)
(0.802385 0.27195 1.80883e-19)
(0.20523 0.352188 -4.02818e-18)
(0.391536 0.584505 -9.84808e-19)
(0.49635 0.587072 -2.87396e-19)
(0.556451 0.528849 3.57453e-18)
(0.605014 0.468214 -3.35221e-18)
(0.648759 0.414839 7.77329e-19)
(0.688481 0.367915 -4.05991e-19)
(0.72536 0.326222 2.7409e-18)
(0.759213 0.288769 8.28682e-19)
(0.784699 0.257346 -1.71385e-18)
(0.181346 0.336092 3.69542e-18)
(0.351825 0.55357 -2.15362e-18)
(0.456082 0.554089 9.21988e-20)
(0.520273 0.498284 -3.2688e-18)
(0.57334 0.440786 3.94153e-18)
(0.621046 0.390258 -1.72721e-18)
(0.664206 0.34585 1.02298e-18)
(0.703955 0.306446 7.33337e-20)
(0.74009 0.271171 -3.3734e-19)
(0.768016 0.241492 -1.04773e-18)
(0.158295 0.317196 -1.51049e-18)
(0.314033 0.518899 4.45576e-18)
(0.418004 0.5178 2.52738e-18)
(0.486148 0.464954 4.11522e-18)
(0.543491 0.411001 -9.29913e-19)
(0.594941 0.363655 3.78624e-19)
(0.641339 0.322059 2.8396e-18)
(0.683784 0.285205 -2.84793e-18)
(0.722095 0.252296 6.38516e-20)
(0.752412 0.2245 -1.25615e-18)
(0.136361 0.295648 -3.59816e-18)
(0.278512 0.480724 -2.64658e-19)
(0.382409 0.47841 -1.49526e-18)
(0.454315 0.429026 -6.65363e-18)
(0.515669 0.378998 -6.34731e-18)
(0.570616 0.335148 1.04759e-18)
(0.620033 0.296634 -3.46185e-18)
(0.664982 0.26256 6.03699e-18)
(0.705344 0.232192 8.66247e-19)
(0.737968 0.206435 1.79783e-18)
(0.115811 0.271621 5.37396e-18)
(0.245583 0.4393 -4.36723e-18)
(0.34957 0.436148 -2.21317e-18)
(0.424998 0.390687 3.85239e-18)
(0.49006 0.344935 4.33517e-18)
(0.548233 0.304873 -1.42711e-18)
(0.600428 0.269699 1.69764e-18)
(0.647674 0.238618 -2.20026e-18)
(0.689939 0.210954 -2.81058e-18)
(0.724756 0.187386 1.06986e-18)
(0.0968917 0.245314 -3.06124e-18)
(0.215543 0.394905 1.28528e-18)
(0.319734 0.391261 4.69989e-18)
(0.398401 0.350141 -2.09148e-18)
(0.466839 0.308987 1.67479e-19)
(0.527941 0.27298 5.74288e-18)
(0.582655 0.241376 -5.51228e-19)
(0.631975 0.213483 -4.36327e-18)
(0.675981 0.188676 4.94883e-18)
(0.712845 0.167449 -1.8093e-18)
(0.0798287 0.216945 4.30459e-18)
(0.188658 0.347836 4.77931e-19)
(0.293124 0.344015 3.0892e-19)
(0.374709 0.307608 4.24571e-18)
(0.446163 0.271341 -5.56653e-19)
(0.509875 0.23963 -3.60942e-18)
(0.56683 0.211806 1.74458e-18)
(0.61799 0.187272 3.10993e-19)
(0.663557 0.165463 -2.05938e-18)
(0.702294 0.146721 3.56388e-19)
(0.064822 0.186752 -2.68265e-18)
(0.165166 0.298412 -5.12555e-18)
(0.26994 0.294691 1.17581e-18)
(0.354088 0.263324 -2.26665e-18)
(0.428172 0.232197 -1.34627e-18)
(0.494158 0.204995 3.2289e-18)
(0.553062 0.181134 -7.74288e-19)
(0.605816 0.160112 7.01746e-19)
(0.652749 0.141427 -8.46953e-19)
(0.693155 0.125306 1.68419e-18)
(0.0520455 0.154988 9.80257e-19)
(0.145271 0.246964 3.45879e-18)
(0.250352 0.243584 -4.76085e-18)
(0.336679 0.217536 2.21335e-18)
(0.412988 0.191767 -9.97075e-19)
(0.480895 0.169257 -2.76826e-18)
(0.541441 0.149516 2.23579e-18)
(0.595536 0.132136 4.60226e-19)
(0.643628 0.116687 -7.20996e-20)
(0.685472 0.10331 -1.95469e-18)
(0.041646 0.12192 3.2464e-19)
(0.129146 0.193842 1.12158e-18)
(0.234506 0.191003 4.31386e-18)
(0.322606 0.170503 -8.15876e-19)
(0.400715 0.150272 -6.34506e-19)
(0.470175 0.132605 2.31456e-19)
(0.532048 0.117114 1.04376e-19)
(0.587222 0.103483 8.26141e-19)
(0.636256 0.0913645 -1.07506e-18)
(0.679283 0.08084 -6.82542e-19)
(0.0337418 0.0878259 -8.06601e-19)
(0.116929 0.139406 -1.36391e-18)
(0.222519 0.137264 -3.35962e-18)
(0.311964 0.122492 1.66853e-18)
(0.391436 0.10794 1.3415e-18)
(0.462071 0.0952348 5.69666e-20)
(0.524946 0.0840966 -2.18487e-18)
(0.580934 0.0742996 -9.59924e-19)
(0.630681 0.0655872 7.52487e-19)
(0.674617 0.0580033 8.03867e-19)
(0.0284224 0.0529929 -1.52829e-19)
(0.108726 0.0840235 -1.64994e-19)
(0.214478 0.0826931 6.38327e-19)
(0.304828 0.0737783 -4.25239e-19)
(0.385215 0.0650059 -3.71313e-19)
(0.456637 0.0573485 -2.48766e-19)
(0.520184 0.050636 4.50257e-19)
(0.576716 0.0447334 1.6974e-18)
(0.626943 0.0394833 2.43417e-19)
(0.671495 0.0349058 -4.29686e-19)
(0.0257476 0.017714 -1.81063e-20)
(0.104607 0.0280713 4.41487e-19)
(0.210443 0.0276203 3.34965e-19)
(0.301248 0.02464 -2.57102e-19)
(0.382094 0.0217091 3.29253e-19)
(0.453911 0.0191508 1.26378e-19)
(0.517795 0.0169084 7.06357e-21)
(0.5746 0.0149368 -5.56837e-19)
(0.625067 0.013183 1.43231e-19)
(0.66993 0.0116525 -3.32809e-19)
(0.0257476 -0.0177139 1.00592e-19)
(0.104607 -0.0280713 3.31784e-19)
(0.210443 -0.0276202 3.5512e-19)
(0.301248 -0.02464 -2.07675e-19)
(0.382094 -0.021709 3.37165e-19)
(0.453911 -0.0191508 -4.68536e-21)
(0.517795 -0.0169084 1.34718e-19)
(0.5746 -0.0149368 -6.19962e-19)
(0.625067 -0.0131829 1.25837e-19)
(0.66993 -0.0116525 -2.88319e-19)
(0.0284224 -0.0529928 -7.85886e-20)
(0.108726 -0.0840234 -4.61636e-19)
(0.214478 -0.0826931 1.24467e-18)
(0.304828 -0.0737782 -1.0773e-18)
(0.385215 -0.0650059 -5.0393e-20)
(0.456637 -0.0573484 -6.97409e-19)
(0.520184 -0.050636 1.11976e-18)
(0.576716 -0.0447334 1.50532e-18)
(0.626943 -0.0394833 2.66127e-19)
(0.671495 -0.0349058 -5.72104e-19)
(0.0337418 -0.0878258 -1.63773e-19)
(0.116929 -0.139406 -1.19013e-18)
(0.222519 -0.137264 -2.73308e-18)
(0.311964 -0.122492 2.32728e-18)
(0.391436 -0.10794 4.71971e-19)
(0.462071 -0.0952348 4.12984e-19)
(0.524946 -0.0840965 -2.01504e-18)
(0.580934 -0.0742995 -1.17544e-18)
(0.630681 -0.0655872 -2.58324e-19)
(0.674617 -0.0580033 1.76705e-18)
(0.041646 -0.12192 -5.75669e-19)
(0.129146 -0.193842 7.16085e-19)
(0.234506 -0.191003 4.95077e-18)
(0.322606 -0.170503 -4.38886e-19)
(0.400715 -0.150272 -1.23567e-18)
(0.470175 -0.132605 8.74561e-19)
(0.532048 -0.117114 5.91031e-20)
(0.587222 -0.103483 3.00987e-19)
(0.636256 -0.0913645 -6.5325e-19)
(0.679283 -0.08084 -1.7209e-18)
(0.0520455 -0.154988 -3.85181e-19)
(0.145271 -0.246964 2.08849e-18)
(0.250352 -0.243584 -4.97965e-18)
(0.336679 -0.217536 2.1273e-18)
(0.412988 -0.191767 2.04367e-20)
(0.480895 -0.169257 -2.6249e-18)
(0.541441 -0.149516 1.14617e-18)
(0.595536 -0.132136 -1.03861e-19)
(0.643628 -0.116687 4.27502e-19)
(0.685472 -0.10331 -1.28325e-19)
(0.064822 -0.186752 -4.42584e-18)
(0.165166 -0.298411 -5.24497e-18)
(0.26994 -0.294691 1.36082e-18)
(0.354088 -0.263324 -2.43471e-18)
(0.428172 -0.232197 -6.78644e-19)
(0.494158 -0.204995 1.0013e-18)
(0.553062 -0.181134 3.68758e-19)
(0.605816 -0.160112 1.34361e-18)
(0.652749 -0.141427 -2.87552e-19)
(0.693155 -0.125306 1.53845e-18)
(0.0798287 -0.216945 4.23222e-18)
(0.188658 -0.347836 2.69739e-18)
(0.293124 -0.344015 -2.01533e-18)
(0.374709 -0.307608 3.34545e-18)
(0.446163 -0.271341 -2.78399e-19)
(0.509875 -0.23963 -3.51841e-18)
(0.56683 -0.211806 6.11774e-19)
(0.61799 -0.187272 2.39547e-19)
(0.663557 -0.165463 -1.47658e-18)
(0.702294 -0.146721 3.59004e-19)
(0.0968917 -0.245314 -3.11837e-18)
(0.215543 -0.394905 5.55124e-18)
(0.319734 -0.391261 2.16012e-18)
(0.398401 -0.350141 -2.63866e-18)
(0.466839 -0.308987 2.5685e-20)
(0.527941 -0.27298 6.48222e-18)
(0.582655 -0.241376 -1.94465e-18)
(0.631975 -0.213483 -1.24508e-18)
(0.675981 -0.188676 2.9588e-18)
(0.712845 -0.167449 -1.49759e-18)
(0.115811 -0.271621 1.73449e-18)
(0.245583 -0.4393 -8.41881e-19)
(0.34957 -0.436148 -1.95579e-18)
(0.424998 -0.390687 1.44514e-18)
(0.49006 -0.344935 5.49622e-18)
(0.548233 -0.304873 -1.91002e-18)
(0.600428 -0.269699 8.48017e-19)
(0.647674 -0.238618 -5.95037e-19)
(0.689939 -0.210954 -4.95028e-18)
(0.724756 -0.187386 2.16359e-18)
(0.136361 -0.295648 -2.27115e-18)
(0.278512 -0.480724 -1.99554e-18)
(0.382409 -0.47841 3.36366e-19)
(0.454315 -0.429026 -7.6307e-18)
(0.515669 -0.378998 -3.19785e-18)
(0.570616 -0.335147 -2.30935e-18)
(0.620033 -0.296634 -1.43825e-18)
(0.664982 -0.26256 3.65044e-18)