/*--------------------------------*- C++ -*----------------------------------*\
  =========                 |
  \\      /  F ield         | OpenFOAM: The Open Source CFD Toolbox
   \\    /   O peration     | Website:  https://openfoam.org
    \\  /    A nd           | Version:  7
     \\/     M anipulation  |
\*---------------------------------------------------------------------------*/
FoamFile
{
    version     2.0;
    format      ascii;
    class       surfaceScalarField;
    location    "28.0005";
    object      phi;
}
// * * * * * * * * * * * * * * * * * * * * * * * * * * * * * * * * * * * * * //

dimensions      [0 3 -1 0 0 0 0];

internalField   nonuniform List<scalar> 
37105
(
-1.05481e-05
1.1587e-05
-1.03884e-06
-2.47555e-05
1.5388e-05
-1.18064e-06
-3.9534e-05
1.57337e-05
-9.55145e-07
-5.5008e-05
1.61716e-05
-6.97644e-07
-7.12852e-05
1.66904e-05
-4.1318e-07
-8.84316e-05
1.72485e-05
-1.02086e-07
-0.000106494
1.78338e-05
2.28493e-07
-0.000125491
1.84191e-05
5.7771e-07
-0.000145431
1.89999e-05
9.40343e-07
-0.000166314
1.95711e-05
1.3118e-06
-0.000188142
2.01402e-05
1.68802e-06
-0.000210904
2.0697e-05
2.0653e-06
-0.000234575
2.12289e-05
2.44119e-06
-0.000259129
2.1742e-05
2.81296e-06
2.23169e-05
3.16895e-06
-0.000284615
-1.03804e-05
2.19673e-05
-2.44255e-05
2.94331e-05
-3.9045e-05
3.03532e-05
-5.43433e-05
3.14699e-05
-7.04237e-05
3.27709e-05
-8.73445e-05
3.41693e-05
-0.000105146
3.56353e-05
-0.000123838
3.71111e-05
-0.00014342
3.8582e-05
-0.00016388
4.00314e-05
-0.000185211
4.14704e-05
-0.000207393
4.28792e-05
-0.000230399
4.42351e-05
-0.000254201
4.55439e-05
4.69624e-05
-0.000278846
-1.00563e-05
3.20236e-05
-2.37879e-05
4.31647e-05
-3.8101e-05
4.46663e-05
-5.30621e-05
4.6431e-05
-6.87664e-05
4.84752e-05
-8.52582e-05
5.06611e-05
-0.000102564
5.29414e-05
-0.00012068
5.52263e-05
-0.000139586
5.74889e-05
-0.000159254
5.96986e-05
-0.000179653
6.18698e-05
-0.000200755
6.39807e-05
-0.00022253
6.60108e-05
-0.00024495
6.79635e-05
7.00226e-05
-0.00026801
-9.58173e-06
4.16053e-05
-2.2854e-05
5.6437e-05
-3.67193e-05
5.85316e-05
-5.11917e-05
6.09034e-05
-6.63541e-05
6.36376e-05
-8.22324e-05
6.65394e-05
-9.88348e-05
6.95438e-05
-0.000116137
7.25288e-05
-0.000134102
7.54535e-05
-0.000152674
7.82704e-05
-0.000171802
8.09983e-05
-0.000191444
8.36228e-05
-0.000211573
8.61392e-05
-0.000232154
8.85452e-05
9.10174e-05
-0.000253149
-8.96732e-06
5.05727e-05
-2.16393e-05
6.9109e-05
-3.49236e-05
7.18158e-05
-4.87693e-05
7.47491e-05
-6.32423e-05
7.81107e-05
-7.83469e-05
8.16439e-05
-9.40702e-05
8.52672e-05
-0.000110368
8.88267e-05
-0.000127182
9.22669e-05
-0.000144434
9.55228e-05
-0.000162054
9.86187e-05
-0.000179989
0.000101557
-0.000198214
0.000104364
-0.000216703
0.000107035
0.000109707
-0.000235393
-8.23981e-06
5.88125e-05
-2.01616e-05
8.10308e-05
-3.2742e-05
8.43962e-05
-4.58397e-05
8.78468e-05
-5.94972e-05
9.17682e-05
-7.36951e-05
9.58418e-05
-8.83995e-05
9.99716e-05
-0.000103547
0.000103974
-0.00011906
0.00010778
-0.000134846
0.000111309
-0.000150819
0.000114591
-0.000166917
0.000117656
-0.000183125
0.000120573
-0.000199437
0.000123346
0.000126062
-0.000215792
-7.37896e-06
6.61914e-05
-1.84305e-05
9.20823e-05
-3.02051e-05
9.61709e-05
-4.24529e-05
0.000100095
-5.51907e-05
0.000104506
-6.83768e-05
0.000109028
-8.19573e-05
0.000113552
-9.5852e-05
0.000117869
-0.00010997
0.000121899
-0.000124209
0.000125547
-0.000138474
0.000128856
-0.000152701
0.000131883
-0.000166887
0.000134758
-0.000181052
0.000137511
0.000140174
-0.000195164
-6.3826e-06
7.2574e-05
-1.64598e-05
0.000102159
-2.73454e-05
0.000107056
-3.86614e-05
0.000111411
-5.03976e-05
0.000116242
-6.24932e-05
0.000121124
-7.48771e-05
0.000125936
-8.74556e-05
0.000130447
-0.00010013
0.000134573
-0.000112792
0.00013821
-0.000125348
0.000141411
-0.000137734
0.000144269
-0.000149955
0.000146979
-0.000162065
0.000149622
0.000152184
-0.000174075
-5.26776e-06
7.78418e-05
-1.42682e-05
0.00011116
-2.41971e-05
0.000116985
-3.45183e-05
0.000121732
-4.51914e-05
0.000126915
-5.6142e-05
0.000132074
-6.72844e-05
0.000137078
-7.8515e-05
0.000141678
-8.97298e-05
0.000145788
-0.000100824
0.000149304
-0.000111705
0.000152293
-0.000122315
0.000154879
-0.000132661
0.000157325
-0.000142823
0.000159784
0.000162217
-0.000152857
-4.04606e-06
8.18879e-05
-1.18778e-05
0.000118992
-2.07972e-05
0.000125905
-3.00758e-05
0.00013101
-3.96428e-05
0.000136482
-4.94148e-05
0.000141846
-5.92941e-05
0.000146958
-6.91697e-05
0.000151554
-7.89358e-05
0.000155554
-8.84922e-05
0.00015886
-9.77559e-05
0.000161557
-0.000106669
0.000163792
-0.000115234
0.00016589
-0.000123539
0.00016809
0.00017036
-0.000131682
-2.72351e-06
8.46114e-05
-9.31362e-06
0.000125582
-1.71822e-05
0.000133773
-2.53837e-05
0.000139212
-3.3818e-05
0.000144917
-4.23955e-05
0.000150424
-5.10081e-05
0.00015557
-5.95401e-05
0.000160085
-6.78847e-05
0.000163898
-7.59472e-05
0.000166922
-8.36542e-05
0.000169264
-9.0951e-05
0.000171089
-9.7821e-05
0.00017276
-0.000104333
0.000174602
0.000176656
-0.000110629
-1.29261e-06
8.5904e-05
-6.61094e-06
0.0001309
-1.33885e-05
0.000140551
-2.04882e-05
0.000146312
-2.77783e-05
0.000152207
-3.51602e-05
0.000157805
-4.25164e-05
0.000162926
-4.97284e-05
0.000167297
-5.66895e-05
0.00017086
-6.3308e-05
0.000173541
-6.95175e-05
0.000175473
-7.52705e-05
0.000176842
-8.05249e-05
0.000178014
-8.52863e-05
0.000179363
0.000181109
-8.97395e-05
2.45628e-07
8.56583e-05
-3.81184e-06
0.000134958
-9.44317e-06
0.000146182
-1.54317e-05
0.0001523
-2.15806e-05
0.000158356
-2.77767e-05
0.000164002
-3.38961e-05
0.000169046
-3.98205e-05
0.000173222
-4.5442e-05
0.000176481
-5.0668e-05
0.000178767
-5.54332e-05
0.000180238
-5.96978e-05
0.000181106
-6.34108e-05
0.000181727
-6.64716e-05
0.000182424
0.000183668
-6.90304e-05
1.59836e-06
8.406e-05
-9.63278e-07
0.000137519
-5.37987e-06
0.000150599
-1.02567e-05
0.000157177
-1.52772e-05
0.000163376
-2.0306e-05
0.00016903
-2.52151e-05
0.000173955
-2.98897e-05
0.000177896
-3.42168e-05
0.000180808
-3.81023e-05
0.000182652
-4.14728e-05
0.000183609
-4.42863e-05
0.00018392
-4.65229e-05
0.000183964
-4.80004e-05
0.000183901
0.000184049
-4.83822e-05
3.0596e-06
8.10004e-05
2.02152e-06
0.000138557
-1.25139e-06
0.000153872
-5.00562e-06
0.000160931
-8.91826e-06
0.000167289
-1.28029e-05
0.000172915
-1.65333e-05
0.000177685
-1.99988e-05
0.000181362
-2.30762e-05
0.000183886
-2.56705e-05
0.000185247
-2.76967e-05
0.000185635
-2.90828e-05
0.000185306
-2.98289e-05
0.00018471
-2.98596e-05
0.000183932
0.000182434
-2.82443e-05
4.54297e-06
7.64574e-05
5.05935e-06
0.000138041
3.01018e-06
0.000155921
2.47761e-07
0.000163694
-2.55904e-06
0.000170096
-5.32253e-06
0.000175679
-7.90994e-06
0.000180273
-1.02061e-05
0.000183658
-1.20773e-05
0.000185757
-1.34233e-05
0.000186593
-1.41529e-05
0.000186365
-1.4155e-05
0.000185308
-1.33663e-05
0.000183921
-1.18511e-05
0.000182417
0.0001795
-8.91719e-06
5.99109e-06
7.04663e-05
8.09893e-06
0.000135933
7.30235e-06
0.000156717
5.65138e-06
0.000165345
3.84177e-06
0.000171905
2.10631e-06
0.000177414
5.64237e-07
0.000181815
-6.01924e-07
0.000184824
-1.30096e-06
0.000186456
-1.43108e-06
0.000186723
-8.88941e-07
0.000185823
4.25902e-07
0.000183993
2.62282e-06
0.000181724
5.87579e-06
0.000179164
0.000175288
1.00876e-05
7.34558e-06
6.31207e-05
1.10836e-05
0.000132195
1.15676e-05
0.000156233
1.09723e-05
0.00016594
1.02028e-05
0.000172675
9.51663e-06
0.0001781
9.06795e-06
0.000182264
8.97031e-06
0.000184922
9.36989e-06
0.000186056
1.03831e-05
0.00018571
1.21178e-05
0.000184088
1.47456e-05
0.000181365
1.83839e-05
0.000178086
2.28256e-05
0.000174722
0.000169274
2.88397e-05
8.52934e-06
5.45914e-05
1.39322e-05
0.000126792
1.57623e-05
0.000154403
1.62285e-05
0.000165474
1.64497e-05
0.000172454
1.67598e-05
0.00017779
1.73226e-05
0.000181701
1.82693e-05
0.000183975
1.97417e-05
0.000184584
2.18737e-05
0.000183578
2.47698e-05
0.000181192
2.86144e-05
0.000177521
3.36997e-05
0.000173001
3.95113e-05
0.000168911
0.000161726
4.70598e-05
9.43442e-06
4.5157e-05
1.65436e-05
0.000119683
1.98216e-05
0.000151125
2.13792e-05
0.000163916
2.2557e-05
0.000171276
2.3818e-05
0.000176529
2.53498e-05
0.000180169
2.72946e-05
0.00018203
2.97947e-05
0.000182084
3.30173e-05
0.000180355
3.70621e-05
0.000177147
4.20498e-05
0.000172533
4.85991e-05
0.000166452
5.58406e-05
0.000161669
0.000152821
6.47459e-05
9.91647e-06
3.52405e-05
1.87989e-05
0.000110801
2.36613e-05
0.000146263
2.63638e-05
0.000161214
2.84853e-05
0.000169154
3.06571e-05
0.000174357
3.31163e-05
0.00017771
3.60149e-05
0.000179132
3.94969e-05
0.000178602
4.37729e-05
0.000176079
4.89774e-05
0.000171943
5.50161e-05
0.000166494
6.30029e-05
0.000158465
7.17549e-05
0.000152917
0.000142525
8.20507e-05
9.81601e-06
2.54245e-05
2.05725e-05
0.000100044
2.71697e-05
0.000139666
3.11041e-05
0.000157279
3.41836e-05
0.000166075
3.72389e-05
0.000171302
4.05817e-05
0.000174367
4.43903e-05
0.000175323
4.88071e-05
0.000174185
5.40697e-05
0.000170816
6.04839e-05
0.000165528
6.75055e-05
0.000159473
7.68592e-05
0.000149111
8.71519e-05
0.000142624
0.000130622
9.9055e-05
9.04529e-06
1.63792e-05
2.17407e-05
8.73486e-05
3.02001e-05
0.000131206
3.54996e-05
0.00015198
3.95943e-05
0.00016198
4.35171e-05
0.000167379
4.76951e-05
0.000170189
5.23736e-05
0.000170645
5.77e-05
0.000168859
6.38195e-05
0.000164697
7.15135e-05
0.000157834
7.94893e-05
0.000151497
9.00756e-05
0.000138525
0.000101949
0.000130751
0.00011669
0.000115881
7.70029e-06
8.67893e-06
2.21541e-05
7.28948e-05
3.25707e-05
0.00012079
3.9429e-05
0.000145121
4.4639e-05
0.00015677
4.94396e-05
0.000162579
5.44077e-05
0.000165221
5.98911e-05
0.000165161
6.6141e-05
0.000162609
7.2984e-05
0.000157854
8.1997e-05
0.000148821
9.10247e-05
0.000142469
0.000102636
0.000126914
0.000115664
0.000117723
0.000100011
0.000132342
6.03618e-06
2.64276e-06
2.16236e-05
5.73074e-05
3.40827e-05
0.000108331
4.27433e-05
0.000136461
4.92191e-05
0.000150294
5.4926e-05
0.000156872
6.06617e-05
0.000159485
6.68561e-05
0.000158967
7.40877e-05
0.000155377
8.15155e-05
0.000150426
9.17198e-05
0.000138617
0.000102067
0.000132122
0.000115029
0.000113952
0.000128339
0.000104413
8.06208e-05
0.000147729
4.29869e-06
-1.65593e-06
1.99674e-05
4.16387e-05
3.45383e-05
9.37599e-05
4.5257e-05
0.000125742
5.31794e-05
0.000142372
5.98785e-05
0.000150173
6.64017e-05
0.000152962
7.31544e-05
0.000152214
8.14222e-05
0.000147109
8.94652e-05
0.000142383
0.000100512
0.000127571
0.000112084
0.00012055
0.0001273
9.87362e-05
0.0001408
9.09129e-05
5.90701e-05
0.00016235
2.65982e-06
-4.31575e-06
1.71811e-05
2.71173e-05
3.37616e-05
7.71794e-05
4.67149e-05
0.000112789
5.63198e-05
0.000132767
6.41147e-05
0.000142378
7.15497e-05
0.000145527
7.87582e-05
0.000145006
8.79353e-05
0.000137932
9.68048e-05
0.000133513
0.000108488
0.000115888
0.000120715
0.000108323
0.000138425
8.10253e-05
0.000152974
7.63643e-05
3.56365e-05
0.000176407
1.31117e-06
-5.62692e-06
1.35994e-05
1.48291e-05
3.16146e-05
5.91642e-05
4.6791e-05
9.76123e-05
5.83511e-05
0.000121207
6.74322e-05
0.000133297
7.58977e-05
0.000137061
8.35793e-05
0.000137324
9.33982e-05
0.000128113
0.000103379
0.000123532
0.000115752
0.000103515
0.000128327
9.57484e-05
0.00014752
6.18321e-05
0.000163982
5.99019e-05
1.06964e-05
0.000188923
4.45825e-07
-6.07275e-06
9.82061e-06
5.45429e-06
2.79323e-05
4.10526e-05
4.51276e-05
8.0417e-05
5.8927e-05
0.000107407
6.94696e-05
0.000122754
7.92239e-05
0.000127307
8.75864e-05
0.000128962
9.74519e-05
0.000118248
0.000108624
0.00011236
0.000121996
9.01428e-05
0.000135452
8.22921e-05
0.000154091
4.31935e-05
0.000173519
4.04735e-05
-1.53757e-05
0.000199591
3.42789e-08
-6.10703e-06
6.51724e-06
-1.02867e-06
2.28031e-05
2.47667e-05
4.14218e-05
6.17982e-05
5.76106e-05
9.12187e-05
6.99048e-05
0.00011046
8.0853e-05
0.000116359
9.06737e-05
0.000119141
0.000100345
0.000108577
0.000112034
0.000100671
0.00012521
7.69667e-05
0.000141947
6.55557e-05
0.000156663
2.84774e-05
0.000182175
1.49619e-05
-3.68615e-05
0.00020366
-1.13945e-07
-5.99308e-06
4.03307e-06
-5.17569e-06
1.70668e-05
1.1733e-05
3.56888e-05
4.31762e-05
5.38869e-05
7.30205e-05
6.8287e-05
9.60597e-05
8.04259e-05
0.00010422
9.1551e-05
0.000108016
0.000101918
9.82103e-05
0.00011448
8.81079e-05
0.000126315
6.51318e-05
0.000145577
4.62936e-05
0.00015972
1.43346e-05
0.000185036
-1.0354e-05
-5.4353e-05
0.000202528
-3.79738e-08
-5.95511e-06
2.63371e-06
-7.84737e-06
1.19668e-05
2.39994e-06
2.85697e-05
2.65733e-05
4.75278e-05
5.40624e-05
6.39366e-05
7.96509e-05
7.73689e-05
9.07876e-05
9.02025e-05
9.51824e-05
0.000100271
8.81414e-05
0.000115976
7.24029e-05
0.000124247
5.68613e-05
0.000147269
2.32718e-05
0.00015773
3.87327e-06
0.000183604
-3.62286e-05
-7.40865e-05
0.000203338
1.73168e-07
-6.12827e-06
2.14758e-06
-9.82179e-06
8.36459e-06
-3.81707e-06
2.14193e-05
1.35186e-05
3.90219e-05
3.64599e-05
5.65815e-05
6.20912e-05
7.0842e-05
7.65271e-05
8.57521e-05
8.02723e-05
9.53648e-05
7.85287e-05
0.000112716
5.50513e-05
0.000121393
4.81851e-05
0.000145416
-7.51844e-07
0.000152498
-3.20862e-06
0.000184534
-6.82641e-05
-8.07281e-05
0.000191175
4.53085e-07
-6.58136e-06
2.14644e-06
-1.15151e-05
6.29635e-06
-7.96698e-06
1.55137e-05
4.30121e-06
2.97469e-05
2.22267e-05
4.65859e-05
4.52522e-05
6.1149e-05
6.1964e-05
7.64681e-05
6.49532e-05
8.7886e-05
6.71109e-05
0.000103018
3.99192e-05
0.000115677
3.55258e-05
0.000135126
-2.02007e-05
0.000145142
-1.32246e-05
0.000176152
-9.92739e-05
-7.67529e-05
0.000172177
6.83741e-07
-7.2651e-06
2.18645e-06
-1.30178e-05
5.04721e-06
-1.08277e-05
1.10607e-05
-1.71231e-06
2.11409e-05
1.21465e-05
3.50262e-05
3.13669e-05
4.88827e-05
4.81075e-05
6.27196e-05
5.11163e-05
7.52903e-05
5.45402e-05
8.80313e-05
2.71782e-05
0.00010205
2.15068e-05
0.000113134
-3.12841e-05
0.000129222
-2.93134e-05
0.000146066
-0.000116117
-0.00010039
0.000169703
7.38569e-07
-8.00367e-06
1.8809e-06
-1.41602e-05
3.71435e-06
-1.26612e-05
7.30099e-06
-5.29895e-06
1.35521e-05
5.89546e-06
2.32836e-05
2.16353e-05
3.4824e-05
3.65671e-05
4.59439e-05
3.99964e-05
5.75612e-05
4.2923e-05
6.86294e-05
1.611e-05
8.20881e-05
8.04811e-06
9.04026e-05
-3.95986e-05
0.000116532
-5.54428e-05
0.000139749
-0.000139334
-0.00016417
0.000203529
5.31559e-07
-8.53523e-06
9.9653e-07
-1.46251e-05
1.68045e-06
-1.33451e-05
3.27437e-06
-6.89287e-06
6.33564e-06
2.83419e-06
1.20133e-05
1.59576e-05
1.99498e-05
2.86306e-05
2.8049e-05
3.18973e-05
3.72221e-05
3.37498e-05
4.56838e-05
7.64827e-06
6.11646e-05
-7.43263e-06
8.08066e-05
-5.92407e-05
0.000126085
-0.000100721
0.00017483
-0.00018808
-0.000231719
0.00024238
4.4494e-08
-8.57972e-06
-4.91507e-07
-1.40891e-05
-1.18856e-06
-1.26481e-05
-1.5194e-06
-6.56203e-06
-1.25302e-06
2.56781e-06
9.91935e-07
1.37127e-05
4.68304e-06
2.49395e-05
9.67353e-06
2.69068e-05
1.64571e-05
2.69663e-05
2.64483e-05
-2.34292e-06
5.52408e-05
-3.62251e-05
9.71709e-05
-0.000101171
0.000157977
-0.000161527
0.000207466
-0.000237569
-0.000279421
0.000255167
-6.68159e-07
-7.91156e-06
-2.40831e-06
-1.2349e-05
-4.62657e-06
-1.04298e-05
-6.90578e-06
-4.28282e-06
-9.02746e-06
4.68949e-06
-1.05349e-05
1.52201e-05
-1.05978e-05
2.50025e-05
-7.65641e-06
2.39654e-05
3.05696e-06
1.62529e-05
2.75329e-05
-2.68188e-05
7.54249e-05
-8.41172e-05
0.000130073
-0.000155819
0.000186086
-0.00021754
0.000223726
-0.000275209
-0.000315212
0.000259518
-1.47913e-06
-6.43244e-06
-4.47314e-06
-9.35499e-06
-8.20353e-06
-6.6994e-06
-1.23321e-05
-1.54295e-07
-1.6588e-05
8.94539e-06
-2.06454e-05
1.92775e-05
-2.25513e-05
2.69083e-05
-1.68243e-05
1.82385e-05
7.55843e-06
-8.12986e-06
5.14809e-05
-7.07413e-05
0.000107659
-0.000140296
0.000157945
-0.000206104
0.000200236
-0.000259831
0.000231324
-0.000306298
-0.000342422
0.000258534
-2.21082e-06
-4.22162e-06
-6.2509e-06
-5.3149e-06
-1.11765e-05
-1.77381e-06
-1.64926e-05
5.16177e-06
-2.18039e-05
1.42567e-05
-2.5855e-05
2.33286e-05
-2.53342e-05
2.63875e-05
-9.75772e-06
2.66202e-06
2.99832e-05
-4.78708e-05
8.2556e-05
-0.000123314
0.000133249
-0.000190988
0.000174168
-0.000247023
0.000207469
-0.000293132
0.000232543
-0.000331372
-0.00036321
0.000253332
-2.6831e-06
-1.53851e-06
-7.31892e-06
-6.79087e-07
-1.27166e-05
3.62388e-06
-1.81997e-05
1.06448e-05
-2.2804e-05
1.8861e-05
-2.41463e-05
2.4671e-05
-1.70631e-05
1.93043e-05
1.14267e-05
-2.58278e-05
5.9581e-05
-9.60251e-05
0.000108148
-0.000171881
0.000149941
-0.000232781
0.000183508
-0.00028059
0.000209499
-0.000319123
0.00022961
-0.000351483
-0.000381219
0.000247618
-2.7946e-06
1.25609e-06
-7.45877e-06
3.98508e-06
-1.25686e-05
8.7337e-06
-1.71077e-05
1.5184e-05
-1.96345e-05
2.13878e-05
-1.71156e-05
2.21521e-05
-7.80984e-07
2.96967e-06
3.74847e-05
-6.40935e-05
8.49419e-05
-0.000143482
0.000126705
-0.000213644
0.000160721
-0.000266798
0.000187322
-0.000307191
0.000208065
-0.000339866
0.000225098
-0.000368516
-0.000396147
0.000240026
-2.55873e-06
3.81482e-06
-6.75707e-06
8.18342e-06
-1.09793e-05
1.2956e-05
-1.38964e-05
1.81011e-05
-1.36682e-05
2.11595e-05
-7.2564e-06
1.57403e-05
1.84637e-05
-2.27504e-05
6.16867e-05
-0.000107317
0.000104074
-0.00018587
0.000139197
-0.000248766
0.000166345
-0.000293947
0.00018764
-0.000328486
0.000204648
-0.000356873
0.000218823
-0.000382692
-0.000409734
0.00023241
-2.0753e-06
5.89012e-06
-5.48284e-06
1.1591e-05
-8.5135e-06
1.59866e-05
-9.6882e-06
1.92758e-05
-7.16069e-06
1.8632e-05
4.9685e-06
3.61113e-06
3.93795e-05
-5.71614e-05
8.1223e-05
-0.00014916
0.000118034
-0.000222681
0.000146761
-0.000277493
0.000168493
-0.000315679
0.000185598
-0.00034559
0.000199595
-0.000370871
0.000212336
-0.000395433
-0.000421952
0.000224554
-1.48001e-06
7.37012e-06
-3.9656e-06
1.40766e-05
-5.77479e-06
1.77958e-05
-5.31028e-06
1.88113e-05
-1.34732e-06
1.4669e-05
1.84523e-05
-1.61885e-05
5.89874e-05
-9.76966e-05
9.66296e-05
-0.000186802
0.000127342
-0.000253394
0.0001505
-0.00030065
0.00016785
-0.000333029
0.000181856
-0.000359596
0.000193979
-0.000382994
0.000205247
-0.000406701
-0.000432961
0.000216255
-9.00334e-07
8.27046e-06
-2.49218e-06
1.56684e-05
-3.22134e-06
1.8525e-05
-1.64561e-06
1.72355e-05
5.41006e-06
7.61336e-06
3.36676e-05
-4.44461e-05
7.4399e-05
-0.000138428
0.000107735
-0.000220138
0.000132904
-0.000278563
0.000151345
-0.000319091
0.000165412
-0.000347096
0.000177231
-0.000371414
0.000187687
-0.00039345
0.000198006
-0.00041702
-0.000443309
0.000208354
-4.3015e-07
8.70061e-06
-1.26857e-06
1.65068e-05
-1.04632e-06
1.83028e-05
8.52381e-07
1.53368e-05
1.38729e-05
-5.40711e-06
4.96073e-05
-8.01805e-05
8.6517e-05
-0.000175338
0.000115042
-0.000248663
0.00013544
-0.000298961
0.000150158
-0.000333809
0.000161706
-0.000358644
0.000171787
-0.000381495
0.000181217
-0.00040288
0.000190734
-0.000426537
-0.000452552
0.000199976
-1.25545e-07
8.82615e-06
-3.70243e-07
1.67515e-05
4.71749e-07
1.74608e-05
3.41015e-06
1.23984e-05
2.39403e-05
-2.59373e-05
6.3042e-05
-0.000119282
9.55333e-05
-0.000207829
0.000119156
-0.000272286
0.000135615
-0.00031542
0.000147472
-0.000345666
0.000157154
-0.000368326
0.000166051
-0.000390392
0.000174532
-0.000411362
0.000183223
-0.000435228
-0.000461251
0.000191922
-8.12702e-09
8.83428e-06
2.1532e-07
1.65281e-05
1.15095e-06
1.65251e-05
7.52377e-06
6.0256e-06
3.63918e-05
-5.48053e-05
7.30551e-05
-0.000155945
0.00010137
-0.000236144
0.00012078
-0.000291696
0.00013404
-0.00032868
0.000143765
-0.00035539
0.00015209
-0.000376651
0.000159942
-0.000398244
0.000167707
-0.000419126
0.000175837
-0.000443358
-0.000469088
0.000183675
-2.34473e-08
8.85773e-06
4.28758e-07
1.60759e-05
1.16915e-06
1.57848e-05
1.3557e-05
-6.36229e-06
4.8674e-05
-8.99223e-05
8.08828e-05
-0.000188154
0.000104596
-0.000259857
0.00012042
-0.00030752
0.000131194
-0.000339453
0.000139335
-0.000363532
0.000146613
-0.000383929
0.000153719
-0.00040535
0.000160861
-0.000426269
0.000168253
-0.00045075
-0.000476314
0.000175479
-1.04098e-07
8.96183e-06
4.40661e-07
1.55311e-05
1.84995e-06
1.43755e-05
2.12766e-05
-2.57889e-05
5.79735e-05
-0.000126619
8.62705e-05
-0.000216451
0.000105766
-0.000279353
0.000118593
-0.000320347
0.00012745
-0.000348311
0.000134418
-0.0003705
0.000140928
-0.000390438
0.000147339
-0.000411762
0.000153878
-0.000432808
0.000160743
-0.000457615
-0.000482916
0.000167345
-1.55697e-07
9.11752e-06
5.67082e-08
1.53187e-05
4.67869e-06
9.75348e-06
3.12718e-05
-5.2382e-05
6.45419e-05
-0.000159889
8.92825e-05
-0.000241192
0.000105348
-0.000295418
0.000115721
-0.00033072
0.000123092
-0.000355682
0.00012918
-0.000376588
0.000135033
-0.000396292
0.000140883
-0.000417612
0.000146929
-0.000438853
0.000153137
-0.000463824
-0.000488872
0.000159094
-2.31071e-07
9.34859e-06
-3.99567e-07
1.54872e-05
9.11608e-06
2.37831e-07
4.09233e-05
-8.41893e-05
6.96642e-05
-0.00018863
9.03451e-05
-0.000261873
0.000103563
-0.000308636
0.000112075
-0.000339232
0.000118326
-0.000361932
0.000123717
-0.000381979
0.000129047
-0.000401622
0.000134376
-0.00042294
0.000139878
-0.000444355
0.000145538
-0.000469484
-0.000494336
0.000151001
-3.10103e-07
9.6587e-06
-4.42406e-07
1.56195e-05
1.42654e-05
-1.447e-05
4.78922e-05
-0.000117816
7.30837e-05
-0.000213822
9.00839e-05
-0.000278873
0.000100852
-0.000319404
0.000107901
-0.00034628
0.000113285
-0.000367316
0.00011812
-0.000386814
0.000122959
-0.000406461
0.000127807
-0.000427789
0.00013286
-0.000449407
0.000137945
-0.000474569
-0.000499175
0.000142784
-2.41277e-07
9.89997e-06
7.7718e-07
1.4601e-05
2.11738e-05
-3.48666e-05
5.21712e-05
-0.000148813
7.4715e-05
-0.000236365
8.8783e-05
-0.000292941
9.74742e-05
-0.000328095
0.00010335
-0.000352156
0.000108062
-0.000372028
0.00011242
-0.000391172
0.000116825
-0.000410866
0.000121231
-0.000432195
0.000125785
-0.000453962
0.000130322
-0.000479106
-0.000503566
0.000134713
-2.6008e-07
1.01601e-05
3.35691e-06
1.0984e-05
2.84081e-05
-5.99178e-05
5.5494e-05
-0.000175899
7.47839e-05
-0.000255655
8.65093e-05
-0.000304666
9.36262e-05
-0.000335212
9.85782e-05
-0.000357108
0.000102727
-0.000376177
0.000106666
-0.000395111
0.000110648
-0.000414847
0.00011461
-0.000436158
0.000118721
-0.000458073
0.000122751
-0.000483135
-0.000507408
0.000126592
-3.21909e-07
1.0482e-05
6.49613e-06
4.16601e-06
3.44638e-05
-8.78855e-05
5.77764e-05
-0.000199212
7.38e-05
-0.000271679
8.34907e-05
-0.000314357
8.94048e-05
-0.000341126
9.36458e-05
-0.000361349
9.73268e-05
-0.000379858
0.000100871
-0.000398655
0.00010445
-0.000418426
0.000108
-0.000439708
0.00011164
-0.000461713
0.000115147
-0.000486642
-0.000510828
0.000118568
-3.41015e-07
1.0823e-05
9.78807e-06
-5.96307e-06
3.84672e-05
-0.000116565
5.90059e-05
-0.000219751
7.21152e-05
-0.000284788
7.99909e-05
-0.000322233
8.49368e-05
-0.000346072
8.86219e-05
-0.000365034
9.18915e-05
-0.000383128
9.50622e-05
-0.000401826
9.8243e-05
-0.000421607
0.000101368
-0.000442833
0.000104564
-0.000464909
0.000107607
-0.000489685
-0.000513787
0.000110566
-3.26998e-07
1.115e-05
1.35381e-05
-1.98282e-05
4.03381e-05
-0.000143365
5.90093e-05
-0.000238422
6.98918e-05
-0.000295671
7.62214e-05
-0.000328562
8.03296e-05
-0.000350181
8.3535e-05
-0.000368239
8.64369e-05
-0.00038603
8.9245e-05
-0.000404634
9.20342e-05
-0.000424396
9.47571e-05
-0.000445556
9.75027e-05
-0.000467654
0.000100061
-0.000492244
-0.000516341
0.000102616
-2.17929e-07
1.13679e-05
1.76003e-05
-3.76464e-05
4.14852e-05
-0.00016725
5.79019e-05
-0.000254839
6.71254e-05
-0.000304894
7.2265e-05
-0.000333702
7.56682e-05
-0.000353584
7.84389e-05
-0.00037101
8.09837e-05
-0.000388575
8.34353e-05
-0.000407085
8.58381e-05
-0.000426799
8.81478e-05
-0.000447866
9.04535e-05
-0.00046996
9.25777e-05
-0.000494368
-0.000518469
9.47051e-05
3.66051e-07
1.10019e-05
2.10039e-05
-5.82842e-05
4.21122e-05
-0.000188358
5.61312e-05
-0.000268858
6.39003e-05
-0.000312663
6.81577e-05
-0.000337959
7.0992e-05
-0.000356418
7.33534e-05
-0.000373371
7.55447e-05
-0.000390766
7.76386e-05
-0.000409179
7.96554e-05
-0.000428816
8.15663e-05
-0.000449776
8.34384e-05
-0.000471832
8.51121e-05
-0.000496042
-0.000520168
8.68114e-05
1.24482e-06
9.75703e-06
2.36464e-05
-8.06858e-05
4.21513e-05
-0.000206863
5.39422e-05
-0.000280649
6.03792e-05
-0.0003191
6.39296e-05
-0.00034151
6.63119e-05
-0.0003588
6.83017e-05
-0.000375361
7.01369e-05
-0.000392601
7.18676e-05
-0.00041091
7.35006e-05
-0.000430449
7.50057e-05
-0.000451282
7.64444e-05
-0.000473271
7.76949e-05
-0.000497292
-0.000521441
7.89683e-05
2.59002e-06
7.16701e-06
2.54106e-05
-0.000103506
4.1757e-05
-0.000223209
5.15049e-05
-0.000290397
5.67207e-05
-0.000324316
5.96458e-05
-0.000344435
6.1637e-05
-0.000360791
6.328e-05
-0.000377004
6.47639e-05
-0.000394085
6.61289e-05
-0.000412275
6.73751e-05
-0.000431695
6.84819e-05
-0.000452388
6.94944e-05
-0.000474283
7.02985e-05
-0.000498097
-0.000522239
7.10964e-05
4.39309e-06
2.77392e-06
2.63292e-05
-0.000125442
4.09339e-05
-0.000237814
4.88994e-05
-0.000298362
5.3016e-05
-0.000328433
5.53566e-05
-0.000346776
5.69812e-05
-0.000362416
5.82955e-05
-0.000378319
5.9433e-05
-0.000395223
6.04303e-05
-0.000413272
6.12905e-05
-0.000432555
6.19944e-05
-0.000453092
6.25761e-05
-0.000474865
6.29435e-05
-0.000498464
-0.000522572
6.32767e-05
6.45216e-06
-3.67825e-06
2.63459e-05
-0.000145336
3.95863e-05
-0.000251054
4.6161e-05
-0.000304937
4.93183e-05
-0.00033159
5.11065e-05
-0.000348564
5.23639e-05
-0.000363673
5.33489e-05
-0.000379303
5.41437e-05
-0.000396017
5.47758e-05
-0.000413904
5.52484e-05
-0.000433028
5.55514e-05
-0.000453395
5.5709e-05
-0.000475023
5.5632e-05
-0.000498387
-0.000522421
5.54803e-05
8.69855e-06
-1.23768e-05
2.6312e-05
-0.00016295
3.78003e-05
-0.000262543
4.32454e-05
-0.000310382
4.56292e-05
-0.000333974
4.69124e-05
-0.000349847
4.77991e-05
-0.00036456
4.84513e-05
-0.000379956
4.89038e-05
-0.00039647
4.91711e-05
-0.000414172
4.92571e-05
-0.000433114
4.91547e-05
-0.000453293
4.88834e-05
-0.000474751
4.83742e-05
-0.000497878
-0.000521796
4.77496e-05
1.04711e-05
-2.28479e-05
2.6104e-05
-0.000178583
3.57744e-05
-0.000272213
4.01622e-05
-0.00031477
4.19285e-05
-0.00033574
4.27755e-05
-0.000350694
4.32982e-05
-0.000365083
4.3609e-05
-0.000380266
4.37166e-05
-0.000396578
4.36213e-05
-0.000414076
4.33208e-05
-0.000432814
4.2811e-05
-0.000452783
4.21121e-05
-0.000474053
4.11736e-05
-0.000496939
-0.000520687
4.00645e-05
1.163e-05
-3.44779e-05
2.55232e-05
-0.000192476
3.35563e-05
-0.000280246
3.69718e-05
-0.000318185
3.82153e-05
-0.000336984
3.86871e-05
-0.000351166
3.8863e-05
-0.000365259
3.88316e-05
-0.000380235
3.85916e-05
-0.000396337
3.81332e-05
-0.000413618
3.74487e-05
-0.000432129
3.65297e-05
-0.000451864
3.5393e-05
-0.000472916
3.40248e-05
-0.000495571
-0.000519116
3.24532e-05
1.21938e-05
-4.66716e-05
2.45889e-05
-0.000204871
3.11991e-05
-0.000286856
3.37449e-05
-0.000320731
3.45189e-05
-0.000337758
3.46499e-05
-0.000351297
3.44947e-05
-0.000365104
3.41222e-05
-0.000379863
3.35322e-05
-0.000395747
3.27119e-05
-0.000412798
3.16473e-05
-0.000431064
3.03252e-05
-0.000450542
2.87519e-05
-0.000471343
2.69259e-05
-0.000493745
-0.000517087
2.48969e-05
1.22689e-05
-5.89406e-05
2.33383e-05
-0.00021594
2.87271e-05
-0.000292245
3.052e-05
-0.000322524
3.08634e-05
-0.000338101
3.06696e-05
-0.000351103
3.01937e-05
-0.000364628
2.94852e-05
-0.000379154
2.85459e-05
-0.000394808
2.73633e-05
-0.000411615
2.59226e-05
-0.000429624
2.42102e-05
-0.00044883
2.2216e-05
-0.000469348
1.98826e-05
-0.000491411
-0.000514603
1.73985e-05
1.19977e-05
-7.09383e-05
2.18496e-05
-0.000225792
2.6184e-05
-0.000296579
2.73246e-05
-0.000323664
2.72686e-05
-0.000338045
2.67565e-05
-0.000350591
2.59642e-05
-0.000363835
2.49227e-05
-0.000378113
2.36351e-05
-0.000393521
2.20913e-05
-0.000410071
2.02765e-05
-0.000427809
1.81829e-05
-0.000446736
1.58061e-05
-0.000466972
1.29536e-05
-0.000488559
-0.000511582
9.93257e-06
1.14876e-05
-8.24259e-05
2.01881e-05
-0.000234493
2.35988e-05
-0.00029999
2.4174e-05
-0.00032424
2.37465e-05
-0.000337617
2.29185e-05
-0.000349763
2.18102e-05
-0.000362727
2.04387e-05
-0.000376741
1.88055e-05
-0.000391887
1.69014e-05
-0.000408167
1.47122e-05
-0.00042562
1.22371e-05
-0.000444261
9.48364e-06
-0.000464218
6.24893e-06
-0.000485324
-0.00050776
2.4271e-06
1.08114e-05
-9.32373e-05
1.84158e-05
-0.000242097
2.10096e-05
-0.000302584
2.10856e-05
-0.000324316
2.03072e-05
-0.000336839
1.91635e-05
-0.000348619
1.77372e-05
-0.000361301
1.60359e-05
-0.00037504
1.40591e-05
-0.000389911
1.17964e-05
-0.000405904
9.23428e-06
-0.000423058
6.38216e-06
-0.000441409
3.16894e-06
-0.000461005
5.52762e-08
-0.000482211
-0.000503143
-4.56174e-06
9.99934e-06
-0.000103237
1.6579e-05
-0.000248677
1.84463e-05
-0.000304451
1.8073e-05
-0.000323942
1.69572e-05
-0.000335723
1.54961e-05
-0.000347158
1.37489e-05
-0.000359554
1.17171e-05
-0.000373008
9.39882e-06
-0.000387592
6.77774e-06
-0.000403283
3.84734e-06
-0.000420127
5.74632e-07
-0.000438136
-2.94927e-06
-0.000457481
-6.86761e-06
-0.000478292
-0.000498704
-1.13063e-05
9.06479e-06
-0.000112301
1.47235e-05
-0.000254335
1.59379e-05
-0.000305666
1.51496e-05
-0.000323154
1.3701e-05
-0.000334275
1.19201e-05
-0.000345377
9.84841e-06
-0.000357482
7.4819e-06
-0.000370642
4.82035e-06
-0.000384931
1.83828e-06
-0.000400301
-1.43592e-06
-0.000416853
-5.00241e-06
-0.00043457
-8.85343e-06
-0.00045363
-1.3351e-05
-0.000473795
-0.000494047
-1.80083e-05
8.19145e-06
-0.000120493
1.28942e-05
-0.000259038
1.34969e-05
-0.000306268
1.23159e-05
-0.000321973
1.05396e-05
-0.000332498
8.43664e-06
-0.000343274
6.035e-06
-0.00035508
3.32688e-06
-0.000367933
2.91367e-07
-0.000381895
-2.98326e-06
-0.000397027
-6.59038e-06
-0.000413246
-1.04982e-05
-0.000430662
-1.475e-05
-0.000449378
-1.96445e-05
-0.0004689
-0.000489059
-2.46324e-05
7.33796e-06
-0.000127831
1.11188e-05
-0.000262819
1.11359e-05
-0.000306285
9.57314e-06
-0.00032041
7.47289e-06
-0.000330398
5.04334e-06
-0.000340845
2.2997e-06
-0.000352337
-7.49263e-07
-0.000364884
-4.04645e-06
-0.000378598
-7.69265e-06
-0.00039338
-1.16455e-05
-0.000409293
-1.59118e-05
-0.000426396
-2.05829e-05
-0.000444707
-2.57903e-05
-0.000463693
-0.000483695
-3.1154e-05
6.49891e-06
-0.00013433
9.40842e-06
-0.000265728
8.8608e-06
-0.000305738
6.92493e-06
-0.000318474
4.49842e-06
-0.000327971
1.72635e-06
-0.000338073
-1.33262e-06
-0.000349278
-4.6592e-06
-0.000361558
-8.31801e-06
-0.000374939
-1.23041e-05
-0.000389394
-1.6602e-05
-0.000404995
-2.12389e-05
-0.000421759
-2.63336e-05
-0.000439612
-3.18194e-05
-0.000458207
-0.00047796
-3.75545e-05
5.68291e-06
-0.000140013
7.77036e-06