/*--------------------------------*- C++ -*----------------------------------*\
  =========                 |
  \\      /  F ield         | OpenFOAM: The Open Source CFD Toolbox
   \\    /   O peration     | Website:  https://openfoam.org
    \\  /    A nd           | Version:  7
     \\/     M anipulation  |
\*---------------------------------------------------------------------------*/
FoamFile
{
    version     2.0;
    format      ascii;
    class       volVectorField;
    location    "19.0014";
    object      U;
}
// * * * * * * * * * * * * * * * * * * * * * * * * * * * * * * * * * * * * * //

dimensions      [0 1 -1 0 0 0 0];

internalField   nonuniform List<vector> 
18750
(
(-0.0410406 0.0258091 -9.19216e-21)
(-0.143207 0.0310864 3.15139e-21)
(-0.251825 0.0289963 3.46987e-20)
(-0.346751 0.027362 8.05086e-21)
(-0.44018 0.0257906 -1.95449e-20)
(-0.526456 0.0243318 -4.75309e-20)
(-0.609401 0.0229208 4.90146e-20)
(-0.686646 0.0215786 3.23365e-20)
(-0.760329 0.0203028 -2.42316e-20)
(-0.829339 0.0191243 -6.49973e-20)
(-0.895173 0.0180415 2.47237e-19)
(-0.957105 0.0170441 -2.03394e-19)
(-1.01608 0.0161034 1.21008e-19)
(-1.07141 0.0152322 -2.36926e-19)
(-1.1237 0.0144895 5.51635e-20)
(-0.0427448 0.0766169 5.54473e-21)
(-0.144495 0.0924256 9.43401e-21)
(-0.251904 0.0862347 4.9473e-21)
(-0.345671 0.0813606 5.41077e-20)
(-0.437902 0.0766694 1.12222e-19)
(-0.522937 0.0723085 1.50196e-19)
(-0.604537 0.0680897 -1.28144e-19)
(-0.68031 0.0640779 2.09347e-19)
(-0.752352 0.0602674 1.95339e-19)
(-0.819543 0.0567509 -6.2113e-20)
(-0.883373 0.053527 -2.62015e-19)
(-0.943109 0.050572 1.32472e-20)
(-0.999645 0.0478031 5.9004e-20)
(-1.0522 0.0452486 1.54665e-19)
(-1.1013 0.0430609 -2.3615e-19)
(-0.0460862 0.126198 1.74453e-20)
(-0.14703 0.152724 2.70796e-20)
(-0.252062 0.142629 -8.63911e-20)
(-0.343552 0.134592 6.31929e-21)
(-0.43344 0.126843 -2.08539e-19)
(-0.516063 0.119612 6.87716e-20)
(-0.595068 0.112601 -1.94963e-19)
(-0.668026 0.105919 -2.29432e-20)
(-0.736958 0.0995613 -1.50001e-19)
(-0.800738 0.0936827 4.48572e-19)
(-0.86085 0.0882923 5.9369e-19)
(-0.916565 0.0833701 5.22422e-19)
(-0.968705 0.0787885 3.06942e-19)
(-1.01634 0.0745686 2.07974e-19)
(-1.05988 0.0709025 -3.85809e-19)
(-0.0509399 0.17377 -9.36252e-20)
(-0.150735 0.211311 1.12139e-19)
(-0.252298 0.197637 -8.48169e-20)
(-0.340461 0.186574 -1.79781e-19)
(-0.426955 0.175878 3.1264e-19)
(-0.506117 0.165838 -2.91303e-19)
(-0.581437 0.156066 4.31208e-19)
(-0.650452 0.146726 -3.65196e-19)
(-0.715088 0.137816 2.56762e-19)
(-0.774223 0.129555 -6.28766e-19)
(-0.829355 0.121975 -9.00584e-19)
(-0.879795 0.115085 4.93229e-20)
(-0.926305 0.108725 -1.71381e-19)
(-0.9678 0.102884 -3.72483e-19)
(-1.00453 0.0977303 1.41671e-18)
(-0.0571238 0.218592 -7.22747e-20)
(-0.155489 0.267536 1.64191e-19)
(-0.252599 0.250751 3.76537e-20)
(-0.336479 0.236867 1.4208e-19)
(-0.418658 0.223388 -1.9061e-19)
(-0.493465 0.210636 8.24901e-20)
(-0.564212 0.198167 1.0213e-18)
(-0.628411 0.186203 1.58314e-19)
(-0.687891 0.174757 2.81248e-19)
(-0.741552 0.164115 -9.83034e-20)
(-0.790926 0.154346 8.53265e-20)
(-0.835412 0.145508 -3.44927e-20)
(-0.875763 0.137431 -9.70429e-19)
(-0.910752 0.130054 -5.44087e-19)
(-0.940435 0.123459 -1.60583e-18)
(-0.0644431 0.260029 1.63631e-19)
(-0.161162 0.320775 5.51226e-20)
(-0.252933 0.301501 -7.91947e-20)
(-0.331687 0.285086 -5.83602e-20)
(-0.408779 0.269043 6.42958e-20)
(-0.478515 0.253721 -8.71695e-19)
(-0.544009 0.238653 -1.11535e-19)
(-0.602777 0.224135 5.58055e-20)
(-0.656555 0.210207 -4.15372e-19)
(-0.704282 0.197222 -5.69979e-19)
(-0.747538 0.185301 4.15652e-19)
(-0.785861 0.174567 -4.11519e-19)
(-0.820048 0.164864 1.27475e-18)
(-0.848766 0.156075 -9.96616e-19)
(-0.871833 0.14815 2.19023e-18)
(-0.0726663 0.297452 -1.47511e-19)
(-0.167557 0.370425 -2.51249e-19)
(-0.253211 0.349495 1.03118e-19)
(-0.326154 0.330912 7.7704e-19)
(-0.397551 0.312579 7.90679e-19)
(-0.461669 0.294876 -2.75836e-19)
(-0.521431 0.277353 1.40923e-19)
(-0.574385 0.260391 9.10139e-20)
(-0.622182 0.244076 8.94247e-19)
(-0.663812 0.228833 1.23604e-18)
(-0.700905 0.214838 -6.0059e-19)
(-0.733166 0.202295 -1.15322e-18)
(-0.761486 0.191079 -2.14413e-18)
(-0.784465 0.181032 3.70486e-19)
(-0.801625 0.171936 -2.67798e-18)
(-0.0815119 0.330211 -1.31175e-19)
(-0.174442 0.415999 -1.54699e-19)
(-0.253316 0.394423 -1.12496e-18)
(-0.319932 0.374091 4.02152e-19)
(-0.385184 0.35379 -4.74338e-19)
(-0.443303 0.333947 3.24499e-19)
(-0.49703 0.31416 3.46288e-19)
(-0.543974 0.294908 -1.51212e-18)
(-0.585713 0.276344 -1.0065e-18)
(-0.621293 0.258971 -1.69969e-18)
(-0.652374 0.243022 -2.83736e-19)
(-0.678831 0.228782 1.22557e-18)
(-0.701678 0.216181 4.80182e-18)
(-0.719497 0.205045 -7.35941e-19)
(-0.731453 0.194965 1.31427e-18)
(-0.0906203 0.357679 7.05862e-19)
(-0.181535 0.457068 2.84903e-19)
(-0.253117 0.436058 1.23579e-18)
(-0.313056 0.414438 -9.09976e-19)
(-0.371861 0.392533 4.32777e-19)
(-0.423741 0.37084 -7.24036e-19)
(-0.471276 0.349025 -1.66802e-18)
(-0.512159 0.327678 1.48442e-18)
(-0.547901 0.307043 1.77135e-19)
(-0.577607 0.287706 2.5369e-18)
(-0.602928 0.269958 -8.26444e-19)
(-0.623876 0.254159 -3.73341e-18)
(-0.641593 0.240304 -2.28042e-18)
(-0.654693 0.228233 2.38644e-19)
(-0.661965 0.217351 -1.11069e-18)
(-0.0995705 0.379337 -5.87533e-19)
(-0.1885 0.493312 -3.34216e-19)
(-0.252472 0.474235 4.30737e-19)
(-0.305545 0.451821 6.67329e-20)
(-0.357723 0.428714 -1.70036e-19)
(-0.403252 0.405509 -1.9671e-19)
(-0.444552 0.381946 7.6169e-19)
(-0.479423 0.358736 -9.04751e-19)
(-0.509311 0.336235 8.8997e-19)
(-0.533371 0.315127 1.11233e-18)
(-0.553203 0.29576 -1.97275e-18)
(-0.568896 0.278547 3.73579e-18)
(-0.581689 0.263553 4.37328e-19)
(-0.59031 0.250666 5.96803e-19)
(-0.593218 0.239148 1.37323e-18)
(-0.107867 0.394677 1.10566e-18)
(-0.19494 0.524408 -3.62472e-19)
(-0.251214 0.508848 -1.61383e-18)
(-0.297397 0.486157 6.41659e-19)
(-0.34288 0.462288 -3.71312e-19)
(-0.382039 0.437949 4.36461e-19)
(-0.417153 0.412952 3.24522e-18)
(-0.446126 0.38814 1.56429e-18)
(-0.470335 0.364 1.03728e-18)
(-0.488989 0.341329 -3.46986e-18)
(-0.503587 0.320532 3.78658e-18)
(-0.51422 0.302062 1.38417e-18)
(-0.522166 0.286026 -2.23263e-18)
(-0.526326 0.272401 2.70654e-18)
(-0.524967 0.260378 -9.23354e-20)
(-0.114967 0.403389 2.26764e-19)
(-0.200466 0.550285 5.65427e-20)
(-0.249199 0.539804 -1.10153e-19)
(-0.288598 0.5174 -1.14657e-18)
(-0.327394 0.493243 2.29199e-18)
(-0.360255 0.468182 -1.17134e-18)
(-0.389297 0.442093 -3.44297e-18)
(-0.412524 0.415965 1.05734e-18)
(-0.431239 0.390428 -1.68278e-18)
(-0.444693 0.366399 2.60594e-18)
(-0.454259 0.34436 -4.69104e-18)
(-0.459963 0.32478 3.67169e-19)
(-0.463017 0.307783 1.99268e-18)
(-0.462517 0.293432 -4.18214e-18)
(-0.456879 0.280957 -9.83426e-19)
(-0.120136 0.404898 -7.31982e-19)
(-0.204617 0.570711 2.10305e-19)
(-0.24626 0.567006 6.49987e-19)
(-0.279096 0.545535 -3.078e-20)
(-0.311308 0.521611 -3.1247e-18)
(-0.338006 0.496258 3.00249e-19)
(-0.361134 0.469433 1.12051e-18)
(-0.378786 0.442286 -3.04451e-18)
(-0.39218 0.415597 2.28285e-18)
(-0.400602 0.390408 -2.09629e-18)
(-0.405286 0.367296 5.72849e-18)
(-0.406158 0.346758 -2.38409e-18)
(-0.404259 0.328881 2.89592e-18)
(-0.398825 0.313767 5.87616e-18)
(-0.388769 0.300811 2.5416e-18)
(-0.122778 0.39963 -2.90609e-19)
(-0.207059 0.585863 -6.5216e-21)
(-0.242338 0.590291 -2.48399e-20)
(-0.268844 0.570609 -7.43012e-20)
(-0.294627 0.547437 -1.52418e-18)
(-0.315367 0.522222 -6.78616e-19)
(-0.332771 0.495032 1.09805e-18)
(-0.345027 0.467183 6.65927e-19)
(-0.353264 0.439596 -3.86851e-18)
(-0.356777 0.413431 -2.18326e-19)
(-0.356657 0.389384 -1.12417e-18)
(-0.352754 0.368009 2.29161e-18)
(-0.345891 0.349355 -3.19927e-18)
(-0.335169 0.333442 -4.48892e-19)
(-0.32015 0.319713 -2.87417e-18)
(-0.122479 0.387792 1.29744e-18)
(-0.207316 0.595211 -1.15417e-18)
(-0.237257 0.609584 -1.57234e-18)
(-0.257731 0.592681 2.80718e-18)
(-0.277378 0.570798 2.48089e-18)
(-0.292392 0.546143 3.18455e-18)
(-0.304278 0.518953 1.36856e-19)
(-0.311311 0.490711 2.18008e-18)
(-0.314528 0.462467 2.92616e-18)
(-0.313232 0.435503 4.36794e-18)
(-0.308347 0.410636 -2.01779e-18)
(-0.299676 0.388523 4.24641e-18)
(-0.287914 0.369227 -2.43981e-20)
(-0.271855 0.352517 -2.1517e-18)
(-0.250851 0.337646 -5.35278e-18)
(-0.118982 0.369319 -8.20957e-19)
(-0.205028 0.598401 1.27885e-18)
(-0.230881 0.624955 8.53433e-19)
(-0.245729 0.611871 -2.64712e-18)
(-0.259548 0.591748 -1.2369e-18)
(-0.269124 0.56805 -2.27712e-19)
(-0.275713 0.541246 -1.68027e-18)
(-0.277693 0.51293 -2.88225e-18)
(-0.276037 0.484305 -4.91815e-18)
(-0.270004 0.456691 -2.13417e-18)
(-0.260353 0.431107 2.99638e-18)
(-0.246813 0.408268 -6.25787e-18)
(-0.230221 0.388402 2.1937e-19)
(-0.209263 0.371104 3.98435e-18)
(-0.180417 0.355038 5.74081e-18)
(-0.112089 0.344142 -1.97584e-18)
(-0.199962 0.595278 1.53392e-18)
(-0.223021 0.636344 -2.65092e-18)
(-0.23288 0.628293 -1.279e-18)
(-0.241223 0.610384 -7.16027e-20)
(-0.245613 0.588013 1.76897e-18)
(-0.247137 0.561953 2.86689e-18)
(-0.24421 0.533862 9.4902e-19)
(-0.237757 0.505036 1.38023e-18)
(-0.227078 0.476982 -3.90693e-18)
(-0.212698 0.450783 1.08435e-19)
(-0.194212 0.427259 -3.00619e-18)
(-0.172583 0.406837 -2.22368e-18)
(-0.147459 0.389047 -6.37788e-18)
(-0.110534 0.372416 -8.00948e-20)
(-0.101747 0.31242 1.7387e-18)
(-0.192031 0.585706 2.76134e-19)
(-0.213594 0.643559 4.11202e-19)
(-0.219169 0.641885 3.17078e-18)
(-0.222469 0.626764 1.34248e-18)
(-0.221956 0.606104 -1.64693e-18)
(-0.218633 0.581134 1.30017e-18)
(-0.211 0.553564 -7.56119e-19)
(-0.199799 0.524733 -1.51389e-18)
(-0.18447 0.496411 1.71682e-18)
(-0.165393 0.469712 -5.80508e-18)
(-0.141922 0.445569 -2.403e-19)
(-0.114978 0.424461 -3.29295e-18)
(-0.0862983 0.406277 5.09322e-18)
(-0.0404995 0.390567 4.7098e-19)
(-0.0882251 0.274593 -6.65241e-19)
(-0.1813 0.569428 -1.86437e-18)
(-0.202643 0.646259 4.91362e-19)
(-0.204645 0.652526 -3.65536e-18)
(-0.203336 0.640852 -2.49705e-18)
(-0.19823 0.622283 -1.41059e-18)
(-0.190277 0.598722 -2.47162e-18)
(-0.178104 0.571944 2.39517e-18)
(-0.162279 0.54341 3.37374e-18)
(-0.142268 0.514968 6.58627e-18)
(-0.118528 0.487913 -2.969e-19)
(-0.090139 0.463227 7.4226e-18)
(-0.0572341 0.441373 2.91941e-18)
(-0.0260706 0.422715 2.28886e-18)
(0.0303046 0.409243 -5.06598e-18)
(-0.0723347 0.231372 1.14523e-18)
(-0.168007 0.545984 2.8381e-18)
(-0.190286 0.643876 1.94676e-18)
(-0.189424 0.659986 2.54718e-18)
(-0.183924 0.652589 7.96496e-21)
(-0.174537 0.636505 1.00459e-18)
(-0.162191 0.614634 2.7912e-20)
(-0.145627 0.588933 -1.84245e-18)
(-0.12529 0.560973 2.88706e-18)
(-0.100574 0.532581 -1.00662e-17)
(-0.072125 0.505335 2.9444e-18)
(-0.0391687 0.480282 -1.94691e-18)
(0.000824317 0.45752 3.80943e-19)
(0.032641 0.438043 -2.90386e-18)
(0.10251 0.429086 -3.27157e-18)
(-0.0557488 0.183801 -1.86986e-18)
(-0.1526 0.514649 2.49219e-18)
(-0.176662 0.635553 -6.23675e-19)
(-0.17365 0.663867 -1.07853e-18)
(-0.164391 0.661854 2.25773e-18)
(-0.151032 0.648678 2.37368e-19)
(-0.134528 0.6288 -6.74202e-19)
(-0.11373 0.604428 -7.94791e-20)
(-0.0890021 0.577261 -1.86158e-18)
(-0.0595707 0.549127 4.82846e-18)
(-0.0261293 0.521712 2.95573e-18)
(0.0104901 0.49668 1.56651e-18)
(0.0595355 0.473305 -1.43827e-19)
(0.0891331 0.451076 3.7309e-18)
(0.176374 0.45044 -3.33579e-19)
(-0.0410462 0.133809 5.47758e-19)
(-0.13569 0.474433 -5.92734e-19)
(-0.161867 0.620167 4.66852e-19)
(-0.157459 0.663541 1.99706e-18)
(-0.144923 0.668396 -1.27701e-18)
(-0.127908 0.658686 -8.33632e-19)
(-0.107499 0.641062 -1.5639e-18)
(-0.0826184 0.618266 1.23553e-18)
(-0.0536377 0.592109 -1.28714e-18)
(-0.0196444 0.564427 -1.48215e-18)
(0.0196013 0.536841 -2.55572e-18)
(0.0582454 0.512062 -1.48357e-18)
(0.119195 0.489122 5.39586e-18)
(0.142261 0.46047 -7.41969e-18)
(0.251612 0.472856 -1.95724e-19)
(-0.0301777 0.0850099 2.34715e-18)
(-0.117908 0.424197 -9.09402e-19)
(-0.145928 0.596454 -2.36555e-18)
(-0.140955 0.658111 -6.32615e-19)
(-0.125725 0.671731 3.34363e-18)
(-0.10539 0.666276 -6.96915e-20)
(-0.0813565 0.651288 1.6241e-18)
(-0.0525568 0.630218 -8.92824e-19)
(-0.0194014 0.605195 -3.47304e-18)
(0.018549 0.578293 8.05406e-18)
(0.065212 0.550306 -5.91888e-18)
(0.103213 0.525679 1.75043e-18)
(0.180685 0.507001 -7.68258e-18)
(0.19153 0.464751 2.7174e-18)
(0.325459 0.49195 2.22342e-18)
(-0.0222555 0.0421872 -8.35194e-19)
(-0.0994728 0.363022 -2.69027e-18)
(-0.12879 0.563208 1.21657e-18)
(-0.124227 0.64632 2.15304e-19)
(-0.106985 0.671125 -3.00713e-18)
(-0.0837271 0.671107 1.86242e-18)
(-0.0564021 0.659176 9.49316e-20)
(-0.0239532 0.640094 -4.58057e-19)
(0.0136317 0.616191 -3.5539e-18)
(0.0541164 0.590404 -4.16672e-19)
(0.110845 0.562226 4.70717e-18)
(0.144035 0.534835 3.93637e-19)
(0.243577 0.527777 1.11096e-18)
(0.23987 0.470251 3.18278e-18)
(0.395752 0.502505 -8.08569e-18)
(-0.0143641 0.00927235 -1.2718e-18)
(-0.080587 0.291263 3.95331e-20)
(-0.110413 0.519345 -1.54248e-18)
(-0.10734 0.626544 1.25133e-18)
(-0.0889192 0.665419 1.70032e-18)
(-0.0631666 0.672609 -1.27519e-18)
(-0.0329375 0.664492 -2.20997e-19)
(0.00259955 0.64754 -1.06194e-18)
(0.0454467 0.624584 2.6666e-18)
(0.0860623 0.600087 5.13452e-19)
(0.156709 0.573726 -6.80475e-18)
(0.179892 0.537703 1.84777e-18)
(0.305101 0.545436 1.14362e-18)
(0.288679 0.481481 -5.14623e-18)
(0.46318 0.510467 1.17305e-18)
(-0.00516872 -0.0118584 2.87882e-19)
(-0.0624374 0.212725 7.72571e-19)
(-0.0910963 0.463805 1.44685e-18)
(-0.0903781 0.596786 -1.22205e-18)
(-0.0716781 0.653201 -4.79176e-20)
(-0.0440951 0.669931 3.08379e-18)
(-0.0111737 0.66661 -1.40592e-19)
(0.0262351 0.652483 7.86908e-22)
(0.0761298 0.630114 4.30093e-18)
(0.11329 0.605537 -2.45626e-18)
(0.202317 0.585988 1.74965e-18)
(0.212027 0.536608 -4.91718e-18)
(0.362433 0.553969 4.19695e-19)
(0.336473 0.492201 -1.28511e-18)
(0.526593 0.517004 2.23129e-18)
(0.00367769 -0.0222403 -2.14675e-19)
(-0.0461916 0.136238 9.66484e-19)
(-0.0717177 0.395847 -1.28248e-18)
(-0.0734799 0.554911 2.70217e-18)
(-0.0555323 0.632432 -2.26729e-18)
(-0.026889 0.66193 -2.02824e-18)
(0.00866936 0.664822 -1.26168e-18)
(0.046033 0.653935 -2.7082e-18)
(0.105362 0.633259 -5.22774e-18)
(0.135353 0.604832 7.9737e-19)
(0.245629 0.596874 4.06891e-18)
(0.242104 0.536767 3.24571e-18)
(0.414558 0.553782 5.45433e-19)
(0.382181 0.499163 -2.68243e-18)
(0.584024 0.516465 -1.33581e-18)
(0.01021 -0.0253414 5.17239e-19)
(-0.0303966 0.0730032 9.08219e-19)
(-0.0528365 0.316043 -3.87082e-18)
(-0.0570065 0.499196 -2.67332e-18)
(-0.0405874 0.600988 -7.8957e-20)
(-0.0124567 0.646567 2.13071e-18)
(0.0265967 0.657995 -7.75177e-19)
(0.0610966 0.651269 6.01613e-18)
(0.132446 0.634146 5.00223e-19)
(0.152209 0.597318 -3.32746e-18)
(0.283812 0.600944 -3.12503e-18)
(0.271085 0.538366 -4.96041e-18)
(0.457908 0.547756 5.45792e-18)
(0.427638 0.50259 3.59563e-18)
(0.632196 0.509189 -6.07214e-21)
(0.0139873 -0.0247926 -1.43986e-18)
(-0.0135743 0.0289299 -2.67358e-18)
(-0.0351887 0.2276 1.92759e-18)
(-0.0414276 0.42874 2.36098e-18)
(-0.0271966 0.556034 1.46648e-18)
(-0.00130252 0.621831 -1.48058e-18)
(0.0416331 0.644023 3.77624e-18)
(0.0711919 0.641721 -5.35809e-18)
(0.15555 0.634153 5.92576e-18)
(0.165961 0.585338 3.78167e-18)
(0.310983 0.59319 -1.16199e-18)
(0.302285 0.537206 -1.6174e-18)
(0.485692 0.534278 -2.18163e-18)
(0.472015 0.50062 -4.31169e-18)
(0.672832 0.492132 5.1603e-18)
(0.0157972 -0.0229734 4.0605e-18)
(0.0024828 0.00242561 3.11985e-18)
(-0.0195408 0.142699 7.09985e-19)
(-0.0278675 0.345032 -4.01023e-20)
(-0.0154078 0.4953 -5.07382e-19)
(0.00523008 0.583966 -6.01764e-19)
(0.0536148 0.622203 -2.94931e-18)
(0.0753202 0.622197 5.09774e-18)
(0.171258 0.626697 -3.95361e-18)
(0.180666 0.576122 -3.07751e-20)
(0.32115 0.573168 3.77457e-18)
(0.334477 0.529377 2.62406e-18)
(0.49835 0.515617 2.61281e-18)
(0.509491 0.490192 -2.71928e-20)
(0.7033 0.463688 -3.07499e-18)
(0.0168985 -0.0210395 -2.43704e-18)
(0.0156241 -0.0115858 -2.53054e-18)
(-0.00410986 0.0772581 7.89263e-19)
(-0.0165819 0.254257 -1.27734e-18)
(-0.00573795 0.418014 -5.98671e-19)
(0.0074729 0.530092 2.1603e-18)
(0.0588866 0.587597 -5.72753e-19)
(0.0770573 0.594606 -5.25445e-19)
(0.17207 0.605698 -1.59381e-18)
(0.198154 0.559396 -3.62816e-18)
(0.316416 0.55754 1.68226e-18)
(0.365405 0.498084 -1.97197e-18)
(0.496138 0.510116 -3.03448e-18)
(0.545039 0.444356 -1.35758e-18)
(0.705553 0.460949 5.46933e-18)
(0.0185348 -0.0193803 2.74899e-18)
(0.0262568 -0.0179996 -2.16194e-18)
(0.0122577 0.0364933 -3.56226e-18)
(-0.00586108 0.169429 3.64948e-19)
(0.0017707 0.328194 8.6357e-19)
(0.0054675 0.458563 -5.98301e-19)
(0.056781 0.537677 1.64294e-18)
(0.0726482 0.551314 3.49095e-19)
(0.162426 0.57712 -2.49312e-19)
(0.206398 0.522766 1.06311e-19)
(0.303725 0.536444 -1.75135e-18)
(0.393276 0.462512 2.16077e-19)
(0.48416 0.487706 9.70283e-19)
(0.570617 0.399037 -7.60707e-19)
(0.718929 0.458074 5.21682e-18)
(0.0213431 -0.0183301 5.76695e-19)
(0.0358524 -0.0206926 -1.23747e-18)
(0.0277584 0.0145658 3.465e-18)
(0.00637959 0.104518 2.6898e-18)
(0.00718948 0.238396 -2.70258e-18)
(0.000632029 0.371582 -1.78221e-19)
(0.0446531 0.4715 -1.23722e-18)
(0.0655006 0.491482 -4.62369e-19)
(0.132513 0.525521 3.31886e-18)
(0.220228 0.488371 1.65538e-18)
(0.253865 0.471657 2.27811e-18)
(0.446033 0.45346 -1.80609e-18)
(0.398215 0.398145 1.21436e-18)
(0.662537 0.402021 -6.86328e-19)
(0.606073 0.359806 -6.65917e-18)
(0.0253851 -0.0182198 4.59735e-19)
(0.0448796 -0.0223433 7.41187e-19)
(0.0404154 0.00293414 -1.90724e-18)
(0.0191064 0.0630791 -2.18261e-18)
(0.0101769 0.162833 -2.0117e-18)
(-0.00494629 0.279932 1.73012e-19)
(0.0230002 0.388784 1.44992e-18)
(0.0520225 0.4205 -2.61489e-18)
(0.093123 0.447935 -1.36996e-18)
(0.206452 0.435297 7.42997e-19)
(0.214382 0.393824 -2.09237e-18)
(0.421598 0.398254 2.0058e-19)
(0.322827 0.29172 1.43815e-18)
(0.676531 0.36295 -1.98139e-18)
(0.46167 0.221773 1.58359e-18)
(0.0302173 -0.0191419 -1.03395e-18)
(0.0525976 -0.0246178 2.34721e-18)
(0.048938 -0.00533357 1.55731e-18)
(0.0281768 0.0371768 1.04908e-18)
(0.0101683 0.10641 1.721e-18)
(-0.0126314 0.196764 -1.7309e-19)
(-0.00217896 0.297989 -1.35018e-18)
(0.0234628 0.336796 2.92601e-19)
(0.0572664 0.363597 1.79019e-18)
(0.154424 0.340723 -2.88076e-18)
(0.191128 0.324133 -1.3594e-18)
(0.325777 0.285378 9.81972e-20)
(0.336666 0.240712 -4.17572e-19)
(0.635568 0.29309 2.40459e-18)
(0.63906 0.26142 -2.23361e-18)
(0.03492 -0.0208359 1.12463e-18)
(0.0575401 -0.0282217 7.47913e-19)
(0.0520117 -0.0143365 -9.27654e-20)
(0.0300532 0.0167458 -6.80302e-19)
(0.00496578 0.064053 1.53585e-19)
(-0.0252298 0.127725 -2.00992e-18)
(-0.0291293 0.209866 4.49855e-19)
(-0.0171859 0.244536 -8.88814e-19)
(0.0161822 0.275092 -9.2768e-19)
(0.0919535 0.232225 1.98123e-18)
(0.136296 0.227909 2.88485e-18)
(0.283542 0.197417 1.38047e-18)
(0.432446 0.232272 1.41175e-18)
(0.737327 0.298808 -1.83169e-18)
(0.933043 0.37644 -1.92877e-18)
(0.0382788 -0.0227593 9.25779e-19)
(0.0581731 -0.032979 -1.77321e-18)
(0.0484084 -0.0254291 -8.57135e-19)
(0.0231189 -0.00395482 -1.91442e-18)
(-0.00810378 0.0279085 8.66071e-19)
(-0.0445437 0.0697269 2.12439e-18)
(-0.0609774 0.128934 -2.44299e-18)
(-0.0633381 0.151612 8.53453e-19)
(-0.035454 0.179492 1.59541e-18)
(0.0239326 0.127167 4.55744e-19)
(0.115331 0.135439 -1.92217e-18)
(0.369892 0.183897 -7.93066e-19)
(0.617683 0.261457 2.90492e-21)
(0.922514 0.358488 1.0676e-18)
(1.04841 0.398922 4.1669e-18)
(0.0391011 -0.0242266 -1.50343e-18)
(0.0535033 -0.0380677 -1.50601e-18)
(0.0377793 -0.0380471 8.40674e-19)
(0.00753191 -0.0263056 3.40272e-18)
(-0.0299253 -0.00710087 -2.2193e-18)
(-0.0720411 0.0176149 6.38727e-19)
(-0.1011 0.0546504 9.58044e-19)
(-0.115025 0.0623454 -7.46669e-20)
(-0.0947196 0.082769 1.98048e-19)
(0.0101462 0.0583889 9.42491e-19)
(0.237976 0.123728 -8.87703e-19)
(0.551367 0.222632 -1.80315e-18)
(0.826532 0.320112 -1.61749e-18)
(1.0199 0.379461 1.34149e-18)
(1.12292 0.412651 4.13021e-19)
(0.0365537 -0.0245625 -3.68493e-19)
(0.0433863 -0.0422676 2.96867e-18)
(0.0208776 -0.0503965 6.17542e-19)
(-0.015048 -0.0485861 8.8482e-19)
(-0.0592744 -0.0406923 8.13641e-19)
(-0.108203 -0.0292378 7.93798e-19)
(-0.148514 -0.0112098 -2.90534e-19)
(-0.1596 -0.0129296 5.23814e-19)
(-0.10332 0.0128875 2.68693e-19)
(0.129309 0.0655774 1.22003e-18)
(0.449891 0.174752 4.5837e-20)
(0.747342 0.279868 1.24904e-18)
(0.951197 0.348636 -1.02811e-18)
(1.09345 0.395208 -9.93627e-19)
(1.18473 0.427481 6.76639e-19)
(0.0304531 -0.0232366 1.32533e-18)
(0.0286682 -0.0441328 -1.22047e-18)
(-0.000354999 -0.0597126 1.17004e-19)
(-0.0415006 -0.0663523 -1.80853e-18)
(-0.0906635 -0.0668566 -1.49859e-18)
(-0.142772 -0.0631959 2.58474e-18)
(-0.180729 -0.0544302 7.59926e-19)
(-0.154654 -0.0509158 -1.106e-18)
(0.0016559 0.00711642 2.92114e-19)
(0.340027 0.12416 -3.30107e-18)
(0.655071 0.234414 1.15129e-18)
(0.886339 0.317636 -1.37581e-18)
(1.0447 0.370804 1.63943e-18)
(1.15092 0.409383 -1.88409e-19)
(1.20003 0.421553 -9.91827e-19)
(0.0214241 -0.020025 -2.06487e-18)
(0.0112382 -0.0423589 -2.09767e-18)
(-0.0223508 -0.0629462 -2.15594e-18)
(-0.0660231 -0.0744255 -1.6082e-18)
(-0.114032 -0.0778874 1.09025e-18)
(-0.15776 -0.0732247 -4.41329e-18)
(-0.174656 -0.0608016 4.04594e-19)
(-0.0789418 -0.0388989 3.94105e-19)
(0.200449 0.0692874 2.22706e-19)
(0.546548 0.190276 1.5533e-18)
(0.811186 0.281887 -1.27228e-18)
(0.993148 0.34766 3.01536e-18)
(1.11039 0.387536 -6.35565e-19)
(1.17275 0.408572 -1.2314e-18)
(1.2165 0.419956 6.91864e-19)
(0.0107383 -0.0151762 3.63625e-19)
(-0.00657478 -0.0365775 1.69833e-18)
(-0.0416297 -0.0586652 2.41204e-18)
(-0.0826412 -0.0707133 4.04957e-19)
(-0.121679 -0.0714978 1.90894e-18)
(-0.145255 -0.0585222 1.07477e-18)
(-0.128886 -0.0390457 3.31827e-19)
(0.0663554 0.0190952 -1.77841e-18)
(0.410298 0.145678 -1.13997e-19)
(0.717113 0.24644 8.07526e-19)
(0.932649 0.31984 3.12294e-18)
(1.06871 0.369183 -4.0935e-19)
(1.14497 0.3924 1.08e-18)
(1.19374 0.410419 1.0182e-18)
(1.2238 0.416011 1.63777e-18)
(-0.000125913 -0.00936879 6.64794e-19)
(-0.0226669 -0.0274572 -2.22295e-18)
(-0.0558907 -0.0479899 -4.85404e-19)
(-0.089213 -0.0574617 3.12014e-20)
(-0.112992 -0.0523507 -3.53569e-18)
(-0.111105 -0.0297609 9.08624e-19)
(-0.0489437 -0.0104995 -4.76916e-19)
(0.251451 0.0936569 5.71284e-19)
(0.592384 0.20868 1.97102e-18)
(0.853708 0.29086 -7.0998e-19)
(1.02041 0.348174 -2.39245e-18)
(1.1157 0.380673 -3.34631e-19)
(1.17222 0.397688 -3.64287e-19)
(1.20182 0.408347 -7.91445e-19)
(1.2214 0.408198 -1.76897e-18)
(-0.00991675 -0.00352866 1.38897e-19)
(-0.0358707 -0.0167548 6.01302e-19)
(-0.0644652 -0.0338096 -1.54642e-18)
(-0.0869246 -0.0393391 6.49147e-19)
(-0.0924347 -0.0281412 1.45874e-18)
(-0.0683614 -0.00313817 -6.21892e-19)
(0.0646727 0.0324316 -1.03472e-19)
(0.431877 0.158383 -1.47401e-18)
(0.744797 0.259902 3.17702e-19)
(0.957333 0.325251 -1.14779e-18)
(1.08062 0.367178 1.13462e-18)
(1.14984 0.389433 -9.36772e-19)
(1.18438 0.397919 1.64294e-18)
(1.20422 0.404106 -6.1705e-19)
(1.2238 0.404002 -1.28476e-18)
(-0.0178924 0.00153541 7.08883e-19)
(-0.045884 -0.00630113 4.44219e-19)
(-0.0683693 -0.0192161 4.00893e-19)
(-0.0787177 -0.0213493 1.03295e-19)
(-0.0667272 -0.00631429 6.54582e-19)
(-0.01737 0.00786375 -1.5607e-18)
(0.221422 0.0912523 8.77773e-19)
(0.5954 0.213005 2.12459e-18)
(0.866292 0.300266 -2.4128e-19)
(1.03272 0.349827 1.69912e-18)
(1.1229 0.380944 1.02701e-18)
(1.16785 0.392451 1.8215e-19)
(1.19158 0.397167 3.34594e-19)
(1.20727 0.401697 6.5458e-19)
(1.21994 0.397926 1.50349e-18)
(-0.0238846 0.00532276 1.07264e-18)
(-0.0530454 0.00243546 1.52573e-18)
(-0.069102 -0.00666407 -1.36824e-18)
(-0.0677821 -0.00641854 1.23887e-18)
(-0.0432695 0.00586512 -2.81302e-18)
(0.0558919 0.0183982 6.88481e-19)
(0.399497 0.148525 -2.36551e-19)
(0.737233 0.258194 -1.30814e-18)
(0.95932 0.33058 -2.43171e-18)
(1.08638 0.367779 -9.62744e-19)
(1.14852 0.388831 -2.41712e-18)
(1.18003 0.394102 1.5001e-18)
(1.19563 0.396531 -2.02159e-18)
(1.20502 0.397194 1.37274e-18)
(1.21702 0.392504 9.34249e-19)
(-0.028141 0.00768146 -2.53992e-18)
(-0.0580114 0.00862115 8.64948e-20)
(-0.0681434 0.00251818 1.81275e-19)
(-0.0571196 0.00446146 3.41392e-19)
(-0.0180694 0.00376823 1.89563e-19)
(0.179185 0.0595275 1.3048e-18)
(0.561893 0.200092 7.25314e-19)
(0.851636 0.294928 -2.11543e-19)
(1.0281 0.353196 1.08571e-18)
(1.12204 0.379471 7.22595e-19)
(1.1657 0.394096 3.3196e-19)
(1.18608 0.39415 -8.44197e-19)
(1.19531 0.394498 2.77605e-18)
(1.20416 0.393769 4.75986e-19)
(1.21447 0.388607 -1.01085e-18)
(-0.0311817 0.00874834 2.33356e-18)
(-0.0615172 0.0120601 -1.66553e-18)
(-0.0664214 0.00835339 5.3113e-19)
(-0.0493716 0.00936665 -5.30964e-20)
(0.0269066 -0.0027789 2.67071e-18)
(0.346472 0.119794 -2.19932e-19)
(0.702233 0.244331 -8.73148e-19)
(0.941852 0.323627 2.18618e-18)
(1.07772 0.369089 2.12269e-19)
(1.14622 0.387588 9.32826e-19)
(1.17486 0.3967 -1.89808e-18)
(1.18851 0.393218 4.16988e-20)
(1.1954 0.393483 -8.71214e-19)
(1.20186 0.390372 -1.81713e-19)
(1.20947 0.383847 -5.88794e-19)
(-0.0336116 0.00881241 -6.23546e-19)
(-0.0641215 0.0130245 1.73966e-18)
(-0.0646252 0.0120848 1.04805e-18)
(-0.0415056 0.00557985 8.33918e-19)
(0.112399 0.0206377 -4.36656e-19)
(0.506287 0.174498 -1.77899e-19)
(0.817365 0.280995 1.15766e-18)
(1.01002 0.345848 -9.22783e-19)
(1.11262 0.380659 2.91305e-19)
(1.16073 0.392563 -1.56713e-18)
(1.17994 0.397928 1.15998e-19)
(1.18948 0.392443 2.41241e-19)
(1.19315 0.391959 -3.604e-19)
(1.19877 0.38668 -2.13287e-18)
(1.20635 0.380797 8.93668e-19)
(-0.0359666 0.00815234 -1.09781e-18)
(-0.0660202 0.0123527 -1.37224e-18)
(-0.0640226 0.0139367 7.24659e-19)
(-0.0198116 -0.00649739 -9.48422e-20)
(0.250196 0.0799521 -1.09714e-18)
(0.642726 0.221169 -4.94036e-20)
(0.909175 0.31122 -8.05334e-19)
(1.06122 0.363007 -1.63283e-18)
(1.1364 0.388477 -6.8517e-19)
(1.16978 0.39578 6.43022e-19)
(1.18197 0.398338 5.97993e-19)
(1.1882 0.391239 -6.32783e-20)
(1.19099 0.39078 -9.60753e-19)
(1.19636 0.383919 1.75314e-18)
(1.2015 0.37773 5.42773e-19)
(-0.0385638 0.00699613 1.08101e-18)
(-0.0670818 0.011684 1.96924e-21)
(-0.0643199 0.0117864 -1.77694e-18)
(0.0305503 -0.0108453 -3.86071e-20)
(0.408958 0.139515 2.69283e-19)
(0.760666 0.260205 4.81444e-19)
(0.981193 0.335414 -8.7156e-19)
(1.09811 0.375972 4.54103e-19)
(1.15207 0.394121 -1.97489e-20)
(1.17427 0.397789 5.22847e-19)
(1.1819 0.398145 -4.7483e-19)
(1.18671 0.390455 -1.34035e-18)
(1.18824 0.389784 -6.39341e-20)
(1.19255 0.380792 -8.4604e-19)
(1.19711 0.375253 -7.31937e-19)
(-0.0412707 0.00551733 4.4116e-19)
(-0.0675034 0.0122909 -8.99248e-19)
(-0.0607697 0.00514674 9.06474e-19)
(0.115385 0.0200969 -2.85251e-19)
(0.544949 0.188264 -1.54183e-19)
(0.856161 0.293552 -4.38627e-19)
(1.03582 0.355176 6.8525e-19)
(1.12433 0.385967 4.50442e-19)
(1.16187 0.397988 -2.71361e-19)
(1.1763 0.399047 -7.81436e-19)
(1.18092 0.397895 -2.85486e-19)
(1.1841 0.389717 1.36974e-18)
(1.18492 0.388682 8.39483e-19)
(1.18941 0.378411 8.28894e-19)
(1.19261 0.373619 -2.5549e-19)
(-0.0437428 0.00415319 -2.76664e-19)
(-0.0685342 0.0128592 9.93155e-20)
(-0.0436557 -0.00691766 -3.75404e-19)
(0.240067 0.0793011 -5.78093e-21)
(0.662695 0.231085 -2.88428e-19)
(0.933888 0.321483 -4.30305e-19)
(1.07741 0.370918 1.48577e-19)
(1.14228 0.39346 -8.9738e-19)
(1.16755 0.400882 8.07465e-19)
(1.17636 0.400042 1.04196e-18)
(1.17882 0.397551 1.35778e-19)
(1.1813 0.389255 -1.18488e-18)
(1.18173 0.387918 -1.15741e-18)
(1.18542 0.376147 -8.75931e-19)
(1.1874 0.371944 3.53552e-19)
(-0.0457537 0.0041112 -8.94329e-19)
(-0.0707251 0.0108055 2.45628e-19)
(-0.00340443 -0.015921 -1.78588e-19)
(0.383953 0.135458 -4.79018e-21)
(0.766395 0.266398 -7.41217e-20)
(0.994951 0.344091 -1.65887e-19)
(1.10731 0.38347 3.03884e-19)
(1.15402 0.399393 -1.78429e-19)
(1.17032 0.403142 -2.31821e-19)
(1.1753 0.40082 -4.51082e-19)
(1.17648 0.397367 -4.01953e-19)
(1.17807 0.389046 -1.84655e-19)
(1.17787 0.387041 7.17746e-19)
(1.18148 0.374279 -2.77958e-20)
(1.18277 0.371185 5.64584e-19)
(-0.0469751 0.00662359 3.71842e-19)
(-0.0721796 0.00589642 6.23651e-19)
(0.0611063 -0.00416232 1.03309e-19)
(0.512352 0.181405 3.87698e-19)
(0.852884 0.297773 8.45097e-19)
(1.0424 0.36318 3.08874e-19)
(1.12893 0.39358 1.1393e-18)
(1.16136 0.404054 6.00757e-19)
(1.17111 0.405071 3.84122e-19)
(1.1734 0.401696 8.85181e-19)
(1.1735 0.397358 2.75934e-19)
(1.17452 0.389005 5.06412e-19)
(1.17416 0.386422 2.51456e-19)
(1.17725 0.372866 1.18701e-19)
(1.17724 0.370334 3.88993e-19)
(-0.0475195 0.0113577 5.18772e-19)
(-0.0683361 -0.00234986 -8.85915e-19)
(0.150239 0.0350959 -1.68548e-19)
(0.62082 0.222068 4.05143e-19)
(0.924354 0.325213 -8.53502e-19)
(1.07902 0.378994 -3.46759e-19)
(1.14367 0.401691 -7.03956e-19)
(1.1653 0.407961 -2.39245e-20)
(1.1705 0.406903 -1.90292e-19)
(1.17093 0.402619 -7.45817e-19)
(1.17038 0.397542 5.69267e-19)
(1.17082 0.389231 4.30877e-20)
(1.16997 0.385845 -2.45242e-20)
(1.17268 0.371682 2.07678e-19)
(1.17221 0.370051 -4.77866e-19)
(-0.0481626 0.0153869 -3.81912e-20)
(-0.0529583 -0.0122155 3.87885e-19)
(0.262585 0.0874975 1.05781e-19)
(0.715836 0.256651 -5.66125e-19)
(0.981769 0.348378 3.77756e-19)
(1.10624 0.392258 1.20302e-19)
(1.15356 0.408503 -3.1548e-19)
(1.16705 0.411378 -1.49863e-19)
(1.16894 0.408725 -4.55035e-19)
(1.16803 0.403741 8.10786e-20)
(1.16686 0.398 -5.5139e-19)
(1.16675 0.389602 -3.91739e-19)
(1.16575 0.385448 1.04841e-19)
(1.16808 0.37101 1.08637e-19)
(1.16659 0.369774 -1.88751e-19)
(-0.049469 0.0151632 -1.9248e-19)
(-0.0227036 -0.0177643 -1.22744e-19)
(0.384709 0.137395 2.66116e-19)
(0.798694 0.286628 4.85809e-19)
(1.02718 0.367682 9.44872e-20)
(1.12615 0.403199 -2.59801e-19)
(1.15961 0.414263 3.26499e-19)
(1.16706 0.414567 2.84897e-19)
(1.16665 0.410684 1.4824e-19)
(1.16477 0.405031 2.8282e-20)
(1.16315 0.398647 1.77496e-19)
(1.16259 0.390186 7.87165e-20)
(1.16123 0.385213 -5.53323e-20)
(1.16304 0.370515 -6.96807e-20)
(1.16122 0.369704 6.15927e-20)
(-0.0514565 0.00823258 -8.96918e-20)
(0.02169 -0.0140942 -1.05424e-19)
(0.498486 0.181312 8.69192e-20)
(0.871022 0.314045 -1.14888e-19)
(1.06311 0.384093 -2.45921e-19)
(1.14004 0.412384 1.88399e-20)
(1.16285 0.419401 1.51124e-19)
(1.16595 0.417702 -1.36396e-19)
(1.16384 0.412797 9.03623e-20)
(1.16121 0.40654 1.827e-19)
(1.15913 0.399575 2.91949e-20)
(1.15806 0.390927 7.32146e-20)
(1.15652 0.385123 -8.84985e-20)