/*--------------------------------*- C++ -*----------------------------------*\
  =========                 |
  \\      /  F ield         | OpenFOAM: The Open Source CFD Toolbox
   \\    /   O peration     | Website:  https://openfoam.org
    \\  /    A nd           | Version:  7
     \\/     M anipulation  |
\*---------------------------------------------------------------------------*/
FoamFile
{
    version     2.0;
    format      ascii;
    class       volScalarField;
    location    "15";
    object      p;
}
// * * * * * * * * * * * * * * * * * * * * * * * * * * * * * * * * * * * * * //

dimensions      [0 2 -2 0 0 0 0];

internalField   nonuniform List<scalar> 
8500
(
-0.288602
-0.290698
-0.291683
-0.292493
-0.293217
-0.293888
-0.29454
-0.29519
-0.295848
-0.296564
-0.288819
-0.290887
-0.291857
-0.292653
-0.293363
-0.294019
-0.294655
-0.295287
-0.29592
-0.296594
-0.289249
-0.291262
-0.292201
-0.29297
-0.293651
-0.294277
-0.294879
-0.295474
-0.296058
-0.296645
-0.289883
-0.291814
-0.292709
-0.293435
-0.294073
-0.294654
-0.295204
-0.29574
-0.29625
-0.2967
-0.290709
-0.292535
-0.293372
-0.294041
-0.294619
-0.295138
-0.295615
-0.29607
-0.296484
-0.296734
-0.291711
-0.293414
-0.294178
-0.294774
-0.295276
-0.295713
-0.296097
-0.296446
-0.296744
-0.296713
-0.292873
-0.294436
-0.295115
-0.295622
-0.29603
-0.296367
-0.296634
-0.296847
-0.297016
-0.296593
-0.294179
-0.29559
-0.296169
-0.296571
-0.296867
-0.297083
-0.29721
-0.297253
-0.297293
-0.296314
-0.295613
-0.296863
-0.29733
-0.297609
-0.297774
-0.297849
-0.297811
-0.29765
-0.297581
-0.295786
-0.297161
-0.298244
-0.298585
-0.298726
-0.298739
-0.298654
-0.298431
-0.298022
-0.297895
-0.294987
-0.298815
-0.299726
-0.299928
-0.299911
-0.299753
-0.299489
-0.299064
-0.298361
-0.29816
-0.294179
-0.300568
-0.301305
-0.301353
-0.301159
-0.30081
-0.300349
-0.299712
-0.298712
-0.298282
-0.293199
-0.302422
-0.302979
-0.302857
-0.302465
-0.301906
-0.301231
-0.300366
-0.299103
-0.298412
-0.291918
-0.304383
-0.304755
-0.304444
-0.303831
-0.303038
-0.302135
-0.30103
-0.299504
-0.298603
-0.290384
-0.306463
-0.30664
-0.306119
-0.305258
-0.304208
-0.303058
-0.301706
-0.299929
-0.298826
-0.288726
-0.308683
-0.308652
-0.307893
-0.306756
-0.305421
-0.304003
-0.302389
-0.300404
-0.299001
-0.287146
-0.311071
-0.310813
-0.309783
-0.308339
-0.306687
-0.304974
-0.303071
-0.300953
-0.298975
-0.285835
-0.313661
-0.313141
-0.311819
-0.310028
-0.308024
-0.305985
-0.303756
-0.301609
-0.298524
-0.284844
-0.3165
-0.315677
-0.314026
-0.31185
-0.30946
-0.307064
-0.304465
-0.302404
-0.29757
-0.28477
-0.319642
-0.318456
-0.316438
-0.313841
-0.31103
-0.308246
-0.305244
-0.303279
-0.296542
-0.288857
-0.323123
-0.321533
-0.3191
-0.316046
-0.312781
-0.309577
-0.306141
-0.304017
-0.296059
-0.300164
-0.327013
-0.324947
-0.322056
-0.318511
-0.314764
-0.311105
-0.30721
-0.304532
-0.296319
-0.299203
-0.331371
-0.328748
-0.325356
-0.32129
-0.317033
-0.312877
-0.308478
-0.304938
-0.296676
-0.296428
-0.336254
-0.332984
-0.32905
-0.324434
-0.319641
-0.314932
-0.309942
-0.305379
-0.296842
-0.293684
-0.341714
-0.337705
-0.333187
-0.327993
-0.32263
-0.317296
-0.311591
-0.305871
-0.296747
-0.290854
-0.347799
-0.342952
-0.337813
-0.332013
-0.326032
-0.31998
-0.313403
-0.306379
-0.296323
-0.288044
-0.354545
-0.348766
-0.342973
-0.336532
-0.329864
-0.322972
-0.315338
-0.306834
-0.295549
-0.285176
-0.36198
-0.355179
-0.3487
-0.341576
-0.334126
-0.326241
-0.317329
-0.307148
-0.294409
-0.282181
-0.370115
-0.362212
-0.355022
-0.347155
-0.3388
-0.329727
-0.319278
-0.307231
-0.292891
-0.278986
-0.378947
-0.369873
-0.361946
-0.353257
-0.343839
-0.333338
-0.321073
-0.306994
-0.290978
-0.275528
-0.388449
-0.378155
-0.369459
-0.359844
-0.349167
-0.336946
-0.322592
-0.306361
-0.288649
-0.271751
-0.398569
-0.387023
-0.37752
-0.366846
-0.354664
-0.340399
-0.323713
-0.30526
-0.285873
-0.267606
-0.409226
-0.396418
-0.386053
-0.374155
-0.360171
-0.343528
-0.324321
-0.303628
-0.282616
-0.263044
-0.420305
-0.406243
-0.394947
-0.38162
-0.36549
-0.346163
-0.324309
-0.301401
-0.278834
-0.258018
-0.431657
-0.416368
-0.404049
-0.389045
-0.370402
-0.348134
-0.323573
-0.298516
-0.27448
-0.25248
-0.443093
-0.426619
-0.413163
-0.396191
-0.374677
-0.349283
-0.322017
-0.294909
-0.269501
-0.246382
-0.454386
-0.436784
-0.422053
-0.402788
-0.378082
-0.349456
-0.319547
-0.290515
-0.263841
-0.239678
-0.465274
-0.446614
-0.430443
-0.408544
-0.380395
-0.348512
-0.316074
-0.285267
-0.257443
-0.232324
-0.475465
-0.455825
-0.438025
-0.413165
-0.381404
-0.346321
-0.311511
-0.279099
-0.250251
-0.224279
-0.484641
-0.464108
-0.444471
-0.416361
-0.380915
-0.342762
-0.305776
-0.271947
-0.24221
-0.215507
-0.492466
-0.471131
-0.449439
-0.417859
-0.378754
-0.337726
-0.298795
-0.263748
-0.23327
-0.205978
-0.498597
-0.476552
-0.452597
-0.41741
-0.374767
-0.331116
-0.290494
-0.254446
-0.223391
-0.195667
-0.502692
-0.480031
-0.453629
-0.414793
-0.36882
-0.322847
-0.280812
-0.243988
-0.212536
-0.184564
-0.504421
-0.481236
-0.452248
-0.409823
-0.360808
-0.312849
-0.269692
-0.232325
-0.200668
-0.172652
-0.503478
-0.479855
-0.448205
-0.402347
-0.350644
-0.30107
-0.257095
-0.21942
-0.187739
-0.159847
-0.499585
-0.47561
-0.441295
-0.392253
-0.338272
-0.287474
-0.242998
-0.205258
-0.173712
-0.145964
-0.492504
-0.468264
-0.431363
-0.379466
-0.323657
-0.272042
-0.227387
-0.18984
-0.158611
-0.130859
-0.482042
-0.457631
-0.418299
-0.363949
-0.306794
-0.254771
-0.210248
-0.173148
-0.142526
-0.114782
-0.468057
-0.443579
-0.402039
-0.345698
-0.287697
-0.235671
-0.191585
-0.15519
-0.125393
-0.0982521
-0.45046
-0.426033
-0.38257
-0.324749
-0.266407
-0.214773
-0.171478
-0.13621
-0.107096
-0.0811297
-0.429216
-0.404971
-0.359924
-0.301172
-0.242984
-0.192157
-0.150078
-0.116026
-0.0878615
-0.0633121
-0.404349
-0.380432
-0.33419
-0.275074
-0.217515
-0.16796
-0.127331
-0.0947301
-0.0677786
-0.0448124
-0.375933
-0.352517
-0.305529
-0.246553
-0.190128
-0.142203
-0.103334
-0.072413
-0.0469124
-0.025704
-0.344097
-0.321399
-0.274157
-0.215621
-0.160942
-0.115017
-0.0781902
-0.049171
-0.0253328
-0.00607946
-0.309028
-0.287309
-0.240147
-0.18251
-0.130085
-0.086537
-0.0520209
-0.0251021
-0.0031129
0.0139849
-0.270948
-0.250472
-0.203194
-0.14782
-0.097796
-0.0569147
-0.0249544
-0.000303948
0.0196792
0.0344092
-0.230067
-0.210974
-0.164186
-0.111468
-0.0642681
-0.0263178
0.00287825
0.0251333
0.0429401
0.0549401
-0.186655
-0.168958
-0.123696
-0.0737047
-0.0296911
0.00508081
0.0313533
0.0511211
0.0664403
0.0749896
-0.141153
-0.124953
-0.0817872
-0.0348098
0.00572444
0.0371066
0.0603472
0.0775301
0.0898366
0.0940569
-0.0939211
-0.0793228
-0.0386774
0.00494198
0.0417507
0.0695765
0.089697
0.104104
0.112867
0.113061
-0.0452888
-0.0324884
0.00532714
0.0452745
0.0781535
0.102294
0.119177
0.130465
0.135297
0.135864
0.00433737
0.0151577
0.0498866
0.0859046
0.114695
0.135051
0.148549
0.15652
0.158233
0.158823
0.0545364
0.0632266
0.094651
0.126543
0.151132
0.16763
0.177649
0.18232
0.181354
0.180766
0.104884
0.111325
0.139269
0.166898
0.187218
0.199818
0.206317
0.207769
0.204305
0.201937
0.154953
0.15906
0.183393
0.206677
0.222705
0.231404
0.234393
0.232704
0.226771
0.222294
0.204321
0.206037
0.226679
0.245592
0.25735
0.262184
0.261709
0.25696
0.248574
0.24183
0.252571
0.251872
0.268792
0.28336
0.290913
0.291955
0.288094
0.280372
0.269563
0.260486
0.299295
0.29619
0.309407
0.319706
0.323163
0.320521
0.313381
0.302789
0.289612
0.278192
0.3441
0.338628
0.348212
0.354368
0.353876
0.347694
0.337406
0.324069
0.308604
0.294874
0.386611
0.378842
0.384909
0.387095
0.38284
0.373291
0.360016
0.344077
0.326429
0.310454
0.426471
0.416505
0.419219
0.417649
0.409854
0.397142
0.381064
0.362689
0.342984
0.324862
0.463349
0.451315
0.450882
0.44581
0.434729
0.419087
0.400415
0.379789
0.358173
0.338028
0.496938
0.482992
0.479656
0.471376
0.457295
0.438981
0.417944
0.39527
0.371907
0.349891
0.52696
0.511282
0.505325
0.494162
0.477395
0.456689
0.433539
0.409035
0.384106
0.360394
0.553167
0.535961
0.527695
0.514005
0.494888
0.472093
0.447098
0.420999
0.394698
0.369488
0.575343
0.556831
0.546599
0.530763
0.509655
0.485091
0.458533
0.431086
0.403621
0.377131
0.593305
0.573729
0.561894
0.544315
0.521593
0.495594
0.467772
0.439233
0.410822
0.383287
0.606907
0.58652
0.573467
0.554564
0.530619
0.503534
0.474753
0.445388
0.416261
0.387929
0.616038
0.595104
0.58123
0.561438
0.536672
0.508857
0.479433
0.449513
0.419904
0.391035
0.620622
0.599413
0.585127
0.564888
0.539708
0.511528
0.48178
0.451582
0.421731
0.392592
0.620622
0.599413
0.585127
0.564888
0.539708
0.511528
0.48178
0.451582
0.421731
0.392592
0.616038
0.595104
0.58123
0.561438
0.536672
0.508857
0.479433
0.449513
0.419904
0.391035
0.606907
0.58652
0.573467
0.554564
0.530619
0.503534
0.474753
0.445388
0.416261
0.387929
0.593305
0.573729
0.561894
0.544315
0.521593
0.495594
0.467772
0.439233
0.410822
0.383287
0.575342
0.556831
0.546599
0.530763
0.509655
0.48509
0.458533
0.431086
0.403621
0.377131
0.553167
0.535961
0.527695
0.514005
0.494888
0.472093
0.447098
0.420999
0.394698
0.369488
0.52696
0.511282
0.505325
0.494162
0.477395
0.456689
0.433539
0.409035
0.384106
0.360394
0.496938
0.482992
0.479656
0.471376
0.457295
0.43898
0.417944
0.39527
0.371907
0.349891
0.463349
0.451315
0.450882
0.44581
0.434729
0.419087
0.400415
0.379788
0.358173
0.338028
0.426471
0.416505
0.419219
0.417649
0.409853
0.397142
0.381064
0.362689
0.342984
0.324861
0.386611
0.378842
0.384909
0.387095
0.38284
0.37329
0.360016
0.344077
0.326429
0.310454
0.3441
0.338628
0.348211
0.354368
0.353876
0.347693
0.337406
0.324069
0.308604
0.294873
0.299295
0.29619
0.309407
0.319706
0.323163
0.320521
0.31338
0.302789
0.289612
0.278192
0.252571
0.251872
0.268792
0.283359
0.290913
0.291955
0.288094
0.280372
0.269563
0.260486
0.204321
0.206037
0.226679
0.245592
0.25735
0.262184
0.261709
0.25696
0.248574
0.24183
0.154953
0.159059
0.183393
0.206677
0.222705
0.231404
0.234393
0.232704
0.226771
0.222294
0.104884
0.111325
0.139269
0.166898
0.187218
0.199818
0.206317
0.207769
0.204305
0.201937
0.0545362
0.0632264
0.0946508
0.126543
0.151132
0.16763
0.177649
0.18232
0.181354
0.180765
0.00433719
0.0151575
0.0498864
0.0859044
0.114695
0.13505
0.148549
0.15652
0.158233
0.158823
-0.045289
-0.0324886
0.00532696
0.0452743
0.0781533
0.102294
0.119177
0.130465
0.135297
0.135864
-0.0939213
-0.079323
-0.0386776
0.0049418
0.0417505
0.0695763
0.0896969
0.104104
0.112867
0.113061
-0.141153
-0.124953
-0.0817874
-0.03481
0.00572426
0.0371064
0.060347
0.07753
0.0898365
0.0940567
-0.186655
-0.168959
-0.123696
-0.0737049
-0.0296913
0.00508062
0.0313531
0.0511209
0.0664402
0.0749894
-0.230067
-0.210974
-0.164187
-0.111468
-0.0642683
-0.026318
0.00287806
0.0251332
0.04294
0.0549399
-0.270948
-0.250472
-0.203194
-0.14782
-0.0977962
-0.0569149
-0.0249546
-0.000304134
0.019679
0.034409
-0.309029
-0.287309
-0.240147
-0.18251
-0.130085
-0.0865372
-0.0520211
-0.0251023
-0.00311308
0.0139848
-0.344097
-0.3214
-0.274158
-0.215621
-0.160942
-0.115017
-0.0781904
-0.0491712
-0.025333
-0.00607964
-0.375933
-0.352517
-0.305529
-0.246553
-0.190128
-0.142203
-0.103334
-0.0724132
-0.0469126
-0.0257042
-0.40435
-0.380433
-0.33419
-0.275075
-0.217516
-0.167961
-0.127331
-0.0947303
-0.0677788
-0.0448126
-0.429217
-0.404972
-0.359925
-0.301172
-0.242985
-0.192158
-0.150078
-0.116026
-0.0878617
-0.0633123
-0.45046
-0.426033
-0.38257
-0.324749
-0.266407
-0.214773
-0.171478
-0.136211
-0.107096
-0.0811299
-0.468057
-0.443579
-0.40204
-0.345699
-0.287698
-0.235671
-0.191586
-0.15519
-0.125394
-0.0982523
-0.482043
-0.457631
-0.4183
-0.363949
-0.306794
-0.254771
-0.210248
-0.173148
-0.142526
-0.114782
-0.492505
-0.468265
-0.431364
-0.379467
-0.323658
-0.272043
-0.227387
-0.18984
-0.158611
-0.130859
-0.499586
-0.475611
-0.441296
-0.392254
-0.338272
-0.287474
-0.242998
-0.205258
-0.173712
-0.145964
-0.503479
-0.479856
-0.448205
-0.402347
-0.350645
-0.30107
-0.257095
-0.21942
-0.187739
-0.159847
-0.504422
-0.481236
-0.452248
-0.409823
-0.360808
-0.312849
-0.269692
-0.232326
-0.200668
-0.172653
-0.502692
-0.480032
-0.45363
-0.414794
-0.368821
-0.322847
-0.280812
-0.243989
-0.212537
-0.184565
-0.498597
-0.476553
-0.452598
-0.41741
-0.374767
-0.331116
-0.290495
-0.254446
-0.223391
-0.195667
-0.492467
-0.471131
-0.44944
-0.41786
-0.378755
-0.337726
-0.298795
-0.263748
-0.23327
-0.205978
-0.484642
-0.464108
-0.444471
-0.416362
-0.380916
-0.342762
-0.305777
-0.271947
-0.24221
-0.215507
-0.475466
-0.455826
-0.438026
-0.413166
-0.381404
-0.346322
-0.311511
-0.2791
-0.250251
-0.224279
-0.465275
-0.446614
-0.430443
-0.408545
-0.380395
-0.348513
-0.316074
-0.285267
-0.257444
-0.232324
-0.454386
-0.436784
-0.422053
-0.402788
-0.378083
-0.349456
-0.319548
-0.290515
-0.263842
-0.239678
-0.443093
-0.426619
-0.413163
-0.396191
-0.374677
-0.349283
-0.322017
-0.294909
-0.269502
-0.246382
-0.431658
-0.416368
-0.404049
-0.389045
-0.370403
-0.348135
-0.323574
-0.298516
-0.274481
-0.25248
-0.420306
-0.406244
-0.394948
-0.38162
-0.365491
-0.346163
-0.324309
-0.301401
-0.278835
-0.258018
-0.409226
-0.396418
-0.386054
-0.374155
-0.360171
-0.343529
-0.324322
-0.303629
-0.282616
-0.263044
-0.398569
-0.387024
-0.37752
-0.366847
-0.354665
-0.340399
-0.323713
-0.305261
-0.285874
-0.267606
-0.388449
-0.378155
-0.369459
-0.359845
-0.349168
-0.336947
-0.322592
-0.306361
-0.288649
-0.271752
-0.378947
-0.369874
-0.361946
-0.353258
-0.34384
-0.333339
-0.321074
-0.306994
-0.290979
-0.275528
-0.370116
-0.362212
-0.355022
-0.347155
-0.3388
-0.329728
-0.319279
-0.307231
-0.292891
-0.278987
-0.36198
-0.355179
-0.348701
-0.341576
-0.334127
-0.326241
-0.317329
-0.307149
-0.294409
-0.282182
-0.354546
-0.348767
-0.342973
-0.336532
-0.329864
-0.322972
-0.315339
-0.306834
-0.295549
-0.285176
-0.347799
-0.342953
-0.337814
-0.332013
-0.326032
-0.31998
-0.313403
-0.30638
-0.296324
-0.288044
-0.341715
-0.337705
-0.333187
-0.327993
-0.32263
-0.317297
-0.311591
-0.305871
-0.296748
-0.290854
-0.336255
-0.332985
-0.329051
-0.324434
-0.319641
-0.314932
-0.309943
-0.305379
-0.296842
-0.293685
-0.331372
-0.328748
-0.325357
-0.32129
-0.317034
-0.312877
-0.308479
-0.304939
-0.296677
-0.296429
-0.327013
-0.324948
-0.322057
-0.318512
-0.314764
-0.311106
-0.307211
-0.304533
-0.29632
-0.299204
-0.323123
-0.321533
-0.3191
-0.316046
-0.312781
-0.309578
-0.306142
-0.304018
-0.29606
-0.300165
-0.319642
-0.318456
-0.316439
-0.313842
-0.311031
-0.308247
-0.305244
-0.303279
-0.296543
-0.288858
-0.3165
-0.315678
-0.314026
-0.31185
-0.30946
-0.307064
-0.304466
-0.302404
-0.29757
-0.284771
-0.313662
-0.313142
-0.311819
-0.310029
-0.308025
-0.305986
-0.303756
-0.30161
-0.298524
-0.284845
-0.311071
-0.310813
-0.309783
-0.30834
-0.306688
-0.304974
-0.303072
-0.300954
-0.298975
-0.285836
-0.308683
-0.308653
-0.307894
-0.306756
-0.305422
-0.304003
-0.302389
-0.300405
-0.299002
-0.287147
-0.306463
-0.306641
-0.306119
-0.305259
-0.304208
-0.303058
-0.301706
-0.299929
-0.298826
-0.288727
-0.304383
-0.304755
-0.304444
-0.303831
-0.303038
-0.302135
-0.30103
-0.299504
-0.298604
-0.290385
-0.302423
-0.30298
-0.302858
-0.302466
-0.301906
-0.301231
-0.300366
-0.299104
-0.298412
-0.291919
-0.300569
-0.301305
-0.301353
-0.301159
-0.300811
-0.30035
-0.299713
-0.298713
-0.298282
-0.2932
-0.298815
-0.299726
-0.299929
-0.299911
-0.299754
-0.29949
-0.299064
-0.298361
-0.29816
-0.294179
-0.297161
-0.298244
-0.298586
-0.298726
-0.298739
-0.298654
-0.298431
-0.298022
-0.297895
-0.294987
-0.295613
-0.296863
-0.29733
-0.29761
-0.297774
-0.297849
-0.297812
-0.29765
-0.297582
-0.295787
-0.294179
-0.29559
-0.296169
-0.296571
-0.296867
-0.297083
-0.29721
-0.297254
-0.297294
-0.296314
-0.292874
-0.294437
-0.295115
-0.295622
-0.29603
-0.296367
-0.296634
-0.296847
-0.297016
-0.296594
-0.291711
-0.293414
-0.294178
-0.294774
-0.295276
-0.295714
-0.296098
-0.296446
-0.296744
-0.296713
-0.290709
-0.292536
-0.293372
-0.294041
-0.294619
-0.295138
-0.295615
-0.29607
-0.296485
-0.296735
-0.289883
-0.291814
-0.29271
-0.293436
-0.294073
-0.294654
-0.295204
-0.29574
-0.296251
-0.296701
-0.289249
-0.291262
-0.292201
-0.29297
-0.293651
-0.294278
-0.294879
-0.295474
-0.296058
-0.296645
-0.288819
-0.290887
-0.291857
-0.292653
-0.293363
-0.294019
-0.294655
-0.295287
-0.29592
-0.296594
-0.288602
-0.290698
-0.291683
-0.292493
-0.293217
-0.293888
-0.29454
-0.29519
-0.295848
-0.296564
-0.297639
-0.298638
-0.3
-0.301599
-0.303594
-0.306044
-0.309056
-0.312728
-0.31715
-0.322372
-0.328365
-0.334956
-0.341738
-0.347988
-0.352529
-0.353819
-0.349555
-0.337688
-0.315543
-0.282984
-0.23878
-0.18919
-0.135593
-0.0860014
-0.04508
-0.0106384
0.00580813
0.02156
0.015065
0.015919
-0.297728
-0.298685
-0.300041
-0.301631
-0.303618
-0.306062
-0.309071
-0.312743
-0.317168
-0.322401
-0.328414
-0.335037
-0.341863
-0.348173
-0.352786
-0.354159
-0.34998
-0.338208
-0.316126
-0.283605
-0.239375
-0.189742
-0.136069
-0.0863892
-0.0454062
-0.0108861
0.00560065
0.0214022
0.0149493
0.0158412
-0.297899
-0.298772
-0.300119
-0.301688
-0.30366
-0.306093
-0.309094
-0.312763
-0.317196
-0.322449
-0.3285
-0.335183
-0.342095
-0.348519
-0.353272
-0.354809
-0.350796
-0.339211
-0.317253
-0.284813
-0.240535
-0.190823
-0.137005
-0.0871545
-0.0460537
-0.0113802
0.0051873
0.021086
0.0147196
0.0156864
-0.298138
-0.298886
-0.30022
-0.301759
-0.303709
-0.306124
-0.309112
-0.312776
-0.317217
-0.322497
-0.328599
-0.335366
-0.342399
-0.348986
-0.353939
-0.355711
-0.351938
-0.340626
-0.318853
-0.286538
-0.242205
-0.192385
-0.138373
-0.08828
-0.0470095
-0.0121179
0.00457138
0.0206105
0.014379
0.015456
-0.298431
-0.299008
-0.300329
-0.30183
-0.303751
-0.306141
-0.309109
-0.312764
-0.31721
-0.322519
-0.328681
-0.335549
-0.342729
-0.349518
-0.354721
-0.356789
-0.35332
-0.342357
-0.320832
-0.28869
-0.244306
-0.194366
-0.140134
-0.089737
-0.048259
-0.0130949
0.00375783
0.0199751
0.0139319
0.0151523
-0.29876
-0.29912
-0.30043
-0.301886
-0.30377
-0.306126
-0.309067
-0.312705
-0.317151
-0.322486
-0.328711
-0.335689
-0.343033
-0.35005
-0.35554
-0.357953
-0.354823
-0.344295
-0.323077
-0.291163
-0.246753
-0.196702
-0.14223
-0.0914973
-0.049783
-0.0143049
0.00275316
0.0191801
0.0133838
0.014778
-0.299115
-0.2992
-0.300507
-0.301911
-0.30375
-0.306065
-0.30897
-0.312581
-0.317018
-0.322373
-0.328655
-0.335743
-0.343257
-0.350518
-0.356319
-0.359111
-0.356305
-0.346328
-0.325474
-0.293844
-0.249454
-0.199322
-0.144593
-0.0935329
-0.0515591
-0.0157393
0.00156549
0.0182274
0.0127411
0.0143368
-0.299503
-0.299228
-0.300546
-0.301892
-0.303678
-0.305945
-0.308802
-0.312375
-0.316792
-0.322154
-0.328484
-0.335674
-0.343354
-0.350862
-0.356984
-0.360186
-0.35811
-0.348353
-0.327912
-0.296644
-0.252305
-0.2021
-0.147217
-0.095801
-0.0535635
-0.0173868
0.000204571
0.0171209
0.0120106
0.0138329
-0.299974
-0.29917
-0.300543
-0.301824
-0.303547
-0.305755
-0.308554
-0.312077
-0.316459
-0.321813
-0.328175
-0.335452
-0.343285
-0.35103
-0.357472
-0.36109
-0.359431
-0.350262
-0.330285
-0.299488
-0.255162
-0.20502
-0.150018
-0.0982656
-0.0557707
-0.0192337
-0.00131812
0.0158666
0.0111999
0.0132711
-0.300499
-0.299036
-0.300507
-0.3017
-0.303351
-0.305491
-0.308222
-0.311681
-0.316012
-0.321341
-0.327713
-0.335057
-0.343022
-0.350987
-0.357735
-0.361765
-0.360569
-0.351988
-0.332483
-0.302082
-0.258161
-0.207995
-0.152946
-0.100891
-0.0581539
-0.0212637
-0.00298945
0.0144729
0.0103168
0.0126567
-0.300635
-0.299109
-0.30032
-0.301524
-0.303092
-0.305154
-0.307806
-0.311188
-0.315452
-0.320735
-0.327095
-0.334478
-0.342549
-0.350708
-0.357737
-0.362162
-0.361431
-0.353403
-0.334493
-0.304555
-0.261051
-0.210961
-0.155955
-0.103643
-0.0606857
-0.0234584
-0.00479477
0.0129504
0.00936945
0.0119955
-0.300835
-0.299131
-0.300101
-0.301295
-0.302771
-0.304746
-0.30731
-0.310602
-0.314783
-0.32
-0.326323
-0.333718
-0.34186
-0.350179
-0.357459
-0.362256
-0.361979
-0.354522
-0.336207
-0.306807
-0.263789
-0.213866
-0.158997
-0.106485
-0.063338
-0.0257977
-0.00671823
0.0113111
0.00836632
0.0112936
-0.301096
-0.299118
-0.299849
-0.301016
-0.302391
-0.304272
-0.306739
-0.309931
-0.314015
-0.319147
-0.325408
-0.332782
-0.340962
-0.349403
-0.356896
-0.362029
-0.362186
-0.355295
-0.337591
-0.308779
-0.266336
-0.216666
-0.162031
-0.109387
-0.0660838
-0.0282605
-0.00874327
0.0095686
0.00731589
0.0105573
-0.301382
-0.299116
-0.299563
-0.300687
-0.301954
-0.303733
-0.306099
-0.309184
-0.313157
-0.318187
-0.324361
-0.331685
-0.339864
-0.348386
-0.356049
-0.361484
-0.362041
-0.355697
-0.338617
-0.310436
-0.268652
-0.219324
-0.16502
-0.112316
-0.0688964
-0.0308251
-0.0108527
0.00773749
0.00622671
0.0097928
-0.301673
-0.299138
-0.299253
-0.300309
-0.301457
-0.30313
-0.305393
-0.308365
-0.31222
-0.317132
-0.323197
-0.33044
-0.33858
-0.34714
-0.354927
-0.360637
-0.361542
-0.355716
-0.339267
-0.31175
-0.270704
-0.221806
-0.167927
-0.115244
-0.0717472
-0.0334674
-0.0130278
0.00583333
0.00510749
0.00900647
-0.301937
-0.299158
-0.298916
-0.299871
-0.30089
-0.302457
-0.304619
-0.307478
-0.311208
-0.315991
-0.321927
-0.329061
-0.337125
-0.345678
-0.353538
-0.359407
-0.36069
-0.355349
-0.339528
-0.3127
-0.272462
-0.224078
-0.170712
-0.118133
-0.0746044
-0.0361612
-0.0152492
0.00387246
0.00396679
0.00820453
-0.302077
-0.299079
-0.298532
-0.299363
-0.300242
-0.301707
-0.303774
-0.306525
-0.31013
-0.314774
-0.320565
-0.327564
-0.335517
-0.34402
-0.351902
-0.35792
-0.359493
-0.3546
-0.339401
-0.313279
-0.27391
-0.226126
-0.173362
-0.120971
-0.077459
-0.038894
-0.0175072
0.0018677
0.00281103
0.00739283
-0.301981
-0.298807
-0.298091
-0.298773
-0.299497
-0.300865
-0.302845
-0.305492
-0.308971
-0.313472
-0.319103
-0.325944
-0.333755
-0.342169
-0.350043
-0.356139
-0.357933
-0.353471
-0.338907
-0.313534
-0.275121
-0.228038
-0.175969
-0.123833
-0.0803669
-0.0416919
-0.0198149
-0.000177876
0.00164235
0.00657598
-0.302283
-0.298268
-0.297504
-0.297989
-0.298548
-0.299835
-0.301743
-0.304298
-0.307654
-0.312005
-0.31746
-0.324117
-0.331751
-0.340038
-0.347935
-0.353993
-0.355977
-0.351944
-0.338063
-0.313517
-0.276162
-0.229875
-0.178567
-0.126732
-0.0833181
-0.044542
-0.0221541
-0.00225312
0.000469589
0.00575749
-0.301091
-0.296152
-0.296368
-0.296799
-0.29728
-0.298555
-0.300455
-0.302974
-0.306252
-0.310488
-0.315787
-0.322258
-0.329686
-0.33776
-0.345397
-0.351751
-0.353817
-0.350031
-0.336672
-0.31278
-0.276355
-0.230829
-0.180304
-0.128956
-0.0857343
-0.0470947
-0.0242974
-0.00426962
-0.000660079
0.0049444
-0.287563
-0.290877
-0.2947
-0.295465
-0.295994
-0.297346
-0.299321
-0.301877
-0.305156
-0.309358
-0.314585
-0.320947
-0.328229
-0.336131
-0.343635
-0.349585
-0.351465
-0.34752
-0.334217
-0.310499
-0.274729
-0.229959
-0.180456
-0.130115
-0.0874977
-0.0495268
-0.0264799
-0.00657385
-0.00194043
0.00397583
-0.284871
-0.287713
-0.292083
-0.293074
-0.293664
-0.295159
-0.297327
-0.300028
-0.303379
-0.307584
-0.312729
-0.3189
-0.325867
-0.333322
-0.340239
-0.345517
-0.346811
-0.342339
-0.32893
-0.305454
-0.270727
-0.227277
-0.179475
-0.130767
-0.0892168
-0.0522569
-0.0290352
-0.0093067
-0.00347491
0.00285028
-0.282114
-0.284261
-0.288023
-0.2894
-0.290323
-0.292075
-0.294505
-0.29742
-0.300898
-0.305137
-0.310202
-0.316154
-0.322742
-0.329645
-0.335847
-0.340336
-0.340905
-0.335811
-0.322278
-0.299136
-0.265603
-0.22373
-0.177854
-0.131024
-0.0907084
-0.0548879
-0.0315657
-0.0120426
-0.00502855
0.00174419
-0.277876
-0.279771
-0.282527
-0.284251
-0.285734
-0.287863
-0.290595
-0.293757
-0.29739
-0.301674
-0.306654
-0.312365
-0.318542
-0.324848
-0.330307
-0.333964
-0.333792
-0.328107
-0.314517
-0.291843
-0.259636
-0.219552
-0.175756
-0.130995
-0.0920287
-0.0574363
-0.0340669
-0.0147595
-0.00658419
0.000672772
-0.271349
-0.273876
-0.275885
-0.277777
-0.279857
-0.282445
-0.2855
-0.288915
-0.292712
-0.297039
-0.301924
-0.307372
-0.31311
-0.31879
-0.323493
-0.326304
-0.325411
-0.319204
-0.305648
-0.2836
-0.252855
-0.214764
-0.173191
-0.130657
-0.0931511
-0.0598558
-0.0365067
-0.0174183
-0.00812704
-0.000349208
-0.262674
-0.266495
-0.268288
-0.270258
-0.272841
-0.275909
-0.279297
-0.282945
-0.286885
-0.291234
-0.295999
-0.301156
-0.306429
-0.311467
-0.315419
-0.317406
-0.315836
-0.309203
-0.295793
-0.274533
-0.245379
-0.209448
-0.170208
-0.130012
-0.0940587
-0.0621042
-0.0388525
-0.01998
-0.00964182
-0.00130842
-0.252691
-0.257833
-0.259888
-0.261987
-0.264952
-0.268455
-0.272164
-0.276016
-0.28006
-0.284395
-0.289006
-0.293842
-0.298631
-0.303024
-0.306255
-0.307467
-0.305289
-0.298345
-0.285196
-0.264868
-0.237396
-0.203729
-0.166884
-0.129076
-0.0947431
-0.0641474
-0.0410752
-0.0224113
-0.0111133
-0.00219483
-0.242013
-0.248221
-0.250849
-0.253203
-0.256461
-0.260317
-0.264315
-0.268342
-0.272451
-0.276732
-0.28116
-0.285656
-0.289955
-0.293715
-0.296272
-0.296784
-0.294082
-0.286943
-0.274154
-0.25486
-0.229115
-0.197742
-0.163297
-0.127873
-0.0952001
-0.0659595
-0.0431488
-0.0246845
-0.0125269
-0.00300233
-0.231041
-0.238029
-0.241346
-0.24407
-0.24758
-0.251704
-0.255944
-0.26012
-0.264266
-0.268467
-0.272692
-0.276846
-0.280672
-0.283836
-0.285772
-0.28567
-0.282537
-0.27531
-0.262957
-0.24475
-0.220725
-0.191612
-0.159523
-0.126429
-0.0954285
-0.0675223
-0.0450513
-0.0267787
-0.0138687
-0.0037286
-0.22008
-0.227567
-0.231545
-0.234702
-0.238454
-0.242779
-0.247209
-0.251508
-0.255676
-0.259784
-0.263805
-0.267632
-0.271019
-0.273647
-0.275017
-0.274396
-0.270928
-0.263704
-0.251841
-0.234733
-0.21238
-0.185439
-0.155623
-0.12477
-0.0954299
-0.0688251
-0.0467648
-0.0286796
-0.0151263
-0.00437451
-0.209294
-0.21705
-0.221592
-0.225188
-0.229178
-0.233659
-0.23823
-0.242627
-0.246807
-0.250823
-0.254647
-0.258174
-0.261169
-0.263331
-0.264205
-0.263161
-0.259451
-0.252306
-0.240966
-0.224938
-0.204184
-0.179296
-0.151642
-0.122919
-0.0952073
-0.0698637
-0.0482757
-0.0303784
-0.0162889
-0.0049431
-0.198766
-0.206626
-0.211612
-0.215607
-0.219824
-0.224429
-0.229099
-0.233565
-0.23775
-0.24168
-0.245326
-0.248586
-0.25124
-0.253006
-0.253465
-0.25209
-0.248225
-0.241224
-0.230427
-0.215443
-0.196198
-0.173229
-0.147612
-0.120895
-0.0947662
-0.070639
-0.0495747
-0.0318714
-0.0173477
-0.00543876
-0.18856
-0.196401
-0.201708
-0.206036
-0.210453
-0.215157
-0.21989
-0.224399
-0.228579
-0.232431
-0.235919
-0.238947
-0.24131
-0.242748
-0.24288
-0.241263
-0.237319
-0.230513
-0.22027
-0.206283
-0.188454
-0.167267
-0.143555
-0.118717
-0.0941138
-0.0711565
-0.0506563
-0.0331586
-0.0182957
-0.00586654
-0.178727
-0.18645
-0.191966
-0.196552
-0.20113
-0.205904
-0.210669
-0.215194
-0.219359
-0.223139
-0.226489
-0.229321
-0.231442
-0.232618
-0.232503
-0.23072
-0.226766
-0.220196
-0.210511
-0.197474
-0.180967
-0.161426
-0.139488
-0.116403
-0.0932601
-0.071425
-0.0515188
-0.034243
-0.0191284
-0.0062316
-0.169302
-0.176832
-0.182459
-0.187226
-0.19192
-0.196733
-0.201502
-0.206018
-0.210153
-0.213864
-0.217096
-0.219764
-0.22169
-0.222663
-0.222371
-0.22049
-0.216584
-0.210284
-0.201156
-0.18902
-0.173745
-0.155721
-0.135428
-0.113972
-0.0922176
-0.0714563
-0.0521643
-0.0351299
-0.0198434
-0.0065389
-0.160317
-0.167596
-0.17325
-0.178126
-0.182886
-0.187706
-0.192452
-0.196936
-0.201027
-0.20467
-0.207798
-0.210332
-0.212103
-0.212926
-0.212515
-0.210596
-0.206786
-0.200783
-0.192207
-0.180923
-0.166793
-0.150164
-0.13139
-0.111442
-0.0910017
-0.0712653
-0.0525985
-0.035827
-0.0204407
-0.00679303
-0.151796
-0.15878
-0.164391
-0.169312
-0.174092
-0.178887
-0.183582
-0.188012
-0.192046
-0.195619
-0.198657
-0.20108
-0.202732
-0.203448
-0.20297
-0.201062
-0.197388
-0.1917
-0.183666
-0.173185
-0.160117
-0.144768
-0.127392
-0.108836
-0.0896307
-0.0708694
-0.052831
-0.0363441
-0.0209226
-0.00699827
-0.143758
-0.150416
-0.155929
-0.160838
-0.165596
-0.170335
-0.174956
-0.179313
-0.183277
-0.186777
-0.189732
-0.192065
-0.193629
-0.194275
-0.193771
-0.191913
-0.188405
-0.183045
-0.175538
-0.16581
-0.153724
-0.139546
-0.123451
-0.106176
-0.088126
-0.0702888
-0.0528747
-0.0366926
-0.0212935
-0.00715869
-0.136215
-0.142531
-0.147901
-0.152753
-0.157453
-0.162108
-0.166635
-0.170901
-0.174783
-0.178207
-0.181086
-0.183345
-0.184844
-0.185451
-0.184953
-0.183177
-0.179857
-0.174828
-0.167829
-0.158807
-0.147623
-0.134514
-0.11959
-0.103487
-0.0865118
-0.0695465
-0.0527463
-0.0368865
-0.0215601
-0.00727825
-0.129181
-0.135146
-0.140342
-0.145101
-0.149712
-0.154262
-0.158677
-0.162837
-0.166628
-0.169972
-0.172781
-0.174977
-0.176431
-0.177022
-0.176556
-0.174883
-0.171765
-0.167066
-0.160552
-0.152185
-0.14183
-0.129691
-0.115831
-0.100798
-0.0848153
-0.0686681
-0.0524655
-0.0369411
-0.0217306
-0.00736097
-0.122663
-0.128279
-0.133281
-0.137919
-0.14242
-0.146848
-0.151138
-0.155183
-0.158874
-0.162135
-0.164875
-0.167019
-0.168443
-0.169035
-0.168619
-0.167063
-0.164154
-0.159777
-0.153721
-0.14596
-0.136359
-0.125098
-0.1122
-0.098138
-0.0830663
-0.0676819
-0.0520551
-0.0368743
-0.0218153
-0.00741104
-0.116671
-0.121948
-0.126744
-0.131245
-0.135619
-0.139915
-0.144071
-0.147993
-0.15158
-0.154756
-0.157431
-0.159529
-0.160932
-0.161538
-0.161184
-0.159753
-0.157053
-0.152984
-0.147356
-0.140149
-0.131232
-0.120761
-0.108727
-0.0955395
-0.0812977
-0.0666188
-0.0515405
-0.0367055
-0.0218257
-0.00743285
-0.111216
-0.11617
-0.120758
-0.125112
-0.129352
-0.13351
-0.137528
-0.141325
-0.144806
-0.147896
-0.150507
-0.152565
-0.153955
-0.154582
-0.154296
-0.152993
-0.150494
-0.146716
-0.141482
-0.134778
-0.126474
-0.116707
-0.105443
-0.0930378
-0.0795452
-0.0655121
-0.0509497
-0.0364559
-0.0217747
-0.00743109
-0.106311
-0.110965
-0.115351
-0.119555
-0.123659
-0.127679
-0.131562
-0.135234
-0.13861
-0.141616
-0.144166
-0.146187
-0.147568
-0.148221
-0.148005
-0.146825
-0.144517
-0.141007
-0.136131
-0.129877
-0.122117
-0.11297
-0.102386
-0.0906717
-0.077847
-0.0643976
-0.0503128
-0.0361484
-0.0216762
-0.00741068
-0.101976
-0.106356
-0.110551
-0.114612
-0.118584
-0.122471
-0.126224
-0.129778
-0.133052
-0.135978
-0.13847
-0.140458
-0.141833
-0.142513
-0.142364
-0.141299
-0.139166
-0.135898
-0.13134
-0.125481
-0.118197
-0.10959
-0.0995959
-0.0884829
-0.0762443
-0.0633131
-0.0496618
-0.0358072
-0.0215451
-0.0073768
-0.0982339
-0.102373
-0.106396
-0.110323
-0.114173
-0.117939
-0.121572
-0.125016
-0.128197
-0.131049
-0.133489
-0.135446
-0.136817
-0.137522
-0.137434
-0.136473
-0.134496