/*--------------------------------*- C++ -*----------------------------------*\
  =========                 |
  \\      /  F ield         | OpenFOAM: The Open Source CFD Toolbox
   \\    /   O peration     | Website:  https://openfoam.org
    \\  /    A nd           | Version:  7
     \\/     M anipulation  |
\*---------------------------------------------------------------------------*/
FoamFile
{
    version     2.0;
    format      ascii;
    class       surfaceScalarField;
    location    "15";
    object      phi;
}
// * * * * * * * * * * * * * * * * * * * * * * * * * * * * * * * * * * * * * //

dimensions      [0 3 -1 0 0 0 0];

internalField   nonuniform List<scalar> 
16735
(
-7.94659e-07
7.94637e-07
2.11815e-11
-2.82298e-06
2.02829e-06
3.82975e-11
-5.88579e-06
3.06277e-06
3.66867e-11
-9.79685e-06
3.91104e-06
2.0408e-11
-1.43955e-05
4.5987e-06
-6.9184e-12
-1.9562e-05
5.16652e-06
-4.30027e-11
-2.5235e-05
5.67304e-06
-8.75968e-11
-3.1436e-05
6.20113e-06
-1.42403e-10
-3.82905e-05
6.85472e-06
-2.10557e-10
7.77575e-06
-2.96712e-10
-4.60659e-05
-7.82746e-07
1.57738e-06
-2.78247e-06
4.02801e-06
-5.80161e-06
6.08191e-06
-9.65318e-06
7.76261e-06
-1.41732e-05
9.11868e-06
-1.9235e-05
1.02284e-05
-2.4767e-05
1.1205e-05
-3.07763e-05
1.22105e-05
-3.73723e-05
1.34508e-05
1.52045e-05
-4.48011e-05
-7.59516e-07
2.3369e-06
-2.70323e-06
5.97173e-06
-5.63663e-06
9.01531e-06
-9.37119e-06
1.14972e-05
-1.37363e-05
1.34838e-05
-1.85924e-05
1.50845e-05
-2.38469e-05
1.64595e-05
-2.94791e-05
1.78426e-05
-3.55665e-05
1.95382e-05
2.19502e-05
-4.23121e-05
-7.26113e-07
3.06301e-06
-2.58869e-06
7.8343e-06
-5.39728e-06
1.18239e-05
-8.96106e-06
1.50609e-05
-1.30999e-05
1.76226e-05
-1.76555e-05
1.96401e-05
-2.2505e-05
2.1309e-05
-2.7586e-05
2.29237e-05
-3.29301e-05
2.48822e-05
2.76943e-05
-3.86742e-05
-6.84141e-07
3.74715e-06
-2.44364e-06
9.59381e-06
-5.09256e-06
1.44728e-05
-8.43694e-06
1.84053e-05
-1.22846e-05
2.14702e-05
-1.64538e-05
2.38093e-05
-2.07827e-05
2.56378e-05
-2.51543e-05
2.72953e-05
-2.95407e-05
2.92686e-05
3.21392e-05
-3.39856e-05
-6.35531e-07
4.38268e-06
-2.27385e-06
1.12321e-05
-4.73323e-06
1.69322e-05
-7.8156e-06
2.14877e-05
-1.13148e-05
2.49694e-05
-1.50216e-05
2.75162e-05
-1.87279e-05
2.93441e-05
-2.22492e-05
3.08166e-05
-2.54861e-05
3.25056e-05
3.50066e-05
-2.83535e-05
-5.824e-07
4.96508e-06
-2.08561e-06
1.27353e-05
-4.33089e-06
1.91775e-05
-7.11483e-06
2.42716e-05
-1.02157e-05
2.80703e-05
-1.33939e-05
3.06944e-05
-1.6389e-05
3.23391e-05
-1.89359e-05
3.33635e-05
-2.08519e-05
3.44216e-05
3.6032e-05
-2.18773e-05
-5.26891e-07
5.49197e-06
-1.8852e-06
1.40936e-05
-3.89693e-06
2.11892e-05
-6.35158e-06
2.67263e-05
-9.01033e-06
3.0729e-05
-1.16014e-05
3.32855e-05
-1.38071e-05
3.45449e-05
-1.52681e-05
3.48245e-05
-1.57048e-05
3.48582e-05
3.49635e-05
-1.46363e-05
-4.71017e-07
5.96299e-06
-1.67844e-06
1.53011e-05
-3.44149e-06
2.29523e-05
-5.54008e-06
2.88249e-05
-7.71651e-06
3.29055e-05
-9.66508e-06
3.5234e-05
-1.10077e-05
3.58875e-05
-1.1274e-05
3.50908e-05
-1.00646e-05
3.36489e-05
3.16107e-05
-6.71178e-06
-4.16535e-07
6.37953e-06
-1.4702e-06
1.63547e-05
-2.97254e-06
2.44546e-05
-4.69008e-06
3.05424e-05
-6.34351e-06
3.45589e-05
-7.59097e-06
3.64815e-05
-7.99226e-06
3.62888e-05
-6.94825e-06
3.40467e-05
-3.81488e-06
3.05155e-05
2.59554e-05
1.84041e-06
-3.64838e-07
6.74436e-06
-1.26407e-06
1.7254e-05
-2.49504e-06
2.56856e-05
-3.80541e-06
3.18528e-05
-4.88942e-06
3.56429e-05
-5.36479e-06
3.69569e-05
-4.72793e-06
3.56519e-05
-2.27946e-06
3.15983e-05
3.03646e-06
2.51996e-05
1.7145e-05
1.18468e-05
-3.16884e-07
7.06125e-06
-1.06207e-06
1.79992e-05
-2.01045e-06
2.66339e-05
-2.88293e-06
3.27253e-05
-3.3394e-06
3.60994e-05
-2.94864e-06
3.65661e-05
-1.12743e-06
3.38307e-05
2.92594e-06
2.75449e-05
1.04891e-05
1.76364e-05
4.6998e-06
2.29343e-05
-2.73151e-07
7.3344e-06
-8.64501e-07
1.85905e-05
-1.51636e-06
2.72858e-05
-1.91226e-06
3.31212e-05
-1.66528e-06
3.58524e-05
-2.82772e-07
3.51836e-05
2.90909e-06
3.06389e-05
8.8821e-06
2.15719e-05
1.91567e-05
7.36185e-06
-1.17665e-05
3.5623e-05
-2.33596e-07
7.56799e-06
-6.69789e-07
1.90267e-05
-1.00639e-06
2.76224e-05
-8.75711e-07
3.29905e-05
1.73405e-07
3.48033e-05
2.71955e-06
3.26375e-05
7.54598e-06
2.58124e-05
1.57815e-05
1.33364e-05
2.93749e-05
-6.23157e-06
-3.27227e-05
5.03311e-05
-1.97611e-07
7.76561e-06
-4.7437e-07
1.93035e-05
-4.69945e-07
2.7618e-05
2.51612e-07
3.22689e-05
2.22858e-06
3.28263e-05
6.15513e-06
2.87109e-05
1.29626e-05
1.9005e-05
2.39362e-05
2.3627e-06
4.15881e-05
-2.38834e-05
-5.85541e-05
6.74196e-05
-1.6395e-07
7.92956e-06
-2.72447e-07
1.9412e-05
1.08607e-07
2.72369e-05
1.50067e-06
3.08769e-05
4.56036e-06
2.97666e-05
1.01345e-05
2.31368e-05
1.9347e-05
9.79243e-06
3.36466e-05
-1.19369e-05
5.62005e-05
-4.64373e-05
-8.94036e-05
8.705e-05
-1.30686e-07
8.06024e-06
-5.38852e-08
1.93352e-05
7.46199e-07
2.64368e-05
2.91052e-06
2.87125e-05
7.23842e-06
2.54387e-05
1.47729e-05
1.56023e-05
2.68799e-05
-2.31455e-06
4.51863e-05
-3.02433e-05
7.34303e-05
-7.46813e-05
-0.000125009
0.000109036
-9.56248e-08
8.15587e-06
1.85016e-07
1.90545e-05
1.46969e-06
2.51522e-05
4.52785e-06
2.56544e-05
1.03407e-05
1.96259e-05
2.01884e-05
5.75449e-06
3.572e-05
-1.78462e-05
5.8784e-05
-5.33072e-05
9.31791e-05
-0.000109076
-0.000164616
0.000132785
-5.5745e-08
8.21161e-06
4.64026e-07
1.85347e-05
2.30887e-06
2.33073e-05
6.40699e-06
2.15563e-05
1.39525e-05
1.20803e-05
2.64966e-05
-6.78957e-06
4.59845e-05
-3.7334e-05
7.45839e-05
-8.19066e-05
0.000115005
-0.000149497
-0.000207244
0.000157633
1.10746e-09
8.2105e-06
7.98754e-07
1.77371e-05
3.29859e-06
2.08075e-05
8.60869e-06
1.62462e-05
1.81627e-05
2.52632e-06
3.37982e-05
-2.24251e-05
5.77128e-05
-6.12486e-05
9.24167e-05
-0.000116611
0.000138412
-0.000195493
-0.000252793
0.000183961
6.58282e-08
8.14468e-06
1.20522e-06
1.65977e-05
4.4767e-06
1.7536e-05
1.11964e-05
9.52642e-06
2.30556e-05
-9.33279e-06
4.21621e-05
-4.15316e-05
7.0832e-05
-8.99185e-05
0.000111496
-0.000157275
0.000162219
-0.000246215
-0.000325996
0.000235422
1.54162e-07
7.99051e-06
1.70275e-06
1.50491e-05
5.8814e-06
1.33574e-05
1.42306e-05
1.1772e-06
2.86993e-05
-2.38015e-05
5.16039e-05
-6.44362e-05
8.51698e-05
-0.000123484
0.000131015
-0.00020312
0.000186071
-0.000301272
-0.000396633
0.000256708
2.68965e-07
7.72155e-06
2.30897e-06
1.30091e-05
7.5475e-06
8.11882e-06
1.776e-05
-9.03531e-06
3.51292e-05
-4.11707e-05
6.20537e-05
-9.13608e-05
0.000100378
-0.000161808
0.000150264
-0.000253006
0.000207896
-0.000358903
-0.000462986
0.000274249
4.14864e-07
7.30668e-06
3.03904e-06
1.03849e-05
9.50216e-06
1.6557e-06
2.18121e-05
-2.13453e-05
4.23264e-05
-6.16849e-05
7.33235e-05
-0.000122358
0.000115882
-0.000204367
0.000168423
-0.000305546
0.000226091
-0.000416571
-0.000523973
0.000287078
5.95773e-07
6.71091e-06
3.90434e-06
7.07637e-06
1.1761e-05
-6.20095e-06
2.63844e-05
-3.59687e-05
5.02007e-05
-8.55012e-05
8.50879e-05
-0.000157245
0.000130947
-0.000250226
0.00018443
-0.00035903
0.000239928
-0.00047207
-0.000578592
0.000294547
8.14543e-07
5.89637e-06
4.91134e-06
2.97957e-06
1.43251e-05
-1.56147e-05
3.1437e-05
-5.30807e-05
5.85788e-05
-0.000112643
9.68894e-05
-0.000195556
0.000144776
-0.000298112
0.000197414
-0.000411668
0.000249059
-0.000523714
-0.000626429
0.000296897
1.07287e-06
4.8235e-06
6.06095e-06
-2.00851e-06
1.71787e-05
-2.67324e-05
3.68885e-05
-7.27905e-05
6.72042e-05
-0.000142959
0.000108181
-0.000236533
0.000156639
-0.00034657
0.000206842
-0.000461871
0.00025358
-0.000570453
-0.000667655
0.000294806
1.37128e-06
3.45222e-06
7.34811e-06
-7.98535e-06
2.02882e-05
-3.96725e-05
4.2614e-05
-9.51164e-05
7.57509e-05
-0.000176096
0.0001184
-0.000279182
0.000165985
-0.000394155
0.000212547
-0.000508434
0.000253914
-0.00061182
-0.000702785
0.000289044
1.70907e-06
1.74315e-06
8.76139e-06
-1.50377e-05
2.36004e-05
-5.45115e-05
4.84471e-05
-0.000119963
8.38508e-05
-0.000211499
0.000127047
-0.000322378
0.000172499
-0.000439607
0.000214667
-0.000550602
0.00025065
-0.000647802
-0.000732525
0.000280389
2.08427e-06
-3.41123e-07
1.02827e-05
-2.3236e-05
2.70433e-05
-7.12721e-05
5.41871e-05
-0.000147107
9.1135e-05
-0.000248447
0.000133752
-0.000364995
0.000176109
-0.000481964
0.00021354
-0.000588033
0.000244428
-0.00067869
-0.000757621
0.000269524
2.49348e-06
-2.8346e-06
1.18868e-05
-3.26294e-05
3.05263e-05
-8.99116e-05
5.96126e-05
-0.000176193
9.72776e-05
-0.000286112
0.000138309
-0.000406026
0.000176935
-0.00052059
0.000209611
-0.000620709
0.000235861
-0.00070494
-0.000778778
0.000257018
2.9318e-06
-5.7664e-06
1.35417e-05
-4.32393e-05
3.39438e-05
-0.000110314
6.45013e-05
-0.000206751
0.000102031
-0.000323642
0.000140667
-0.000444662
0.000175232
-0.000555156
0.000203356
-0.000648833
0.00022549
-0.000727074
-0.000796609
0.000243321
3.39262e-06
-9.15902e-06
1.52088e-05
-5.50555e-05
3.71803e-05
-0.000132285
6.86516e-05
-0.000238222
0.000105247
-0.000360238
0.000140905
-0.00048032
0.000171324
-0.000585574
0.000195232
-0.000672741
0.00021377
-0.000745611
-0.000811621
0.000228781
3.86765e-06
-1.30267e-05
1.68439e-05
-6.80318e-05
4.01187e-05
-0.00015556
7.19021e-05
-0.000270005
0.000106875
-0.000395211
0.000139195
-0.00051264
0.000165559
-0.000611938
0.000185648
-0.00069283
0.000201064
-0.000761027
-0.000824212
0.000213656
4.34704e-06
-1.73737e-05
1.83992e-05
-8.2084e-05
4.26486e-05
-0.000179809
7.4144e-05
-0.000301501
0.00010695
-0.000428016
0.000135758
-0.000541448
0.000158277
-0.000634457
0.000174955
-0.000709507
0.00018766
-0.000773733
-0.000834688
0.000198136
4.81965e-06
-2.21934e-05
1.98257e-05
-9.709e-05
4.4676e-05
-0.00020466
7.53255e-05
-0.00033215
0.00010557
-0.000458261
0.000130843
-0.000566721
0.00014979
-0.000653404
0.000163443
-0.000723161
0.000173777
-0.000784067
-0.000843272
0.000182362
5.27344e-06
-2.74668e-05
2.1076e-05
-0.000112893
4.61297e-05
-0.000229713
7.5447e-05
-0.000361468
0.000102877
-0.00048569
0.000124696
-0.00058854
0.000140373
-0.000669081
0.000151349
-0.000734137
0.000159582
-0.0007923
-0.000850126
0.000166436
5.696e-06
-3.31628e-05
2.21073e-05
-0.000129304
4.69654e-05
-0.000254571
7.45526e-05
-0.000389055
9.90345e-05
-0.000510172
0.000117552
-0.000607057
0.000130259
-0.000681789
0.000138856
-0.000742733
0.000145198
-0.000798642
-0.000855363
0.000150434
6.0751e-06
-3.92379e-05
2.28839e-05
-0.000146113
4.71664e-05
-0.000278854
7.27185e-05
-0.000414607
9.42139e-05
-0.000531668
0.000109622
-0.000622465
0.000119644
-0.000691812
0.00012611
-0.000749199
0.00013072
-0.000803252
-0.00085906
0.000134418
6.39932e-06
-4.56372e-05
2.33795e-05
-0.000163093
4.67414e-05
-0.000302216
7.00411e-05
-0.000437907
8.85829e-05
-0.000550209
0.000101093
-0.000634975
0.000108686
-0.000699405
0.000113223
-0.000753736
0.000116219
-0.000806248
-0.000861274
0.000118433
6.65851e-06
-5.22957e-05
2.35781e-05
-0.000180012
4.57198e-05
-0.000324357
6.66278e-05
-0.000458815
8.22989e-05
-0.00056588
9.21247e-05
-0.000644801
9.75139e-05
-0.000704794
0.000100283
-0.000756505
0.000101749
-0.000807714
-0.000862042
0.000102518
6.84427e-06
-5.914e-05
2.3474e-05
-0.000196642
4.41471e-05
-0.00034503
6.2589e-05
-0.000477257
7.55048e-05
-0.000578796
8.28523e-05
-0.000652149
8.62293e-05
-0.000708171
8.73551e-05
-0.000757631
8.73528e-05
-0.000807712
-0.000861388
8.66984e-05
6.95022e-06
-6.60902e-05
2.30713e-05
-0.000212763
4.20789e-05
-0.000364038
5.80327e-05
-0.00049321
6.83276e-05
-0.000589091
7.33876e-05
-0.000657209
7.49133e-05
-0.000709697
7.44916e-05
-0.000757209
7.30638e-05
-0.000806284
-0.000859324
7.09995e-05
6.97219e-06
-7.30624e-05
2.23826e-05
-0.000228174
3.95768e-05
-0.000381232
5.30607e-05
-0.000506694
6.08775e-05
-0.000596908
6.38231e-05
-0.000660154
6.36296e-05
-0.000709503
6.17316e-05
-0.000755311
5.89074e-05
-0.00080346
-0.000855856
5.54394e-05
6.90822e-06
-7.99707e-05
2.14271e-05
-0.000242693
3.67045e-05
-0.00039651
4.77661e-05
-0.000517756
5.32492e-05
-0.000602391
5.42345e-05
-0.00066114
5.24303e-05
-0.000707699
4.91069e-05
-0.000751987
4.49023e-05
-0.000799255
-0.000850982
4.00285e-05
6.75848e-06
-8.67291e-05
2.02287e-05
-0.000256163
3.35245e-05
-0.000409805
4.22329e-05
-0.000526464
4.55228e-05
-0.000605681
4.46838e-05
-0.000660301
4.13596e-05
-0.000704375
3.66521e-05
-0.00074728
3.10668e-05
-0.00079367
-0.000844675
2.47604e-05
6.52513e-06
-9.32543e-05
1.88144e-05
-0.000268452
3.00964e-05
-0.000421087
3.65348e-05
-0.000532903
3.7765e-05
-0.000606911
3.52201e-05
-0.000657756
3.04529e-05
-0.000699608
2.4411e-05
-0.000741238
1.74365e-05
-0.000786696
-0.000836805
9.56646e-06
6.21233e-06
-9.94666e-05
1.72144e-05
-0.000279454
2.64762e-05
-0.000430349
3.07362e-05
-0.000537163
3.00317e-05
-0.000606207
2.58826e-05
-0.000653607
1.9732e-05
-0.000693457
1.24091e-05
-0.000733915
4.15624e-06
-0.000778443
-0.000827312
-5.33689e-06
5.82587e-06
-0.000105292
1.54598e-05
-0.000289088
2.27152e-05
-0.000437605
2.48929e-05
-0.00053934
2.23691e-05
-0.000603683
1.6705e-05
-0.000647943
9.21638e-06
-0.000685969
4.87976e-07
-0.000725187
-8.99807e-06
-0.000768957
-0.000816779
-1.95315e-05
5.37275e-06
-0.000110665
1.35794e-05
-0.000297295
1.88596e-05
-0.000442885
1.90522e-05
-0.000539533
1.48146e-05
-0.000599445
7.71181e-06
-0.00064084
-1.09795e-06
-0.000677159
-1.09084e-05
-0.000715376
-2.18559e-05
-0.000758009
-0.000805018
-3.36168e-05
4.86092e-06
-0.000115526
1.16013e-05
-0.000304035
1.49514e-05
-0.000446235
1.3253e-05
-0.000537834
7.39846e-06
-0.000593591
-1.09183e-06
-0.000632349
-1.10617e-05
-0.000667189
-2.21658e-05
-0.000704272
-3.43786e-05
-0.000745796
-0.000791943
-4.7454e-05
4.29916e-06
-0.000119825
9.5528e-06
-0.000309289
1.10274e-05
-0.000447709
7.52844e-06
-0.000534336
1.36827e-07
-0.000586199
-9.61623e-06
-0.000622596
-2.08173e-05
-0.000655988
-3.31423e-05
-0.000691947
-4.65986e-05
-0.00073234
-0.000777556
-6.09848e-05
3.69678e-06
-0.000123522
7.46108e-06
-0.000313053
7.11763e-06
-0.000447366
1.93041e-06
-0.000529148
-6.9099e-06
-0.000577359
-1.7931e-05
-0.000611575
-3.03075e-05
-0.000643612
-4.3818e-05
-0.000678437
-5.85089e-05
-0.000717649
-0.000761877
-7.41881e-05
3.06278e-06
-0.000126585
5.35331e-06
-0.000315344
3.26211e-06
-0.000445275
-3.57305e-06
-0.000522313
-1.37795e-05
-0.000567152
-2.60019e-05
-0.000599353
-3.95179e-05
-0.000630095
-5.41837e-05
-0.000663771
-7.00933e-05
-0.00070174
-0.000744934
-8.70366e-05
2.40762e-06
-0.000128992
3.24889e-06
-0.000316185
-4.1085e-07
-0.000441615
-8.90903e-06
-0.000513815
-2.04441e-05
-0.000555617
-3.38195e-05
-0.000585977
-4.84395e-05
-0.000615476
-6.42308e-05
-0.000647979
-8.13346e-05
-0.000684636
-0.000726767
-9.95017e-05
1.74163e-06
-0.000130734
1.19124e-06
-0.000315635
-4.32616e-06
-0.000436098
-1.41274e-05
-0.000504014
-2.68889e-05
-0.000542856
-4.1374e-05
-0.000571492
-5.70641e-05
-0.000599785
-7.39503e-05
-0.000631093
-9.22187e-05
-0.000666367
-0.000707398
-0.000111587
1.04889e-06
-0.000131783
-8.82641e-07
-0.000313703
-7.98173e-06
-0.000428999
-1.91777e-05
-0.000492818
-3.31071e-05
-0.000528926
-4.86573e-05
-0.000555942
-6.53852e-05
-0.000583057
-8.33342e-05
-0.000613144
-0.000102741
-0.000646961
-0.000686807
-0.000123332
3.06874e-07
-0.00013209
-3.08647e-06
-0.00031031
-1.15399e-05
-0.000420545
-2.40425e-05
-0.000480315
-3.90909e-05
-0.000513878
-5.5665e-05
-0.000539368
-7.34008e-05
-0.000565322
-9.23793e-05
-0.000594166
-0.000112863
-0.000626477
-0.000665001
-0.00013467
-4.08919e-07
-0.000131681
-5.15431e-06
-0.000305564
-1.49837e-05
-0.000410716
-2.8716e-05
-0.000466583
-4.48312e-05
-0.000497763
-6.23916e-05
-0.000521808
-8.11123e-05
-0.000546601
-0.000101095
-0.000574183
-0.000122487
-0.000605085
-0.000641956
-0.000145532
-1.0977e-06
-0.000130583
-7.14291e-06
-0.000299519
-1.82993e-05
-0.000399559
-3.31942e-05
-0.000451688
-5.03228e-05
-0.000480634
-6.88312e-05
-0.000503299
-8.8508e-05
-0.000526924
-0.000109477
-0.000553213
-0.000131993
-0.000582569
-0.000619196
-0.000154753
-1.78717e-06
-0.000128796
-9.06152e-06
-0.000292245
-2.14785e-05
-0.000387142
-3.74721e-05
-0.000435694
-5.55629e-05
-0.000462543
-7.49803e-05
-0.000483882
-9.55672e-05
-0.000506337
-0.000117315
-0.000531466
-0.000139788
-0.000560096
-0.00059287
-0.000166115
-2.46267e-06
-0.000126333
-1.09087e-05
-0.000283799
-2.4516e-05
-0.000373535
-4.15461e-05
-0.000418664
-6.05504e-05
-0.000443539
-8.08356e-05
-0.000463597
-0.000102264
-0.000484909
-0.000124794
-0.000508936
-0.000148535
-0.000536354
-0.000566489
-0.000174916
-3.11881e-06
-0.000123215
-1.268e-05
-0.000274237
-2.74077e-05
-0.000358807
-4.54133e-05
-0.000400659
-6.5283e-05
-0.00042367
-8.63941e-05
-0.000442486
-0.00010864
-0.000462663
-0.000132056
-0.00048552
-0.000156926
-0.000511484
-0.000539663
-0.000183753
-3.75203e-06
-0.000119463
-1.43707e-05
-0.000263619
-3.015e-05
-0.000343028
-4.90712e-05
-0.000381738
-6.97576e-05
-0.000402983
-9.16508e-05
-0.000420592
-0.000114679
-0.000439635
-0.000138931
-0.000461268
-0.00016468
-0.000485735
-0.00051222
-0.000192122
-4.35945e-06
-0.000115103
-1.59764e-05
-0.000252002
-3.27398e-05
-0.000326265
-5.25178e-05
-0.000361959
-7.39727e-05
-0.000381528
-9.66064e-05
-0.000397959
-0.000120382
-0.000415858
-0.000145423
-0.000436228
-0.000171959
-0.000459199
-0.000484094
-0.000200086
-4.93853e-06
-0.000110165
-1.74936e-05
-0.000239447
-3.51746e-05
-0.000308584
-5.57517e-05
-0.000341382
-7.79272e-05
-0.000359353
-0.000101259
-0.000374627
-0.000125742
-0.000391376
-0.000151514
-0.000410456
-0.000178776
-0.000431937
-0.000455272
-0.000207597
-5.48706e-06
-0.000104678
-1.89191e-05
-0.000226015
-3.74522e-05
-0.000290051
-5.87718e-05
-0.000320063
-8.16201e-05
-0.000336504
-0.000105606
-0.000350641
-0.000130753
-0.000366229
-0.000157205
-0.000384004
-0.000185146
-0.000403996
-0.000425772
-0.000214647
-6.00307e-06
-9.86745e-05
-2.02504e-05
-0.000211767
-3.95711e-05
-0.00027073
-6.15772e-05
-0.000298057
-8.50507e-05
-0.000313031
-0.000109648
-0.000326044
-0.000135413
-0.000340464
-0.000162496
-0.00035692
-0.000191073
-0.000375418
-0.000395623
-0.000221222
-6.48483e-06
-9.21897e-05
-2.14852e-05
-0.000196767
-4.15299e-05
-0.000250685
-6.41674e-05
-0.000275419
-8.82184e-05
-0.00028898
-0.000113381
-0.000300881
-0.000139719
-0.000314126
-0.000167387
-0.000329252
-0.000196556
-0.00034625
-0.000364864
-0.000227315
-6.93084e-06
-8.52588e-05
-2.26217e-05
-0.000181076
-4.33275e-05
-0.000229979
-6.6542e-05
-0.000252205
-9.11229e-05
-0.000264399
-0.000116806
-0.000275198
-0.000143671
-0.000287261
-0.000171877
-0.000301046
-0.000201593
-0.000316534
-0.000333538
-0.000232919
-7.33982e-06
-7.7919e-05
-2.36586e-05
-0.000164757
-4.49631e-05
-0.000208675
-6.87008e-05
-0.000228467
-9.37638e-05
-0.000239336
-0.000119922
-0.000249039
-0.000147268
-0.000259916
-0.000175964
-0.00027235
-0.000206179
-0.000286319
-0.00030169
-0.000238027
-7.71066e-06
-7.02083e-05
-2.45945e-05
-0.000147874
-4.64362e-05
-0.000186833
-7.06437e-05
-0.00020426
-9.61409e-05
-0.000213839
-0.000122727
-0.000222453
-0.000150507
-0.000232136
-0.000179646
-0.000243211
-0.000210314
-0.000255651
-0.00026937
-0.000242634
-8.04241e-06
-6.21659e-05
-2.54285e-05
-0.000130488
-4.77463e-05
-0.000164515
-7.23705e-05
-0.000179636
-9.8254e-05
-0.000187955
-0.000125222
-0.000195485
-0.000153389
-0.000203969
-0.000182923
-0.000213677
-0.000213994
-0.00022458
-0.000236627
-0.000246736
-8.33428e-06
-5.38316e-05
-2.61597e-05
-0.000112662
-4.88931e-05
-0.000141782
-7.38813e-05
-0.000154647
-0.000100103
-0.000161733
-0.000127406
-0.000168182
-0.000155912
-0.000175463
-0.000185792
-0.000183797
-0.000217217
-0.000193156
-0.000203513
-0.00025033
-8.5856e-06
-4.5246e-05
-2.67876e-05
-9.44601e-05
-4.98765e-05
-0.000118693
-7.51761e-05
-0.000129348
-0.000101688
-0.000135221
-0.000129278
-0.000140592
-0.000158076
-0.000146666
-0.000188253
-0.000153619
-0.000219981
-0.000161427
-0.000170082
-0.000253413
-8.79583e-06
-3.64502e-05
-2.73115e-05
-7.59444e-05
-5.06961e-05
-9.53083e-05
-7.62549e-05
-0.000103789
-0.000103009
-0.000108468
-0.000130839
-0.000112762
-0.00015988
-0.000117625
-0.000190305
-0.000123194
-0.000222287
-0.000129446
-0.000136384
-0.000255984
-8.96452e-06
-2.74857e-05
-2.77311e-05
-5.71778e-05
-5.13519e-05
-7.16876e-05
-7.71179e-05
-7.80228e-05
-0.000104065
-8.15202e-05
-0.000132088
-8.47397e-05
-0.000161323
-8.83894e-05
-0.000191947
-9.25694e-05
-0.000224132
-9.7262e-05
-0.000102474
-0.000258041
-9.09132e-06
-1.83944e-05
-2.80461e-05
-3.8223e-05
-5.18437e-05
-4.78899e-05
-7.77651e-05
-5.21014e-05
-0.000104858
-5.44275e-05
-0.000133024
-5.65733e-05
-0.000162406
-5.90076e-05
-0.00019318
-6.17958e-05
-0.000225516
-6.49259e-05
-6.8405e-05
-0.000259585
-9.176e-06
-9.21837e-06
-2.82562e-05
-1.91429e-05
-5.21717e-05
-2.39744e-05
-7.81966e-05
-2.60766e-05
-0.000105386
-2.7238e-05
-0.000133649
-2.83107e-05
-0.000163128
-2.95282e-05
-0.000194001
-3.09228e-05
-0.000226439
-3.24883e-05
-3.42293e-05
-0.000260614
-9.21838e-06
3.96676e-12
-2.83613e-05
7.15044e-12
-5.23357e-05
8.07428e-12
-7.84123e-05
8.07572e-12
-0.00010565
7.73781e-12
-0.000133961
7.13198e-12
-0.000163489
6.24e-12
-0.000194412
5.08875e-12
-0.0002269
3.71296e-12
2.13076e-12
-0.00026113
-9.21838e-06
9.21838e-06
-2.83613e-05
1.91429e-05
-5.23357e-05
2.39744e-05
-7.84123e-05
2.60766e-05
-0.00010565
2.7238e-05
-0.000133961
2.83107e-05
-0.000163489
2.95282e-05
-0.000194412
3.09228e-05
-0.0002269
3.24883e-05
3.42293e-05
-0.00026113
-9.176e-06
1.83944e-05
-2.82562e-05
3.82231e-05
-5.21717e-05
4.789e-05
-7.81966e-05
5.21015e-05
-0.000105386
5.44275e-05
-0.000133649
5.65733e-05
-0.000163128
5.90076e-05
-0.000194001
6.17959e-05
-0.000226439
6.49259e-05
6.8405e-05
-0.000260614
-9.09132e-06
2.74857e-05
-2.80461e-05
5.71778e-05
-5.18437e-05
7.16876e-05
-7.77651e-05
7.80228e-05
-0.000104858
8.15202e-05
-0.000133024
8.47397e-05
-0.000162406
8.83894e-05
-0.00019318
9.25694e-05
-0.000225516
9.7262e-05
0.000102474
-0.000259585
-8.96452e-06
3.64502e-05
-2.77311e-05
7.59444e-05
-5.13519e-05
9.53084e-05
-7.71179e-05
0.000103789
-0.000104065
0.000108468
-0.000132088
0.000112762
-0.000161323
0.000117625
-0.000191947
0.000123194
-0.000224132
0.000129446
0.000136384
-0.000258041
-8.79583e-06
4.5246e-05
-2.73115e-05
9.44601e-05
-5.06961e-05
0.000118693
-7.6255e-05
0.000129348
-0.000103009
0.000135221
-0.000130839
0.000140592
-0.00015988
0.000146666
-0.000190305
0.00015362
-0.000222287
0.000161427
0.000170082
-0.000255984
-8.5856e-06
5.38316e-05
-2.67876e-05
0.000112662
-4.98765e-05
0.000141782
-7.51761e-05
0.000154647
-0.000101688
0.000161733
-0.000129278
0.000168182
-0.000158076
0.000175463
-0.000188253
0.000183797
-0.000219981
0.000193156
0.000203513
-0.000253413
-8.33428e-06
6.21659e-05
-2.61597e-05
0.000130488
-4.88932e-05
0.000164515
-7.38813e-05
0.000179636
-0.000100103
0.000187955
-0.000127406
0.000195485
-0.000155912
0.000203969
-0.000185792
0.000213677
-0.000217217
0.00022458
0.000236627
-0.00025033
-8.04241e-06
7.02083e-05
-2.54285e-05
0.000147874
-4.77463e-05
0.000186833
-7.23705e-05
0.00020426
-9.8254e-05
0.000213839
-0.000125222
0.000222453
-0.000153389
0.000232136
-0.000182923
0.000243211
-0.000213994
0.000255651
0.00026937
-0.000246736
-7.71066e-06
7.7919e-05
-2.45945e-05
0.000164757
-4.64362e-05
0.000208675
-7.06437e-05
0.000228467
-9.61409e-05
0.000239336
-0.000122727
0.00024904
-0.000150507
0.000259916
-0.000179646
0.00027235
-0.000210314
0.000286319
0.00030169
-0.000242634
-7.33982e-06
8.52588e-05
-2.36586e-05
0.000181076
-4.49631e-05
0.000229979
-6.87008e-05
0.000252205
-9.37638e-05
0.000264399
-0.000119922
0.000275198
-0.000147268
0.000287261
-0.000175964
0.000301046
-0.000206179
0.000316534
0.000333538
-0.000238027
-6.93084e-06
9.21897e-05
-2.26217e-05
0.000196767
-4.33275e-05
0.000250685
-6.6542e-05
0.000275419
-9.11229e-05
0.00028898
-0.000116806
0.000300881
-0.000143671
0.000314126
-0.000171877
0.000329252
-0.000201593
0.00034625
0.000364864
-0.000232919
-6.48483e-06
9.86745e-05
-2.14852e-05
0.000211767
-4.15299e-05
0.00027073
-6.41674e-05
0.000298057
-8.82184e-05
0.000313031
-0.000113381
0.000326044
-0.000139719
0.000340464
-0.000167387
0.00035692
-0.000196556
0.000375418
0.000395623
-0.000227315
-6.00307e-06
0.000104678
-2.02504e-05
0.000226015
-3.95711e-05
0.000290051
-6.15772e-05
0.000320063
-8.50507e-05
0.000336505
-0.000109648
0.000350641
-0.000135413
0.000366229
-0.000162496
0.000384004
-0.000191073
0.000403996
0.000425772
-0.000221222
-5.48706e-06
0.000110165
-1.89191e-05
0.000239447
-3.74523e-05
0.000308584
-5.87718e-05
0.000341382
-8.16201e-05
0.000359353
-0.000105606
0.000374627
-0.000130753
0.000391376
-0.000157205
0.000410456
-0.000185146
0.000431937
0.000455272
-0.000214647
-4.93853e-06
0.000115103
-1.74936e-05
0.000252002
-3.51746e-05
0.000326265
-5.57517e-05
0.00036196
-7.79272e-05
0.000381528
-0.000101259
0.000397959
-0.000125742
0.000415859
-0.000151514
0.000436228
-0.000178776
0.000459199
0.000484094
-0.000207597
-4.35945e-06
0.000119463
-1.59764e-05
0.000263619
-3.27398e-05
0.000343028
-5.25178e-05
0.000381738
-7.39727e-05
0.000402983
-9.66064e-05
0.000420592
-0.000120382
0.000439635
-0.000145423
0.000461268
-0.000171959
0.000485735
0.00051222
-0.000200086
-3.75203e-06
0.000123215
-1.43707e-05
0.000274238
-3.015e-05
0.000358807
-4.90712e-05
0.000400659
-6.97576e-05
0.00042367
-9.16508e-05
0.000442486
-0.000114679
0.000462663
-0.000138931
0.00048552
-0.00016468
0.000511484
0.000539663
-0.000192122
-3.11881e-06
0.000126333
-1.268e-05
0.000283799
-2.74077e-05
0.000373535
-4.54134e-05
0.000418664
-6.5283e-05
0.000443539
-8.63941e-05
0.000463597
-0.00010864
0.000484909
-0.000132056
0.000508936
-0.000156926
0.000536354
0.000566489
-0.000183753
-2.46267e-06
0.000128796
-1.09087e-05
0.000292245
-2.45161e-05
0.000387142
-4.15461e-05
0.000435695
-6.05504e-05
0.000462544
-8.08356e-05
0.000483882
-0.000102264
0.000506337
-0.000124794
0.000531466
-0.000148535
0.000560096
0.00059287
-0.000174916
-1.78717e-06
0.000130583
-9.06152e-06
0.000299519
-2.14785e-05
0.000399559
-3.74721e-05
0.000451688
-5.55629e-05
0.000480634
-7.49803e-05
0.000503299
-9.55672e-05
0.000526924
-0.000117315
0.000553213
-0.000139788
0.000582569
0.000619196
-0.000166115
-1.0977e-06
0.000131681
-7.14291e-06
0.000305564
-1.82993e-05
0.000410716
-3.31942e-05
0.000466583
-5.03228e-05
0.000497763
-6.88312e-05
0.000521808
-8.85081e-05
0.000546601
-0.000109477
0.000574183
-0.000131993
0.000605085
0.000641956
-0.000154753
-4.0892e-07
0.00013209
-5.15431e-06
0.00031031
-1.49837e-05
0.000420545
-2.8716e-05
0.000480315
-4.48312e-05
0.000513878
-6.23916e-05
0.000539368
-8.11123e-05
0.000565322
-0.000101095
0.000594166
-0.000122487
0.000626477
0.000665001
-0.000145532
3.06872e-07
0.000131783
-3.08648e-06
0.000313703
-1.15399e-05
0.000428999
-2.40426e-05
0.000492818
-3.90909e-05
0.000528926
-5.5665e-05
0.000555942
-7.34008e-05
0.000583058
-9.23793e-05
0.000613144
-0.000112863
0.000646961
0.000686807
-0.00013467
1.04889e-06
0.000130734
-8.82646e-07
0.000315635
-7.98174e-06
0.000436098
-1.91777e-05
0.000504014
-3.31071e-05
0.000542856
-4.86573e-05
0.000571492
-6.53852e-05
0.000599785
-8.33342e-05
0.000631093
-0.000102741
0.000666367
0.000707398
-0.000123332
1.74163e-06
0.000128993
1.19123e-06
0.000316185
-4.32617e-06
0.000441615
-1.41274e-05
0.000513815
-2.68889e-05
0.000555617
-4.1374e-05
0.000585977
-5.70642e-05
0.000615476
-7.39503e-05
0.000647979
-9.22187e-05
0.000684636
0.000726767
-0.000111587
2.40762e-06
0.000126585
3.24888e-06
0.000315344
-4.10859e-07
0.000445275
-8.90904e-06
0.000522313
-2.04441e-05
0.000567152
-3.38195e-05
0.000599353
-4.84395e-05
0.000630096
-6.42308e-05
0.000663771
-8.13347e-05
0.00070174
0.000744934
-9.95017e-05
3.06278e-06
0.000123522
5.3533e-06
0.000313053
3.2621e-06
0.000447366
-3.57306e-06
0.000529148
-1.37795e-05
0.000577359
-2.6002e-05
0.000611575
-3.9518e-05
0.000643612
-5.41838e-05
0.000678437
-7.00934e-05
0.000717649
0.000761877
-8.70366e-05
3.69678e-06
0.000119825
7.46108e-06
0.000309289
7.11762e-06
0.00044771
1.9304e-06
0.000534336
-6.90992e-06
0.000586199
-1.7931e-05
0.000622596
-3.03075e-05
0.000655988
-4.3818e-05
0.000691947
-5.85089e-05
0.00073234
0.000777557
-7.41881e-05
4.29916e-06
0.000115526
9.55279e-06
0.000304035
1.10274e-05
0.000446235
7.52843e-06
0.000537835
1.36809e-07
0.000593591
-9.61625e-06
0.00063235
-2.08173e-05
0.000667189
-3.31423e-05
0.000704272
-4.65987e-05
0.000745796
0.000791943
-6.09848e-05
4.86092e-06
0.000110665
1.16013e-05
0.000297295
1.49514e-05
0.000442885
1.3253e-05
0.000539533
7.39845e-06
0.000599445
-1.09185e-06
0.00064084
-1.10617e-05
0.000677159
-2.21658e-05
0.000715376
-3.43786e-05
0.000758009
0.000805018
-4.7454e-05
5.37275e-06
0.000105293
1.35794e-05
0.000289088
1.88596e-05
0.000437605
1.90522e-05
0.00053934
1.48146e-05
0.000603683
7.71179e-06
0.000647943
-1.09797e-06
0.000685969
-1.09084e-05
0.000725187
-2.18559e-05
0.000768957
0.000816779
-3.36168e-05
5.82587e-06
9.94666e-05
1.54598e-05
0.000279454
2.27152e-05
0.000430349
2.48929e-05
0.000537163
2.23691e-05
0.000606207
1.6705e-05
0.000653607
9.21635e-06
0.000693457
4.87945e-07
0.000733915
-8.9981e-06
0.000778443
0.000827312
-1.95315e-05
6.21233e-06
9.32543e-05
1.72144e-05
0.000268452
2.64762e-05
0.000421088
3.07362e-05
0.000532903
3.00316e-05
0.000606911
2.58825e-05
0.000657756
1.9732e-05
0.000699608
1.2409e-05
0.000741238
4.15621e-06
0.000786696
0.000836805
-5.33693e-06
6.52513e-06
8.67292e-05
1.88144e-05
0.000256163
3.00964e-05
0.000409806
3.65347e-05
0.000526464
3.7765e-05
0.000605681
3.52201e-05
0.000660301
3.04529e-05
0.000704375
2.4411e-05
0.00074728
1.74365e-05
0.00079367
0.000844675
9.56642e-06
6.75848e-06
7.99707e-05
2.02287e-05
0.000242693
3.35245e-05
0.00039651
4.22329e-05
0.000517756
4.55227e-05
0.000602391
4.46838e-05
0.00066114
4.13596e-05
0.000707699
3.66521e-05
0.000751987
3.10667e-05
0.000799255
0.000850982
2.47603e-05
6.90822e-06
7.30625e-05
2.14271e-05
0.000228174
3.67045e-05
0.000381232
4.77661e-05
0.000506694
5.32492e-05
0.000596908
5.42345e-05
0.000660154
5.24303e-05
0.000709504
4.91069e-05
0.000755311
4.49022e-05
0.00080346
0.000855856
4.00285e-05
6.97219e-06
6.60903e-05
2.23826e-05
0.000212763
3.95768e-05
0.000364038
5.30606e-05
0.000493211
6.08775e-05
0.000589091
6.3823e-05
0.000657209
6.36296e-05
0.000709697
6.17315e-05
0.000757209
5.89074e-05
0.000806284
0.000859324
5.54393e-05
6.95022e-06
5.91401e-05
2.30713e-05
0.000196642
4.20789e-05