/*--------------------------------*- C++ -*----------------------------------*\
  =========                 |
  \\      /  F ield         | OpenFOAM: The Open Source CFD Toolbox
   \\    /   O peration     | Website:  https://openfoam.org
    \\  /    A nd           | Version:  7
     \\/     M anipulation  |
\*---------------------------------------------------------------------------*/
FoamFile
{
    version     2.0;
    format      ascii;
    class       volVectorField;
    location    "15";
    object      U;
}
// * * * * * * * * * * * * * * * * * * * * * * * * * * * * * * * * * * * * * //

dimensions      [0 1 -1 0 0 0 0];

internalField   nonuniform List<vector> 
8500
(
(-0.00131145 0.00112995 -6.3595e-20)
(-0.00723878 0.00258882 -1.5021e-19)
(-0.0183127 0.00345833 -2.52989e-19)
(-0.0314476 0.00389685 2.51504e-19)
(-0.0455358 0.00402189 -2.31387e-19)
(-0.0597172 0.00394375 -1.23398e-19)
(-0.0734303 0.00376398 2.10882e-19)
(-0.0864806 0.00357636 2.6145e-19)
(-0.0989568 0.00346188 -4.29684e-20)
(-0.111209 0.00349958 1.25979e-19)
(-0.00146932 0.00336845 3.35676e-20)
(-0.00754879 0.00772179 2.11434e-19)
(-0.0186215 0.0103188 -6.04966e-19)
(-0.0316543 0.0116284 5.48617e-19)
(-0.0455563 0.0119999 2.44372e-20)
(-0.0594754 0.0117615 4.02742e-19)
(-0.0728493 0.0112158 -6.99895e-19)
(-0.0854784 0.0106436 -1.02449e-18)
(-0.0974372 0.0102898 -2.00391e-19)
(-0.109023 0.0103932 4.52976e-19)
(-0.00178051 0.00554345 7.6677e-20)
(-0.00816154 0.0127219 5.65479e-19)
(-0.0192337 0.0170118 1.3322e-18)
(-0.0320656 0.0191751 -1.20538e-18)
(-0.0455993 0.0197824 -2.7194e-19)
(-0.0589989 0.0193719 -2.47579e-19)
(-0.0717002 0.0184417 1.26446e-18)
(-0.0834934 0.0174578 7.86806e-19)
(-0.0944277 0.0168341 1.92265e-19)
(-0.104686 0.016975 -1.40363e-18)
(-0.0022362 0.00761598 2.71843e-19)
(-0.00906279 0.0175061 -3.32068e-19)
(-0.0201383 0.0234313 -2.48108e-18)
(-0.0326767 0.0264185 2.19527e-19)
(-0.0456678 0.0272437 6.80686e-19)
(-0.0582999 0.026642 -5.29168e-19)
(-0.0700057 0.0252968 -2.7697e-20)
(-0.0805599 0.023856 -2.14909e-19)
(-0.0899817 0.0229116 4.87764e-19)
(-0.0982584 0.0230434 1.39977e-18)
(-0.00282397 0.00955181 1.89081e-19)
(-0.0102319 0.0219995 -1.06576e-18)
(-0.0213185 0.0294795 2.56247e-18)
(-0.0334788 0.0332482 -1.16476e-18)
(-0.045763 0.0342658 -4.86677e-21)
(-0.0573911 0.0334464 1.60952e-18)
(-0.067792 0.0316447 -7.39404e-19)
(-0.0767183 0.0296848 8.43926e-20)
(-0.0841655 0.0283483 -3.0356e-19)
(-0.0898036 0.0284058 1.10287e-19)
(-0.00352859 0.0113228 2.25759e-18)
(-0.0116429 0.0261374 2.73945e-18)
(-0.0227516 0.0350691 -7.00911e-19)
(-0.0344571 0.0395634 1.33672e-18)
(-0.0458803 0.0407402 4.19874e-19)
(-0.0562799 0.0396705 -5.99813e-19)
(-0.0650799 0.0373616 -2.31089e-19)
(-0.0720017 0.034804 -1.00602e-18)
(-0.0770417 0.0329825 2.17918e-19)
(-0.0793608 0.0328791 -1.29873e-18)
(-0.00433299 0.0129079 -2.17569e-18)
(-0.0132649 0.029867 -1.42737e-18)
(-0.0244083 0.0401252 1.16303e-18)
(-0.0355882 0.0452753 -2.01267e-18)
(-0.046004 0.0465703 2.29312e-19)
(-0.0549596 0.0452133 2.35904e-18)
(-0.0618721 0.04234 -4.25008e-19)
(-0.0664169 0.0390928 -1.97726e-19)
(-0.0686469 0.0366696 1.26467e-18)
(-0.0669062 0.0362924 -2.97779e-19)
(-0.00521929 0.0142931 1.82215e-18)
(-0.0150634 0.0331484 -3.29337e-18)
(-0.0262519 0.0445865 -1.30962e-18)
(-0.0368372 0.0503082 1.53597e-18)
(-0.0461012 0.0516735 5.12116e-20)
(-0.0533987 0.0499899 -4.42677e-18)
(-0.0581371 0.0464933 1.40634e-18)
(-0.0599206 0.0424563 9.37993e-19)
(-0.0589623 0.0392876 -2.50705e-18)
(-0.0523153 0.0385115 1.34623e-18)
(-0.00616974 0.0154717 -1.0182e-18)
(-0.0170012 0.0359544 4.91032e-19)
(-0.0282376 0.0484056 1.20888e-18)
(-0.0381537 0.0546001 -1.08051e-18)
(-0.0461145 0.0559812 -3.79463e-18)
(-0.0515285 0.0539334 1.30738e-18)
(-0.0537903 0.0497598 -6.59397e-19)
(-0.0523886 0.0448317 5.47287e-19)
(-0.0478593 0.0407344 4.34503e-18)
(-0.0353534 0.0395292 -1.9584e-18)
(-0.00716748 0.0164435 1.60191e-18)
(-0.0190387 0.0382693 1.45809e-18)
(-0.0303111 0.0515478 -2.09414e-19)
(-0.0394682 0.0581022 5.38248e-18)
(-0.0459539 0.0594398 2.28781e-18)
(-0.0492298 0.056996 1.71748e-18)
(-0.048674 0.0521067 1.15043e-18)
(-0.0435917 0.0461992 -3.1447e-18)
(-0.0349826 0.0409005 -1.45159e-18)
(-0.0156777 0.0395109 -2.39462e-18)
(-0.00819713 0.0172135 -1.50051e-19)
(-0.0211341 0.0400879 -2.30182e-18)
(-0.0324077 0.0539905 -1.65756e-18)
(-0.040688 0.0607778 -2.65792e-18)
(-0.0454888 0.0620087 -2.1052e-18)
(-0.0463175 0.0591488 2.12393e-18)
(-0.042533 0.0535344 -1.6152e-18)
(-0.033203 0.046611 1.41465e-18)
(-0.0196813 0.0397614 1.85064e-19)
(0.00747049 0.0383702 6.276e-19)
(-0.00924508 0.017791 -4.40914e-18)
(-0.0232436 0.041413 2.10613e-18)
(-0.0344498 0.0557208 1.53579e-18)
(-0.0416929 0.0626007 1.91538e-18)
(-0.0445403 0.063659 -2.71258e-18)
(-0.0425274 0.0603789 -1.58412e-18)
(-0.0349749 0.0540714 2.29459e-18)
(-0.0207373 0.0461686 6.37181e-19)
(-0.00128188 0.0375418 1.44854e-18)
(0.0356087 0.0360948 -1.96891e-18)
(-0.0102995 0.0181878 3.69045e-18)
(-0.0253204 0.0422533 1.50008e-18)
(-0.0363459 0.0567336 8.84822e-20)
(-0.0423312 0.0635534 -9.20492e-19)
(-0.0428746 0.0643712 -6.51253e-19)
(-0.0375103 0.0606853 1.25856e-18)
(-0.0254705 0.0537705 -1.36965e-18)
(-0.00540833 0.0449963 -2.1491e-18)
(0.0211139 0.0345496 -4.15255e-18)
(0.0702425 0.0331705 3.00278e-18)
(-0.0113499 0.0184172 2.49393e-18)
(-0.0273137 0.042621 -4.04732e-18)
(-0.0379871 0.0570302 -3.12128e-18)
(-0.0424161 0.0636264 1.34963e-18)
(-0.0401967 0.0641341 2.75588e-18)
(-0.0308203 0.0600756 3.10037e-18)
(-0.0133701 0.0527002 -1.6592e-18)
(0.0137525 0.043272 4.84305e-18)
(0.0488697 0.0310125 -1.46133e-18)
(0.112995 0.030478 -3.53081e-18)
(-0.0123866 0.0184923 -1.60571e-19)
(-0.0291664 0.0425302 2.25693e-18)
(-0.0392446 0.0566169 -1.08193e-18)
(-0.0417211 0.0628188 1.13503e-19)
(-0.0361474 0.0629465 1.15959e-18)
(-0.0219122 0.0585666 -3.69354e-18)
(0.00212345 0.050941 3.28534e-18)
(0.0378273 0.0412317 -3.20061e-18)
(0.083669 0.027246 5.15972e-18)
(0.165434 0.0291068 1.87873e-18)
(-0.0133991 0.0184246 -1.13624e-18)
(-0.030812 0.0419942 4.38505e-18)
(-0.0399652 0.0555055 -1.10307e-18)
(-0.0399761 0.0611421 1.11747e-18)
(-0.0302978 0.060823 1.3027e-18)
(-0.0101444 0.0561927 -3.9167e-19)
(0.0219398 0.048589 2.8186e-18)
(0.067994 0.0390981 1.40395e-19)
(0.127416 0.0237302 -3.31356e-18)
(0.228491 0.0301965 4.48798e-18)
(-0.0143752 0.018223 -2.12301e-18)
(-0.03217 0.0410243 -4.15403e-18)
(-0.0399681 0.053718 3.60535e-18)
(-0.0368604 0.058623 1.8089e-18)
(-0.022146 0.0578036 -8.39782e-18)
(0.00521937 0.0530207 6.85411e-18)
(0.0471139 0.0457767 -6.20262e-18)
(0.105462 0.0370631 9.54655e-20)
(0.182072 0.021237 -1.41206e-18)
(0.301628 0.0347417 -4.16218e-18)
(-0.0153001 0.0178937 1.83763e-18)
(-0.0331443 0.039635 -2.48909e-19)
(-0.0390345 0.0512817 -8.85424e-19)
(-0.0319987 0.0553086 -1.03132e-19)
(-0.0111122 0.0539689 -5.23941e-19)
(0.0250057 0.0491736 -2.18475e-18)
(0.0787529 0.0427026 9.3375e-19)
(0.151441 0.0352849 -1.47279e-18)
(0.249317 0.0210842 4.40893e-19)
(0.382033 0.0434836 1.25578e-19)
(-0.0161512 0.0174389 -3.75186e-18)
(-0.03362 0.037838 -2.70507e-19)
(-0.036906 0.0482308 4.10311e-19)
(-0.0249543 0.0512784 1.67299e-19)
(0.00346051 0.049453 2.75191e-18)
(0.0501165 0.0448547 -8.02983e-18)
(0.117975 0.0396567 5.42201e-18)
(0.207177 0.0339311 -4.06956e-18)
(0.330064 0.025151 3.44145e-18)
(0.465111 0.0558772 3.81704e-18)
(-0.0168909 0.0168501 -4.56252e-19)
(-0.0334556 0.0356438 2.08943e-18)
(-0.0332839 0.0446184 -2.62243e-18)
(-0.0152313 0.0466474 -8.2174e-19)
(0.022295 0.0444553 1.58523e-18)
(0.0814907 0.0403666 7.6364e-18)
(0.165769 0.0370301 -1.53608e-18)
(0.273819 0.0333874 7.46918e-19)
(0.423518 0.034845 -3.98066e-18)
(0.548262 0.0661383 1.84703e-18)
(-0.0174705 0.0161252 -1.37167e-18)
(-0.0324717 0.0330637 -1.06691e-18)
(-0.027825 0.0405104 2.63429e-19)
(-0.00228 0.0415684 1.03512e-18)
(0.0461557 0.0392463 -3.06715e-18)
(0.120039 0.0361235 -1.24267e-18)
(0.222828 0.0353273 -3.91471e-18)
(0.351761 0.0345661 4.04204e-18)
(0.525012 0.0486158 4.27611e-18)
(0.637034 0.0646201 -1.81507e-18)
(-0.0178372 0.0152558 -6.54568e-19)
(-0.0304595 0.0301046 2.66621e-18)
(-0.0201401 0.0359916 -2.98192e-18)
(0.0144899 0.0362353 -3.48288e-19)
(0.0758097 0.0341674 -1.40732e-18)
(0.166554 0.0326483 3.07002e-18)
(0.289455 0.0351818 3.96705e-18)
(0.440004 0.0387605 -3.81045e-18)
(0.626118 0.06059 4.07197e-18)
(0.758635 0.0648258 5.78462e-19)
(-0.0179157 0.014226 -1.89824e-18)
(-0.0271843 0.0267851 -5.39445e-18)
(-0.00980723 0.0311678 5.2667e-18)
(0.0356849 0.0308825 7.58458e-19)
(0.111968 0.0296212 1.11049e-18)
(0.22158 0.0305379 6.71495e-19)
(0.365416 0.037285 3.03219e-18)
(0.535921 0.0466833 2.23936e-18)
(0.728289 0.072811 -7.91874e-18)
(0.874313 0.0794041 -3.93655e-18)
(-0.0176153 0.0130233 2.57018e-18)
(-0.0223818 0.0231345 -6.55195e-19)
(0.00361673 0.0261692 -2.98004e-18)
(0.0618936 0.0257849 5.7985e-19)
(0.15521 0.0260584 9.30534e-19)
(0.285257 0.0304092 -6.69323e-18)
(0.449671 0.0422691 2.95965e-18)
(0.635943 0.0582044 -2.01047e-18)
(0.828457 0.0871647 2.10444e-18)
(0.973852 0.0973898 -7.55753e-19)
(-0.0168324 0.0116402 2.60374e-18)
(-0.0157655 0.0191989 5.90588e-18)
(0.0205788 0.0211567 1.62076e-19)
(0.0936447 0.0212577 -8.1562e-19)
(0.205892 0.0239623 3.07531e-20)
(0.357162 0.0328364 6.51872e-20)
(0.540185 0.0505427 -4.50368e-18)
(0.736085 0.0727587 5.75825e-19)
(0.921803 0.103347 5.67518e-18)
(1.05795 0.115739 2.61545e-18)
(-0.0154513 0.0100775 -5.39588e-21)
(-0.00703621 0.0150489 -1.18021e-18)
(0.041508 0.0163284 4.89522e-18)
(0.131357 0.0176577 1.29919e-19)
(0.26405 0.0238296 -2.13075e-18)
(0.436205 0.0382779 5.73289e-18)
(0.634046 0.0621643 1.26796e-18)
(0.832286 0.0895897 8.65946e-20)
(1.00496 0.120474 -2.47652e-18)
(1.12534 0.133394 -3.30235e-18)
(-0.0133478 0.00834814 3.34612e-18)
(0.00410756 0.0107869 -9.29428e-19)
(0.0667897 0.0119256 -2.96025e-18)
(0.175284 0.0153808 1.98206e-19)
(0.329307 0.0261395 3.46698e-18)
(0.5206 0.0469985 -3.46963e-18)
(0.727852 0.0768136 -1.96355e-18)
(0.921091 0.107864 -4.44086e-19)
(1.07593 0.137706 -1.43587e-18)
(1.17745 0.149657 1.60713e-18)
(-0.0103923 0.00647986 -1.23074e-18)
(0.0179561 0.00655279 -7.3339e-18)
(0.0967362 0.00823673 7.62399e-19)
(0.225462 0.0148535 1.9895e-18)
(0.400808 0.0313071 1.29534e-18)
(0.607972 0.0590102 -4.5976e-18)
(0.818245 0.093891 4.17143e-18)
(1.00008 0.126793 -4.69588e-18)
(1.13426 0.154414 -7.08757e-19)
(1.21624 0.164395 8.09088e-19)
(-0.00645434 0.00451795 -1.35477e-18)
(0.0347734 0.00252778 2.60085e-18)
(0.131554 0.00559546 3.40011e-18)
(0.281648 0.016512 -4.16602e-18)
(0.477206 0.0396237 2.39122e-18)
(0.695624 0.0740655 3.59752e-18)
(0.902395 0.11268 1.08732e-18)
(1.06803 0.14574 2.93434e-18)
(1.18056 0.170239 2.08394e-18)
(1.24404 0.177673 -2.26148e-18)
(-0.00140776 0.00252662 -1.75627e-18)
(0.0547805 -0.00106512 -5.97945e-19)
(0.171312 0.00437362 -6.17184e-18)
(0.343286 0.0207697 -9.69446e-19)
(0.55673 0.0512038 -1.06549e-19)
(0.780884 0.0917159 3.28807e-19)
(0.978299 0.132497 -6.5536e-18)
(1.12471 0.164264 1.19922e-18)
(1.21609 0.18504 5.01903e-20)
(1.26308 0.189706 1.55776e-18)
(0.00486444 0.000589208 -4.61081e-19)
(0.0781365 -0.00396372 2.14346e-18)
(0.215905 0.00496662 3.01906e-18)
(0.409483 0.0279729 1.88986e-18)
(0.637342 0.0659636 -5.58584e-19)
(0.861428 0.111412 -4.69075e-19)
(1.04483 0.152772 5.0119e-18)
(1.17064 0.182103 4.77107e-19)
(1.2424 0.198833 7.22086e-19)
(1.27531 0.200748 -9.48879e-19)
(0.0124633 -0.00119187 4.40924e-18)
(0.104921 -0.00587251 2.84504e-18)
(0.26503 0.00777181 -2.88568e-18)
(0.479041 0.0383572 -5.75123e-19)
(0.716948 0.0836457 3.05022e-19)
(0.935488 0.1326 -1.11099e-18)
(1.10163 0.173088 -8.77563e-19)
(1.2068 0.199148 -1.91609e-18)
(1.26106 0.211726 -3.13159e-18)
(1.28237 0.211057 1.53391e-18)
(0.0214671 -0.00269712 5.52611e-19)
(0.135115 -0.00647273 -1.55542e-18)
(0.318175 0.0131606 3.68481e-18)
(0.550529 0.0520173 2.40143e-18)
(0.793614 0.103877 7.96562e-20)
(1.00191 0.154788 1.71704e-18)
(1.14891 0.193163 -4.19947e-19)
(1.23439 0.21539 -1.55563e-18)
(1.27351 0.223875 3.9339e-18)
(1.28552 0.220861 1.04364e-18)
(0.0319254 -0.00379263 -3.65375e-18)
(0.168588 -0.00543502 -1.07498e-18)
(0.374616 0.0214477 -9.68431e-19)
(0.622392 0.0689013 -1.69071e-18)
(0.865724 0.126231 4.04306e-19)
(1.06012 0.177572 1.06316e-20)
(1.18728 0.212832 1.34573e-18)
(1.25464 0.230892 -1.6e-18)
(1.28102 0.235449 -2.35789e-18)
(1.28573 0.230348 -1.58081e-18)
(0.0438526 -0.00433356 2.98357e-19)
(0.205089 -0.00243502 1.7467e-18)
(0.433446 0.032863 8.48506e-19)
(0.693083 0.0888305 -2.6524e-18)
(0.932055 0.150285 -1.34042e-19)
(1.10999 0.200641 -1.15779e-18)
(1.21755 0.232017 3.008e-20)
(1.26871 0.245751 5.49588e-19)
(1.2846 0.246609 -6.2294e-19)
(1.28371 0.239659 1.76037e-18)
(0.0572225 -0.00416881 7.05215e-19)
(0.244242 0.00282891 -1.71523e-18)
(0.493621 0.0475321 -4.04941e-18)
(0.761171 0.111533 3.73638e-18)
(0.99179 0.175644 -2.81047e-19)
(1.15173 0.223764 8.3221e-19)
(1.24062 0.250698 -1.19612e-19)
(1.27764 0.260078 8.19554e-19)
(1.28508 0.257489 -5.86674e-20)
(1.27995 0.248893 -1.36615e-18)
(0.0719643 -0.00314648 -1.44063e-18)
(0.285553 0.0106174 2.23975e-18)
(0.554021 0.0654683 1.84463e-18)
(0.82543 0.136679 -2.67432e-18)
(1.04447 0.201961 -4.48596e-19)
(1.18579 0.246778 1.70077e-19)
(1.25736 0.26889 1.74027e-18)
(1.28232 0.273979 9.00828e-20)
(1.28308 0.268197 3.46822e-19)
(1.27478 0.258107 -7.49343e-19)
(0.087961 -0.00112006 1.09332e-18)
(0.328425 0.0211328 -9.8094e-19)
(0.613515 0.0865777 -8.39212e-19)
(0.884874 0.163911 1.44081e-18)
(1.08992 0.228931 4.98842e-19)
(1.2127 0.269566 3.81433e-19)
(1.26862 0.286628 -1.77462e-18)
(1.28347 0.287546 -6.15267e-19)
(1.27905 0.278808 -5.55436e-19)
(1.26843 0.267326 2.46432e-19)
(0.105049 0.00204493 -3.25332e-19)
(0.372176 0.0345053 -3.06426e-19)
(0.671022 0.110673 1.58986e-18)
(0.938773 0.192865 -5.82431e-19)
(1.12821 0.256293 -2.60641e-19)
(1.23309 0.292047 -1.72051e-19)
(1.27513 0.303948 4.31044e-19)
(1.28167 0.300848 7.49552e-19)
(1.27332 0.289362 -2.36445e-20)
(1.26103 0.276548 2.78826e-19)
(0.123022 0.0064642 -9.9313e-20)
(0.416072 0.0507835 4.0203e-19)
(0.725561 0.137489 -3.49125e-19)
(0.986625 0.223179 -2.17781e-19)
(1.15953 0.28382 1.72342e-19)
(1.24757 0.314156 1.2123e-19)
(1.27753 0.320878 -6.80805e-20)
(1.27736 0.313928 1.16359e-19)
(1.26612 0.299873 2.9703e-20)
(1.25268 0.285747 -8.95414e-20)
(0.141634 0.0122283 4.29723e-20)
(0.459352 0.0699308 3.3068e-19)
(0.776283 0.166704 -2.61274e-19)
(1.02813 0.254502 -2.5598e-19)
(1.1842 0.311309 1.73736e-19)
(1.25671 0.335841 1.1359e-19)
(1.27636 0.337435 -1.79633e-19)
(1.27089 0.326804 1.81811e-19)
(1.2576 0.310324 1.61116e-20)
(1.24343 0.29488 -8.56599e-20)
(0.160607 0.0193968 1.66997e-19)
(0.501264 0.0918263 -1.51549e-19)
(0.822488 0.197953 1.10585e-18)
(1.06317 0.286495 -4.95797e-19)
(1.20259 0.338577 -2.42139e-19)
(1.26105 0.357047 -2.74176e-19)
(1.27204 0.353616 5.62622e-19)
(1.26251 0.339468 3.78058e-19)
(1.24786 0.320678 3.03632e-19)
(1.2333 0.303894 1.66813e-19)
(0.17964 0.0279942 1.69725e-18)
(0.541089 0.116271 -9.29443e-19)
(0.863629 0.230842 -1.05512e-18)
(1.09174 0.318831 1.44033e-18)
(1.21509 0.365453 7.61054e-19)
(1.26106 0.377716 -5.09416e-20)
(1.26494 0.369399 -9.40467e-19)
(1.25241 0.351888 -6.79461e-19)
(1.23698 0.330877 -7.12068e-19)
(1.22232 0.312727 4.25218e-19)
(0.198416 0.0380072 -2.29896e-18)
(0.578169 0.142995 2.15491e-18)
(0.899305 0.264961 2.48538e-18)
(1.11393 0.351195 -2.45283e-18)
(1.2221 0.391773 -8.48358e-19)
(1.25717 0.397781 5.45243e-19)
(1.25533 0.384741 9.89795e-19)
(1.2407 0.364009 1.55586e-19)
(1.22497 0.34084 -2.7668e-20)
(1.21052 0.321299 -5.80742e-19)
(0.216617 0.0493831 -3.33457e-19)
(0.61192 0.171671 -3.04171e-18)
(0.929249 0.299889 -3.2579e-18)
(1.12994 0.383283 3.66157e-18)
(1.22402 0.417377 -4.16159e-19)
(1.24973 0.417164 7.62446e-19)
(1.24345 0.399586 1.49533e-19)
(1.2275 0.37576 -4.23782e-19)
(1.21187 0.350474 2.26966e-19)
(1.19785 0.32952 -2.79322e-20)
(0.233926 0.062031 6.76099e-19)
(0.641846 0.201923 1.89002e-18)
(0.953314 0.335203 1.0694e-18)
(1.13999 0.414801 -8.43329e-19)
(1.22121 0.442106 -1.31232e-18)
(1.23908 0.435775 -1.2189e-18)
(1.22949 0.413858 -2.45587e-19)
(1.21286 0.387064 6.48691e-19)
(1.19766 0.35969 -1.3607e-19)
(1.1842 0.337298 3.19346e-19)
(0.250043 0.0758238 -2.56764e-18)
(0.667548 0.233338 -2.38277e-18)
(0.971459 0.370481 -3.79816e-19)
(1.14435 0.445468 -4.27917e-19)
(1.21404 0.465797 -9.67385e-19)
(1.22549 0.453515 5.8867e-19)
(1.21359 0.42747 -1.07347e-19)
(1.19687 0.397841 -1.03406e-18)
(1.18237 0.36845 -1.73348e-19)
(1.16943 0.344589 -1.379e-18)
(0.264688 0.0906014 6.06549e-19)
(0.688725 0.265479 2.02391e-18)
(0.98373 0.40531 1.76052e-18)
(1.14333 0.47501 1.91153e-18)
(1.20285 0.488291 3.89931e-20)
(1.20919 0.470269 1.65382e-18)
(1.19588 0.440314 -1.00708e-18)
(1.17955 0.407987 5.43792e-19)
(1.16605 0.376755 1.17374e-18)
(1.15363 0.351392 6.75214e-19)
(0.277614 0.106175 1.66775e-18)
(0.705174 0.297896 3.71471e-18)
(0.990245 0.439286 -4.90887e-19)
(1.13724 0.503164 -2.40796e-18)
(1.18796 0.509426 1.08267e-18)
(1.19041 0.485922 -1.11973e-18)
(1.17645 0.452282 -8.76607e-19)
(1.16097 0.417359 -6.4795e-19)
(1.14873 0.384502 -1.12819e-18)
(1.13718 0.35753 4.37193e-19)
(0.288608 0.122333 7.84255e-19)
(0.716786 0.330139 5.81048e-19)
(0.991186 0.47202 4.63418e-18)
(1.1264 0.529679 8.64045e-19)
(1.16967 0.529042 -7.48199e-19)
(1.16934 0.500352 -3.82777e-19)
(1.15544 0.463266 2.35744e-18)
(1.14127 0.425882 -6.61687e-20)
(1.13034 0.391454 9.06052e-19)
(1.12014 0.363032 -1.18943e-19)
(0.297495 0.138843 1.63953e-19)
(0.723531 0.361762 -3.804e-18)
(0.986785 0.503142 -5.44894e-18)
(1.11117 0.554313 1.65456e-19)
(1.14827 0.546982 1.05393e-18)
(1.14618 0.513427 -1.45038e-18)
(1.13303 0.473118 -3.46001e-18)
(1.12047 0.433471 1.01789e-18)
(1.11094 0.397538 -5.61501e-20)
(1.10242 0.367689 4.30613e-19)
(0.304146 0.155464 -1.3605e-18)
(0.725459 0.392332 3.42227e-18)
(0.977324 0.532301 3.27299e-18)
(1.09189 0.576842 -1.11659e-18)
(1.12403 0.563085 -1.10285e-18)
(1.12114 0.525002 3.44548e-18)
(1.10929 0.481732 -7.28287e-19)
(1.09857 0.440004 1.23042e-18)
(1.09068 0.402656 5.18243e-19)
(1.08404 0.371439 -3.72633e-19)
(0.308473 0.171947 -3.05963e-18)
(0.722693 0.421441 -5.39182e-18)
(0.963139 0.559177 -1.05547e-18)
(1.06889 0.597051 2.13348e-18)
(1.09722 0.577192 1.19843e-18)
(1.0944 0.534947 -3.05049e-18)
(1.0843 0.488982 2.08738e-18)
(1.07567 0.445377 -1.34122e-18)
(1.0696 0.40671 -2.42065e-19)
(1.06504 0.374192 3.38437e-20)
(0.310435 0.188045 2.33549e-18)
(0.715438 0.448698 1.69385e-19)
(0.944617 0.583498 -5.1942e-19)
(1.04244 0.614706 -2.11301e-18)
(1.06813 0.589154 1.32688e-18)
(1.0661 0.543122 -4.58662e-19)
(1.05819 0.494757 -8.93048e-19)
(1.05189 0.449485 2.10162e-19)
(1.04778 0.409603 -1.58927e-19)
(1.04549 0.375875 3.66599e-20)
(0.310045 0.203509 1.79125e-19)
(0.70398 0.473735 -8.7442e-19)
(0.922083 0.605033 2.24794e-18)
(1.01284 0.629622 1.03773e-18)
(1.03701 0.598789 -1.3931e-18)
(1.03646 0.549411 1.84316e-18)
(1.03111 0.498947 1.60277e-19)
(1.02731 0.452233 2.09949e-19)
(1.02529 0.411239 1.54379e-19)
(1.02544 0.3764 3.07599e-20)
(0.307367 0.218095 1.79518e-18)
(0.688629 0.496239 3.15264e-18)
(0.895638 0.623412 -2.39584e-19)
(0.980606 0.641748 -4.68178e-19)
(1.00418 0.605957 -5.5619e-19)
(1.00566 0.553692 -2.63792e-19)
(1.00318 0.501454 2.04238e-19)
(1.00205 0.453538 1.16966e-19)
(1.00221 0.411526 -1.10842e-19)
(1.00495 0.375673 -3.31265e-19)
(0.302479 0.231537 3.10961e-19)
(0.669585 0.516032 5.30712e-19)
(0.865681 0.638378 -2.85398e-18)
(0.946186 0.650812 1.2397e-18)
(0.969894 0.61062 2.48874e-19)
(0.973897 0.555874 -5.17565e-19)
(0.974559 0.50219 2.02932e-19)
(0.976203 0.453325 1.08665e-19)
(0.978616 0.410384 -3.53583e-19)
(0.984173 0.373606 4.23294e-19)
(0.295444 0.243546 -1.55907e-18)
(0.64706 0.532743 -1.10846e-18)
(0.832941 0.649965 8.75229e-19)
(0.909865 0.656652 1.84724e-19)
(0.934403 0.612657 -4.97772e-19)
(0.941356 0.55587 3.91905e-19)
(0.945375 0.501075 2.23681e-19)
(0.949874 0.451524 -8.34731e-19)
(0.954723 0.40775 2.05879e-18)
(0.963544 0.370162 8.32359e-19)
(0.286374 0.253906 -1.17405e-18)
(0.621406 0.545992 2.81604e-18)
(0.797835 0.657958 -1.74919e-18)
(0.871965 0.659231 -2.8386e-19)
(0.89797 0.611986 -2.23329e-19)
(0.908231 0.553604 -1.31916e-19)
(0.915753 0.498037 -7.50162e-19)
(0.923191 0.448043 3.96999e-19)
(0.930894 0.403528 -7.30485e-20)
(0.943518 0.36549 -3.69635e-19)
(0.275491 0.262502 -1.17065e-19)
(0.593118 0.555636 -8.43934e-19)
(0.760723 0.662177 3.98441e-19)
(0.83283 0.658479 -1.72649e-19)
(0.86086 0.608538 4.86318e-19)
(0.874713 0.549022 4.60292e-19)
(0.885834 0.493031 1.4308e-18)
(0.896371 0.442819 -1.07554e-18)
(0.907563 0.397528 -2.05848e-18)
(0.923692 0.359492 8.86948e-19)
(0.262984 0.269209 -6.18487e-20)
(0.562625 0.561552 -2.20597e-19)
(0.722012 0.662499 9.13902e-20)
(0.792808 0.654339 6.2638e-19)
(0.823338 0.602269 -1.10936e-18)
(0.840997 0.542083 -1.8352e-18)
(0.855803 0.48603 -5.49563e-19)
(0.869708 0.435914 -1.44865e-19)
(0.885018 0.389893 2.76309e-18)
(0.902189 0.348811 -6.14336e-19)
(0.249044 0.273884 8.23378e-20)
(0.530356 0.563634 -3.79988e-19)
(0.682122 0.658863 3.43077e-20)
(0.752244 0.646773 7.13999e-20)
(0.785667 0.593149 -7.89921e-19)
(0.807294 0.532751 3.49404e-18)
(0.825898 0.476978 -2.4448e-18)
(0.843425 0.42729 2.93441e-18)
(0.862373 0.381969 -2.06743e-18)
(0.879981 0.342168 -2.75416e-18)
(0.233897 0.276414 -1.12159e-19)
(0.496736 0.561808 -7.99152e-20)
(0.641471 0.651244 3.85025e-20)
(0.711481 0.635771 1.24259e-18)
(0.74811 0.581165 -5.11858e-19)
(0.773821 0.521004 7.84768e-19)
(0.796306 0.465833 1.43686e-18)
(0.817474 0.416746 -7.58136e-19)
(0.839514 0.371954 -1.97834e-18)
(0.858337 0.332449 2.74962e-18)
(0.217785 0.276717 1.01633e-18)
(0.462186 0.556033 1.34612e-18)
(0.600471 0.639648 -1.29374e-18)
(0.670855 0.621346 -1.15105e-18)
(0.710929 0.566329 4.05625e-18)
(0.740793 0.506849 -4.13465e-18)
(0.767185 0.452622 4.96278e-18)
(0.791924 0.404455 -1.2498e-18)
(0.81682 0.360654 1.34187e-18)
(0.837396 0.322195 2.51224e-18)
(0.200955 0.274742 2.25988e-18)
(0.427123 0.546309 -1.31175e-18)
(0.559525 0.624115 -7.8895e-19)
(0.630694 0.60354 -4.39485e-19)
(0.674381 0.548668 4.9425e-19)
(0.708421 0.490303 -1.07491e-18)
(0.738693 0.437351 -1.48528e-18)
(0.766895 0.390372 -3.2352e-18)
(0.794514 0.347786 3.21316e-18)
(0.817137 0.310561 -1.04745e-18)
(0.183661 0.270463 6.86321e-19)
(0.39196 0.532668 -2.94365e-19)
(0.519025 0.604713 -1.10865e-18)
(0.591317 0.582416 1.43154e-18)
(0.638721 0.528234 -2.57722e-18)
(0.676909 0.471407 6.90033e-18)
(0.710994 0.420065 -3.68385e-18)
(0.742548 0.374568 3.34719e-18)
(0.772819 0.333479 -6.15754e-18)
(0.797645 0.297677 -1.64116e-18)
(0.166154 0.263882 -7.7919e-19)
(0.357097 0.515182 2.59578e-18)
(0.47935 0.581539 6.10697e-19)
(0.553032 0.558063 -1.33061e-18)
(0.604194 0.505097 -2.29926e-18)
(0.646458 0.450217 -1.74672e-18)
(0.684252 0.400809 1.16966e-18)
(0.719037 0.357078 -3.01197e-18)
(0.751883 0.317727 1.48804e-18)
(0.778981 0.2835 2.02143e-19)
(0.148681 0.255028 -4.25337e-18)
(0.322925 0.493955 -1.04587e-18)
(0.440861 0.554719 -2.87937e-19)
(0.516136 0.530592 3.62324e-18)
(0.571036 0.479346 -3.42369e-18)
(0.617263 0.426807 8.01364e-19)
(0.658634 0.379649 -4.22483e-19)
(0.696514 0.33796 2.93561e-18)
(0.731844 0.300573 8.99221e-19)
(0.761228 0.268068 -1.8656e-18)
(0.131487 0.243957 3.75897e-18)
(0.289817 0.469125 -2.13559e-18)
(0.403906 0.524404 1.06025e-19)
(0.48091 0.500136 -3.29075e-18)
(0.539475 0.451091 4.02555e-18)
(0.589512 0.401267 -1.79141e-18)
(0.634299 0.356662 1.07492e-18)
(0.675122 0.317277 7.79353e-20)
(0.712826 0.282064 -3.63229e-19)
(0.744469 0.251428 -1.12309e-18)
(0.114806 0.230748 -1.53028e-18)
(0.258129 0.440859 4.42936e-18)
(0.368811 0.490774 2.49871e-18)
(0.447622 0.46685 4.09685e-18)
(0.509726 0.420459 -9.52609e-19)
(0.563385 0.373704 3.8164e-19)
(0.611401 0.33194 2.9549e-18)
(0.654996 0.295106 -3.00015e-18)
(0.694947 0.262261 6.63564e-20)
(0.728786 0.233644 -1.34291e-18)
(0.0988619 0.215503 -3.51655e-18)
(0.228193 0.409355 -2.58964e-19)
(0.335883 0.454031 -1.46716e-18)
(0.41652 0.430908 -6.59336e-18)
(0.481994 0.387594 -6.38568e-18)
(0.539051 0.344239 1.06658e-18)
(0.590086 0.305587 -3.58448e-18)
(0.636264 0.271533 6.33057e-18)
(0.678315 0.241237 9.18095e-19)
(0.714258 0.214788 1.93273e-18)
(0.0838658 0.198347 5.16282e-18)
(0.20032 0.374838 -4.2245e-18)
(0.305405 0.4144 -2.14763e-18)
(0.387838 0.392503 3.81126e-18)
(0.456466 0.352657 4.34361e-18)
(0.51667 0.313007 -1.44232e-18)
(0.57049 0.277717 1.75333e-18)
(0.619044 0.246656 -2.30292e-18)
(0.663033 0.219076 -2.97034e-18)
(0.700959 0.194941 1.1423e-18)
(0.0700132 0.179425 -2.93676e-18)
(0.174797 0.337555 1.23701e-18)
(0.277637 0.372127 4.55226e-18)
(0.361788 0.351847 -2.04538e-18)
(0.433318 0.315824 1.61526e-19)
(0.496389 0.280158 5.81005e-18)
(0.552739 0.24846 -5.62975e-19)
(0.603445 0.220584 -4.53957e-18)
(0.649196 0.195871 5.20812e-18)
(0.688957 0.174193 -1.92748e-18)
(0.0574829 0.1589 4.06805e-18)
(0.151881 0.297778 4.498e-19)
(0.252813 0.327477 2.95142e-19)
(0.338561 0.309165 4.16415e-18)
(0.412705 0.277283 -5.55803e-19)
(0.47834 0.245853 -3.64502e-18)
(0.536946 0.217951 1.78995e-18)
(0.589568 0.193434 3.32848e-19)
(0.63689 0.171726 -2.16419e-18)
(0.678314 0.152638 3.80052e-19)
(0.0464349 0.136951 -2.53693e-18)
(0.131803 0.255799 -4.87546e-18)
(0.231141 0.280732 1.12751e-18)
(0.318328 0.264697 -2.21128e-18)
(0.39477 0.237238 -1.33828e-18)
(0.462643 0.210262 3.24961e-18)
(0.523214 0.186339 -7.86776e-19)
(0.577501 0.165331 7.29119e-19)
(0.626192 0.146751 -8.89678e-19)
(0.669086 0.130374 1.78061e-18)
(0.0370088 0.113772 9.18691e-19)
(0.11476 0.211926 3.28407e-18)
(0.212801 0.232188 -4.56569e-18)
(0.301237 0.218698 2.16194e-18)
(0.379634 0.1959 -9.86865e-19)
(0.4494 0.173568 -2.78369e-18)
(0.511632 0.153778 2.2772e-18)
(0.567322 0.13641 4.79435e-19)
(0.61717 0.121062 -7.29994e-20)
(0.661322 0.107505 -2.06991e-18)
(0.0293232 0.0895703 3.01165e-19)
(0.100922 0.166484 1.05908e-18)
(0.197945 0.182155 4.13301e-18)
(0.287413 0.171431 -7.94354e-19)
(0.3674 0.153491 -6.27199e-19)
(0.438699 0.135959 2.32155e-19)
(0.502274 0.120431 1.02783e-19)
(0.559099 0.106811 8.51787e-19)
(0.609882 0.0947812 -1.12207e-18)
(0.655061 0.084137 -7.20378e-19)
(0.0234739 0.0645618 -7.52356e-19)
(0.0904236 0.119807 -1.28879e-18)
(0.186695 0.130953 -3.21497e-18)
(0.276956 0.123168 1.61953e-18)
(0.358151 0.110242 1.32299e-18)
(0.430611 0.0976311 5.60017e-20)
(0.495202 0.0864673 -2.22263e-18)
(0.552884 0.0766778 -9.89597e-19)
(0.604375 0.068036 7.85675e-19)
(0.650336 0.0603787 8.49117e-19)
(0.0195337 0.0389715 -1.41802e-19)
(0.0833675 0.0722412 -1.55018e-19)
(0.179143 0.0789098 6.10111e-19)
(0.269943 0.0741886 -4.13962e-19)
(0.351949 0.0663886 -3.65695e-19)
(0.425189 0.0587865 -2.48325e-19)
(0.490461 0.052059 4.57311e-19)
(0.548717 0.0461611 1.74608e-18)
(0.600684 0.0409562 2.53369e-19)
(0.647173 0.03634 -4.53618e-19)
(0.0175513 0.0130297 -1.6666e-20)
(0.0798222 0.0241401 4.16309e-19)
(0.175352 0.0263597 3.19856e-19)
(0.266423 0.0247776 -2.49972e-19)
(0.348838 0.0221701 3.24846e-19)
(0.422469 0.0196302 1.26198e-19)
(0.488083 0.0173828 7.43091e-21)
(0.546627 0.0154128 -5.71867e-19)
(0.598833 0.0136746 1.49999e-19)
(0.645587 0.0121322 -3.50697e-19)
(0.0175513 -0.0130297 9.33103e-20)
(0.0798222 -0.0241401 3.12556e-19)
(0.175352 -0.0263598 3.39081e-19)
(0.266423 -0.0247777 -2.01823e-19)
(0.348838 -0.0221702 3.32958e-19)
(0.422469 -0.0196303 -5.10805e-21)
(0.488083 -0.0173829 1.369e-19)
(0.546627 -0.0154129 -6.36682e-19)
(0.598833 -0.0136746 1.31724e-19)
(0.645587 -0.0121322 -3.03849e-19)
(0.0195337 -0.0389715 -7.33984e-20)
(0.0833675 -0.0722413 -4.35552e-19)
(0.179143 -0.0789099 1.1909e-18)
(0.269943 -0.0741887 -1.04667e-18)
(0.351949 -0.0663887 -4.93315e-20)
(0.425189 -0.0587866 -6.98237e-19)
(0.490461 -0.0520591 1.13725e-18)
(0.548717 -0.0461611 1.55009e-18)
(0.600684 -0.0409562 2.77895e-19)
(0.647173 -0.03634 -6.0344e-19)
(0.0234739 -0.0645619 -1.52765e-19)
(0.0904236 -0.119807 -1.12394e-18)
(0.186695 -0.130953 -2.61392e-18)
(0.276956 -0.123168 2.26529e-18)
(0.358151 -0.110242 4.68609e-19)
(0.430611 -0.0976311 4.14897e-19)
(0.495202 -0.0864673 -2.04645e-18)
(0.552884 -0.0766778 -1.20848e-18)
(0.604375 -0.068036 -2.69386e-19)
(0.650336 -0.0603787 1.86414e-18)
(0.0293232 -0.0895703 -5.3883e-19)
(0.100922 -0.166484 6.75898e-19)
(0.197945 -0.182155 4.74288e-18)
(0.287413 -0.171431 -4.25576e-19)
(0.3674 -0.153491 -1.2204e-18)
(0.438699 -0.135959 8.78312e-19)
(0.502274 -0.120431 5.95998e-20)
(0.559099 -0.106811 3.11108e-19)
(0.609882 -0.0947812 -6.81639e-19)
(0.655061 -0.084137 -1.81842e-18)
(0.0370088 -0.113772 -3.64638e-19)
(0.11476 -0.211927 1.98087e-18)
(0.212801 -0.232188 -4.77801e-18)
(0.301237 -0.218698 2.07375e-18)
(0.379634 -0.1959 1.91742e-20)
(0.4494 -0.173568 -2.6371e-18)
(0.511632 -0.153778 1.16637e-18)
(0.567323 -0.13641 -1.09023e-19)
(0.61717 -0.121062 4.44094e-19)
(0.661322 -0.107505 -1.3648e-19)
(0.0464349 -0.136951 -4.17825e-18)
(0.131803 -0.255799 -4.98928e-18)
(0.231141 -0.280732 1.3057e-18)
(0.318328 -0.264697 -2.37529e-18)
(0.39477 -0.237238 -6.74476e-19)
(0.462643 -0.210262 1.00414e-18)
(0.523214 -0.186339 3.73299e-19)
(0.577501 -0.165331 1.39316e-18)
(0.626192 -0.146751 -3.00378e-19)
(0.669086 -0.130374 1.63003e-18)
(0.0574829 -0.1589 3.99717e-18)
(0.151881 -0.297778 2.56579e-18)
(0.252813 -0.327477 -1.94749e-18)
(0.338561 -0.309165 3.2798e-18)
(0.412705 -0.277283 -2.83718e-19)
(0.47834 -0.245853 -3.55622e-18)
(0.536946 -0.217951 6.2458e-19)
(0.589568 -0.193434 2.49306e-19)
(0.63689 -0.171726 -1.55802e-18)
(0.678314 -0.152638 3.80117e-19)
(0.0700132 -0.179425 -2.98389e-18)
(0.174797 -0.337555 5.33669e-18)
(0.277637 -0.372127 2.09074e-18)
(0.361788 -0.351847 -2.58253e-18)
(0.433318 -0.315824 1.85545e-20)
(0.496389 -0.280159 6.55863e-18)
(0.552739 -0.24846 -1.99485e-18)
(0.603445 -0.220584 -1.29178e-18)
(0.649196 -0.195871 3.11924e-18)
(0.688957 -0.174193 -1.59518e-18)
(0.0838658 -0.198347 1.67335e-18)
(0.20032 -0.374838 -7.9917e-19)
(0.305405 -0.4144 -1.89787e-18)
(0.387838 -0.392503 1.43764e-18)
(0.456466 -0.352657 5.50355e-18)