/*--------------------------------*- C++ -*----------------------------------*\
  =========                 |
  \\      /  F ield         | OpenFOAM: The Open Source CFD Toolbox
   \\    /   O peration     | Website:  https://openfoam.org
    \\  /    A nd           | Version:  7
     \\/     M anipulation  |
\*---------------------------------------------------------------------------*/
FoamFile
{
    version     2.0;
    format      ascii;
    class       volVectorField;
    location    "26.0007";
    object      U;
}
// * * * * * * * * * * * * * * * * * * * * * * * * * * * * * * * * * * * * * //

dimensions      [0 1 -1 0 0 0 0];

internalField   nonuniform List<vector> 
18750
(
(-0.03634 0.0209368 -6.42298e-21)
(-0.128521 0.0254075 2.28871e-21)
(-0.228299 0.0234288 2.65632e-20)
(-0.315633 0.0217364 6.30761e-21)
(-0.402137 0.020136 -1.57513e-20)
(-0.482941 0.0186587 -3.86143e-20)
(-0.561444 0.017261 4.04777e-20)
(-0.635639 0.0159557 2.70275e-20)
(-0.707231 0.0147368 -2.04417e-20)
(-0.775206 0.013625 -5.52296e-20)
(-0.840654 0.0126201 2.11964e-19)
(-0.902832 0.0117203 -1.75937e-19)
(-0.962295 0.0109099 1.05371e-19)
(-1.01828 0.0102062 -2.0827e-19)
(-1.07109 0.00965935 4.84787e-20)
(-0.0378762 0.0664661 3.80856e-21)
(-0.129745 0.0814404 7.22045e-21)
(-0.228504 0.0760506 4.13377e-21)
(-0.31487 0.0716345 4.30182e-20)
(-0.400381 0.0675603 9.01824e-20)
(-0.480168 0.063852 1.2219e-19)
(-0.557574 0.0603385 -1.05474e-19)
(-0.630572 0.0570194 1.74312e-19)
(-0.700826 0.0538525 1.63943e-19)
(-0.767309 0.050879 -5.33741e-20)
(-0.831096 0.0480856 -2.24946e-19)
(-0.891438 0.0454506 1.08667e-20)
(-0.948848 0.0429134 5.09035e-20)
(-1.00249 0.040518 1.3563e-19)
(-1.05259 0.0384377 -2.08835e-19)
(-0.0409225 0.110938 1.27142e-20)
(-0.132192 0.136571 2.09694e-20)
(-0.228933 0.127948 -6.69393e-20)
(-0.313376 0.120878 5.49911e-21)
(-0.396924 0.114385 -1.67224e-19)
(-0.474701 0.108475 5.58956e-20)
(-0.549949 0.102858 -1.6063e-19)
(-0.620598 0.0975237 -1.84147e-20)
(-0.688236 0.092396 -1.25653e-19)
(-0.751811 0.0875384 3.81165e-19)
(-0.81238 0.0829325 5.09769e-19)
(-0.869192 0.0785535 4.5286e-19)
(-0.922691 0.0743095 2.67912e-19)
(-0.971909 0.0702596 1.82588e-19)
(-1.01697 0.0666527 -3.41759e-19)
(-0.0453671 0.153662 -7.17444e-20)
(-0.135786 0.190206 8.72496e-20)
(-0.229568 0.178648 -6.68609e-20)
(-0.311183 0.169043 -1.43557e-19)
(-0.391863 0.160226 2.52697e-19)
(-0.466723 0.152164 -2.3718e-19)
(-0.538858 0.144467 3.55551e-19)
(-0.60615 0.137116 -3.04065e-19)
(-0.670086 0.130008 2.1653e-19)
(-0.729588 0.123229 -5.33865e-19)
(-0.7857 0.116767 -7.7243e-19)
(-0.837689 0.110617 4.28606e-20)
(-0.885945 0.104676 -1.48764e-19)
(-0.929354 0.0990019 -3.26486e-19)
(-0.967902 0.0938593 1.25391e-18)
(-0.0510466 0.193984 -5.71144e-20)
(-0.14041 0.241771 1.30475e-19)
(-0.230378 0.227699 2.92227e-20)
(-0.308331 0.215737 1.1271e-19)
(-0.385328 0.204732 -1.54224e-19)
(-0.456472 0.194597 6.70234e-20)
(-0.52468 0.18486 8.44206e-19)
(-0.587789 0.175504 1.33028e-19)
(-0.647173 0.166406 2.38234e-19)
(-0.701734 0.157678 -8.48404e-20)
(-0.752515 0.149328 7.17314e-20)
(-0.798841 0.141391 -3.0604e-20)
(-0.841087 0.13378 -8.47569e-19)
(-0.878014 0.126545 -4.77708e-19)
(-0.909463 0.119907 -1.41998e-18)
(-0.0577745 0.231326 1.28998e-19)
(-0.145931 0.290713 4.62851e-20)
(-0.231315 0.274681 -6.32618e-20)
(-0.304855 0.260609 -4.69761e-20)
(-0.377468 0.247596 5.33305e-20)
(-0.444226 0.2355 -7.14943e-19)
(-0.507848 0.223789 -9.13707e-20)
(-0.566141 0.212463 4.5726e-20)
(-0.620364 0.201387 -3.50549e-19)
(-0.669412 0.190705 -4.85518e-19)
(-0.714341 0.180456 3.5755e-19)
(-0.754574 0.17074 -3.56531e-19)
(-0.79053 0.161506 1.11418e-18)
(-0.820897 0.1528 -8.77114e-19)
(-0.845364 0.14476 1.93623e-18)
(-0.0653397 0.265143 -1.18328e-19)
(-0.152166 0.336493 -2.00563e-19)
(-0.232285 0.319228 8.33266e-20)
(-0.300781 0.303358 6.31296e-19)
(-0.368433 0.288561 6.47311e-19)
(-0.430269 0.274649 -2.28748e-19)
(-0.488803 0.261064 1.17888e-19)
(-0.541832 0.24783 7.74393e-20)
(-0.590508 0.234818 7.59221e-19)
(-0.633735 0.222211 1.0573e-18)
(-0.672587 0.210087 -5.16041e-19)
(-0.706623 0.198626 -1.0018e-18)
(-0.736364 0.187841 -1.87525e-18)
(-0.760495 0.177789 3.26693e-19)
(-0.778547 0.168498 -2.36909e-18)
(-0.0734902 0.294865 -1.07168e-19)
(-0.158903 0.378655 -1.26166e-19)
(-0.233167 0.361044 -9.16035e-19)
(-0.296123 0.343738 3.30698e-19)
(-0.358367 0.327419 -3.86606e-19)
(-0.414878 0.311876 2.68005e-19)
(-0.467968 0.296551 2.90927e-19)
(-0.51545 0.281505 -1.26956e-18)
(-0.558384 0.266634 -8.52813e-19)
(-0.595693 0.252169 -1.45276e-18)
(-0.628469 0.238235 -2.41465e-19)
(-0.656427 0.225101 1.06463e-18)
(-0.680241 0.212863 4.20091e-18)
(-0.698658 0.201616 -6.4834e-19)
(-0.711047 0.191271 1.16058e-18)
(-0.0819063 0.319929 5.76203e-19)
(-0.165879 0.416793 2.32921e-19)
(-0.233824 0.399904 1.00862e-18)
(-0.290887 0.381562 -7.44113e-19)
(-0.347398 0.364012 3.57347e-19)
(-0.398303 0.347061 -6.01413e-19)
(-0.445726 0.330166 -1.39554e-18)
(-0.487518 0.313439 1.24814e-18)
(-0.524659 0.296823 1.51045e-19)
(-0.556109 0.280604 2.17314e-18)
(-0.582966 0.264963 -7.13404e-19)
(-0.605092 0.250256 -3.25231e-18)
(-0.623342 0.236682 -1.99796e-18)
(-0.636597 0.224399 2.10478e-19)
(-0.644057 0.213221 -9.82815e-19)
(-0.0902188 0.339877 -4.82077e-19)
(-0.172801 0.450614 -2.73776e-19)
(-0.23412 0.435636 3.57024e-19)
(-0.285065 0.416691 5.55064e-20)
(-0.335634 0.398229 -1.40578e-19)
(-0.380767 0.380131 -1.63874e-19)
(-0.42241 0.361873 6.3637e-19)
(-0.458478 0.34363 -7.65798e-19)
(-0.489883 0.325412 7.58247e-19)
(-0.515635 0.307579 9.58226e-19)
(-0.536816 0.290368 -1.7081e-18)
(-0.553412 0.27422 3.25366e-18)
(-0.566447 0.259438 3.82545e-19)
(-0.574994 0.246278 5.28107e-19)
(-0.57811 0.234483 1.21733e-18)
(-0.0979838 0.354223 9.14395e-19)
(-0.179303 0.47977 -3.00313e-19)
(-0.233889 0.468124 -1.3338e-18)
(-0.278645 0.44903 5.33138e-19)
(-0.32316 0.430003 -3.08539e-19)
(-0.362447 0.411049 3.63052e-19)
(-0.398294 0.391665 2.7285e-18)
(-0.428687 0.372103 1.32677e-18)
(-0.454484 0.352458 8.86541e-19)
(-0.474751 0.333172 -2.98159e-18)
(-0.490539 0.314555 3.27981e-18)
(-0.501906 0.297117 1.21156e-18)
(-0.510005 0.281254 -1.95967e-18)
(-0.514133 0.267342 2.38262e-18)
(-0.513287 0.255103 -8.33793e-20)
(-0.104752 0.362754 1.9277e-19)
(-0.185051 0.504211 4.58969e-20)
(-0.232999 0.497273 -9.41028e-20)
(-0.271604 0.478521 -9.5347e-19)
(-0.310033 0.459301 1.91302e-18)
(-0.343491 0.439815 -9.80406e-19)
(-0.373602 0.419572 -2.89806e-18)
(-0.398429 0.398915 9.02264e-19)
(-0.418781 0.378034 -1.438e-18)
(-0.433796 0.357477 2.24325e-18)
(-0.444472 0.337631 -4.06765e-18)
(-0.450894 0.319067 3.218e-19)
(-0.454257 0.302248 1.75059e-18)
(-0.45408 0.287668 -3.68952e-18)
(-0.449476 0.275106 -8.70213e-19)
(-0.109845 0.36479 -6.09166e-19)
(-0.189607 0.523633 1.74376e-19)
(-0.231272 0.522993 5.4211e-19)
(-0.2639 0.505134 -2.61448e-20)
(-0.296296 0.486135 -2.61673e-18)
(-0.324006 0.46645 2.50738e-19)
(-0.348497 0.445627 9.43681e-19)
(-0.367912 0.424119 -2.58317e-18)
(-0.383007 0.402218 1.95854e-18)
(-0.392991 0.380578 -1.80979e-18)
(-0.39881 0.359683 4.97705e-18)
(-0.400531 0.340163 -2.07874e-18)
(-0.399296 0.322507 2.54722e-18)
(-0.394778 0.307295 5.18691e-18)
(-0.386412 0.294436 2.25218e-18)
(-0.112716 0.360788 -2.44154e-19)
(-0.192679 0.538266 -7.03188e-21)
(-0.228675 0.545126 -1.94749e-20)
(-0.255489 0.528886 -6.27324e-20)
(-0.281963 0.510534 -1.28644e-18)
(-0.304083 0.490993 -5.75172e-19)
(-0.323116 0.469897 9.29405e-19)
(-0.337295 0.447801 5.68946e-19)
(-0.347322 0.425098 -3.31244e-18)
(-0.352477 0.402563 -1.87642e-19)
(-0.353643 0.380791 -9.76569e-19)
(-0.350872 0.360477 2.00431e-18)
(-0.345187 0.342122 -2.8128e-18)
(-0.336217 0.326294 -3.97333e-19)
(-0.323882 0.312936 -2.54761e-18)
(-0.113025 0.350956 1.095e-18)
(-0.193801 0.547574 -9.77553e-19)
(-0.225028 0.563579 -1.32418e-18)
(-0.246281 0.549821 2.36456e-18)
(-0.26706 0.53256 2.08898e-18)
(-0.283779 0.513494 2.68921e-18)
(-0.297543 0.492421 1.1682e-19)
(-0.306683 0.470008 1.86253e-18)
(-0.311835 0.446735 2.51121e-18)
(-0.312334 0.423503 3.77551e-18)
(-0.309001 0.40101 -1.75755e-18)
(-0.301881 0.380047 3.71942e-18)
(-0.291892 0.361137 -1.78307e-20)
(-0.278468 0.344712 -1.89734e-18)
(-0.261372 0.3306 -4.7438e-18)
(-0.110554 0.335247 -6.97205e-19)
(-0.192667 0.551264 1.07991e-18)
(-0.220178 0.578365 7.21781e-19)
(-0.236237 0.568027 -2.23531e-18)
(-0.251583 0.55226 -1.04291e-18)
(-0.263157 0.533998 -1.92541e-19)
(-0.271863 0.51328 -1.43102e-18)
(-0.276162 0.490825 -2.46299e-18)
(-0.276615 0.467206 -4.23103e-18)
(-0.272615 0.443466 -1.84842e-18)
(-0.264894 0.420403 2.61266e-18)
(-0.253478 0.398901 -5.47943e-18)
(-0.239335 0.379551 1.93705e-19)
(-0.221778 0.362684 3.52252e-18)
(-0.198695 0.347585 5.09106e-18)
(-0.105111 0.313609 -1.68629e-18)
(-0.189059 0.549198 1.3045e-18)
(-0.213956 0.589439 -2.24973e-18)
(-0.225375 0.583607 -1.08764e-18)
(-0.235587 0.569716 -5.98643e-20)
(-0.24226 0.552581 1.50316e-18)
(-0.246128 0.532499 2.44455e-18)
(-0.245786 0.510253 8.15349e-19)
(-0.241708 0.486534 1.19212e-18)
(-0.233337 0.46249 -3.38245e-18)
(-0.221324 0.439004 9.79634e-20)
(-0.205628 0.417052 -2.63948e-18)
(-0.187238 0.397337 -1.95775e-18)
(-0.16616 0.380087 -5.63847e-18)
(-0.136185 0.364558 -6.8692e-20)
(-0.0966224 0.286198 1.48365e-18)
(-0.182863 0.541245 2.36224e-19)
(-0.206264 0.596636 3.45824e-19)
(-0.213673 0.596534 2.69272e-18)
(-0.219128 0.585021 1.14276e-18)
(-0.221182 0.569326 -1.40125e-18)
(-0.220431 0.550144 1.1098e-18)
(-0.215624 0.528362 -6.49116e-19)
(-0.207154 0.504766 -1.30967e-18)
(-0.194519 0.480604 1.48336e-18)
(-0.178295 0.456856 -5.06475e-18)
(-0.158305 0.434547 -2.1432e-19)
(-0.135596 0.414545 -2.90887e-18)
(-0.111291 0.396868 4.50662e-18)
(-0.0745015 0.381825 4.19158e-19)
(-0.0852731 0.253418 -5.70621e-19)
(-0.174081 0.527176 -1.59528e-18)
(-0.197097 0.599672 4.17319e-19)
(-0.201148 0.606722 -3.11327e-18)
(-0.202245 0.598169 -2.12484e-18)
(-0.199969 0.584227 -1.20385e-18)
(-0.194857 0.566224 -2.11507e-18)
(-0.185755 0.545151 2.05527e-18)
(-0.173025 0.521915 2.91222e-18)
(-0.156189 0.49783 5.72019e-18)
(-0.135823 0.473981 -2.65457e-19)
(-0.111548 0.451433 6.51949e-18)
(-0.0841692 0.431111 2.57453e-18)
(-0.057355 0.413157 2.03331e-18)
(-0.0124362 0.399678 -4.5003e-18)
(-0.0716724 0.215916 9.84115e-19)
(-0.162854 0.506609 2.43016e-18)
(-0.186508 0.598081 1.66413e-18)
(-0.187869 0.613995 2.17137e-18)
(-0.185002 0.60914 5.75988e-21)
(-0.1787 0.597268 8.57521e-19)
(-0.169468 0.58071 2.18882e-20)
(-0.156272 0.560603 -1.58731e-18)
(-0.139387 0.537943 2.49822e-18)
(-0.118389 0.514116 -8.75089e-18)
(-0.0939237 0.49035 2.57488e-18)
(-0.0654952 0.467712 -1.7069e-18)
(-0.0327219 0.447104 3.36472e-19)
(-0.00455242 0.428911 -2.57526e-18)
(0.050427 0.418145 -2.91754e-18)
(-0.0570593 0.174623 -1.60651e-18)
(-0.149484 0.478968 2.13813e-18)
(-0.174572 0.591177 -5.31342e-19)
(-0.173925 0.618045 -9.23227e-19)
(-0.167519 0.617857 1.93004e-18)
(-0.157464 0.608432 2.04152e-19)
(-0.144378 0.593547 -5.76609e-19)
(-0.12725 0.57463 -6.78279e-20)
(-0.106362 0.55279 -1.61261e-18)
(-0.0811899 0.529403 4.20054e-18)
(-0.0525444 0.505849 2.59143e-18)
(-0.0204186 0.483411 1.3795e-18)
(0.0190588 0.462512 -1.30109e-19)
(0.0467304 0.443427 3.32e-18)
(0.114469 0.437985 -3.00917e-19)
(-0.0433439 0.131071 4.70545e-19)
(-0.134411 0.443475 -5.08002e-19)
(-0.16134 0.578054 4.01689e-19)
(-0.159412 0.618372 1.70955e-18)
(-0.149925 0.624146 -1.09326e-18)
(-0.136432 0.617623 -7.16003e-19)
(-0.119686 0.60467 -1.34459e-18)
(-0.098841 0.587162 1.06596e-18)
(-0.0740633 0.566307 -1.11471e-18)
(-0.0447774 0.543526 -1.29419e-18)
(-0.0115834 0.520288 -2.23709e-18)
(0.0233025 0.498344 -1.30294e-18)
(0.0714363 0.477718 4.79252e-18)
(0.0961475 0.455849 -6.60604e-18)
(0.179916 0.459033 -1.78281e-19)
(-0.0322254 0.0879486 2.01506e-18)
(-0.118112 0.39924 -7.79989e-19)
(-0.146817 0.557672 -2.02833e-18)
(-0.144398 0.614237 -5.41984e-19)
(-0.132385 0.627632 2.86845e-18)
(-0.115735 0.624724 -6.08398e-20)
(-0.0956284 0.613955 1.40076e-18)
(-0.0711566 0.598017 -7.70072e-19)
(-0.0426857 0.578356 -3.02016e-18)
(-0.00947436 0.556387 7.03158e-18)
(0.0291745 0.533389 -5.19968e-18)
(0.0651465 0.512163 1.54902e-18)
(0.124813 0.493075 -6.8249e-18)
(0.142747 0.464827 2.41461e-18)
(0.246607 0.480896 1.99013e-18)
(-0.0236332 0.0489866 -7.1751e-19)
(-0.100867 0.345578 -2.30846e-18)
(-0.130964 0.528978 1.04397e-18)
(-0.12895 0.604593 1.84812e-19)
(-0.115025 0.627728 -2.58179e-18)
(-0.0956172 0.629416 1.60095e-18)
(-0.0723356 0.621294 8.4344e-20)
(-0.044527 0.607077 -3.94354e-19)
(-0.0122664 0.588593 -3.09381e-18)
(0.0240723 0.567732 -3.58313e-19)
(0.0699122 0.544946 4.14909e-18)
(0.104471 0.52389 3.50631e-19)
(0.179799 0.510423 9.89479e-19)
(0.18662 0.469818 2.85207e-18)
(0.312299 0.499136 -7.28142e-18)
(-0.0157333 0.0176713 -1.09139e-18)
(-0.0829124 0.282777 3.42774e-20)
(-0.113756 0.49099 -1.32394e-18)
(-0.113114 0.588059 1.07417e-18)
(-0.0980243 0.623493 1.4612e-18)
(-0.0761895 0.631336 -1.09776e-18)
(-0.0502046 0.626345 -1.90405e-19)
(-0.0191636 0.614095 -9.23647e-19)
(0.0170633 0.59685 2.31342e-18)
(0.0552253 0.577293 4.45743e-19)
(0.110768 0.554973 -6.0107e-18)
(0.140101 0.531234 1.64214e-18)
(0.236166 0.529606 1.02351e-18)
(0.229817 0.476426 -4.61068e-18)
(0.376135 0.510572 1.04944e-18)
(-0.00710795 -0.00406784 2.46972e-19)
(-0.0651605 0.213486 6.63682e-19)
(-0.0954215 0.442714 1.23975e-18)
(-0.0969591 0.56293 -1.04909e-18)
(-0.0814961 0.613705 -4.20997e-20)
(-0.0578312 0.629694 2.65519e-18)
(-0.0292291 0.628908 -1.23224e-19)
(0.00407842 0.618823 -4.16868e-21)
(0.0456051 0.602449 3.75329e-18)
(0.0829083 0.584332 -2.15389e-18)
(0.152086 0.564903 1.5463e-18)
(0.171575 0.53255 -4.36977e-18)
(0.291372 0.545505 3.76846e-19)
(0.273599 0.487062 -1.16501e-18)
(0.43796 0.520037 2.00685e-18)
(0.00142374 -0.016288 -1.84908e-19)
(-0.0487027 0.144155 8.27433e-19)
(-0.0766376 0.383382 -1.10062e-18)
(-0.0805965 0.527293 2.31746e-18)
(-0.0656679 0.596694 -1.94909e-18)
(-0.0407082 0.623583 -1.74596e-18)
(-0.00997754 0.628002 -1.08758e-18)
(0.0249215 0.621086 -2.35031e-18)
(0.0729379 0.605644 -4.57147e-18)
(0.106734 0.586806 6.98295e-19)
(0.192835 0.57526 3.60776e-18)
(0.200307 0.530742 2.89835e-18)
(0.343471 0.552513 4.95118e-19)
(0.316481 0.497194 -2.42704e-18)
(0.497294 0.526406 -1.22615e-18)
(0.0080808 -0.021306 4.43181e-19)
(-0.0331018 0.0837496 7.76376e-19)
(-0.058097 0.313163 -3.31417e-18)
(-0.0643085 0.47947 -2.29109e-18)
(-0.0507103 0.570422 -6.75865e-20)
(-0.0255656 0.611312 1.83188e-18)
(0.00796861 0.623126 -6.72759e-19)
(0.0416323 0.619483 5.22381e-18)
(0.0995428 0.606462 4.36365e-19)
(0.125628 0.583672 -2.93903e-18)
(0.231966 0.58381 -2.77431e-18)
(0.226777 0.529511 -4.44206e-18)
(0.390786 0.552047 4.90113e-18)
(0.358418 0.502656 3.26365e-18)
(0.551022 0.526165 -9.1443e-21)
(0.0122489 -0.0222671 -1.23411e-18)
(-0.0172223 0.0388499 -2.28634e-18)
(-0.0404723 0.234369 1.64961e-18)
(-0.048558 0.418331 2.01937e-18)
(-0.0368956 0.532552 1.25563e-18)
(-0.0128947 0.590806 -1.27565e-18)
(0.0235038 0.612076 3.25809e-18)
(0.0551164 0.613854 -4.65608e-18)
(0.122678 0.605186 5.18664e-18)
(0.141408 0.572946 3.33511e-18)
(0.264393 0.586187 -1.03715e-18)
(0.256087 0.529627 -1.45948e-18)
(0.424868 0.54392 -1.96094e-18)
(0.404258 0.506802 -3.91912e-18)
(0.592973 0.513528 4.71454e-18)
(0.0143576 -0.0214393 3.47534e-18)
(-0.0020173 0.00975579 2.66671e-18)
(-0.0246846 0.155208 6.05769e-19)
(-0.0342108 0.344397 -3.53904e-20)
(-0.0245359 0.480522 -4.36308e-19)
(-0.00364436 0.559442 -5.13046e-19)
(0.0367765 0.59347 -2.54456e-18)
(0.0624551 0.598899 4.42524e-18)
(0.143904 0.603767 -3.46239e-18)
(0.153394 0.559327 -3.12106e-20)
(0.285115 0.572091 3.35517e-18)
(0.288987 0.532432 2.36439e-18)
(0.442676 0.52179 2.35732e-18)
(0.44806 0.512345 -2.5912e-20)
(0.629826 0.487844 -2.80409e-18)
(0.0153212 -0.0199976 -2.08548e-18)
(0.0105638 -0.00695487 -2.16388e-18)
(-0.00998944 0.0893705 6.71838e-19)
(-0.0219238 0.261778 -1.08746e-18)
(-0.0138687 0.413136 -5.13239e-19)
(0.0014552 0.513494 1.84519e-18)
(0.0458006 0.565362 -4.88245e-19)
(0.0669542 0.574508 -4.54974e-19)
(0.151116 0.58849 -1.39081e-18)
(0.17695 0.554401 -3.21693e-18)
(0.279334 0.543661 1.49409e-18)
(0.336751 0.52818 -1.77385e-18)
(0.430974 0.49971 -2.73289e-18)
(0.524059 0.503237 -1.23836e-18)
(0.59229 0.456755 4.9928e-18)
(0.0162486 -0.0184199 2.3509e-18)
(0.0204327 -0.0154545 -1.84751e-18)
(0.00494216 0.0445952 -3.03764e-18)
(-0.0108865 0.180404 3.11225e-19)
(-0.00524455 0.332449 7.29775e-19)
(0.00289112 0.451084 -5.13021e-19)
(0.0476983 0.522318 1.39846e-18)
(0.0686435 0.541009 2.93556e-19)
(0.147871 0.559876 -2.03641e-19)
(0.188799 0.530971 1.08207e-19)
(0.284965 0.53367 -1.55039e-18)
(0.342471 0.481101 2.0203e-19)
(0.462572 0.508469 8.77749e-19)
(0.502557 0.438476 -6.91357e-19)
(0.657223 0.47651 4.69025e-18)
(0.0179058 -0.0170626 4.9324e-19)
(0.0289209 -0.0192658 -1.0589e-18)
(0.0193719 0.0185515 2.95485e-18)
(0.000618782 0.113547 2.28658e-18)
(0.00145102 0.24729 -2.29222e-18)
(0.00105925 0.373268 -1.53957e-19)
(0.0421146 0.463079 -1.05189e-18)
(0.064035 0.489404 -4.04031e-19)
(0.135126 0.523638 2.88022e-18)
(0.194253 0.484466 1.46654e-18)
(0.269516 0.509207 2.01651e-18)
(0.372213 0.442706 -1.60021e-18)
(0.442613 0.482622 1.08101e-18)
(0.529496 0.396245 -6.19249e-19)
(0.674283 0.471638 -5.9823e-18)
(0.0205602 -0.0162824 3.93679e-19)
(0.0368061 -0.0209846 6.32612e-19)
(0.0316959 0.00448273 -1.62692e-18)
(0.012651 0.0679394 -1.85566e-18)
(0.0061691 0.171074 -1.70311e-18)
(-0.00245397 0.287301 1.45883e-19)
(0.0277463 0.388693 1.22807e-18)
(0.0558274 0.421241 -2.2241e-18)
(0.104497 0.463183 -1.16969e-18)
(0.202514 0.439478 6.38311e-19)
(0.220177 0.435954 -1.8479e-18)
(0.416309 0.427714 1.8839e-19)
(0.353451 0.381921 1.28488e-18)
(0.622638 0.399212 -1.73774e-18)
(0.55311 0.367268 1.40856e-18)
(0.0240568 -0.0163228 -8.85925e-19)
(0.0438282 -0.0224839 2.01074e-18)
(0.0407378 -0.00414966 1.33023e-18)
(0.0223737 0.0394378 8.91732e-19)
(0.00843962 0.112065 1.45676e-18)
(-0.00769629 0.205222 -1.4666e-19)
(0.0076538 0.304131 -1.13835e-18)
(0.0382356 0.34162 2.49205e-19)
(0.0697682 0.381286 1.53605e-18)
(0.17906 0.371395 -2.43261e-18)
(0.186825 0.352373 -1.14125e-18)
(0.380222 0.35963 9.65972e-20)
(0.29102 0.272401 -3.64734e-19)
(0.632006 0.359343 2.07444e-18)
(0.426928 0.232115 -1.98851e-18)
(0.0277805 -0.0171314 9.66352e-19)
(0.0488982 -0.0248359 6.4492e-19)
(0.0453376 -0.0119455 -7.72077e-20)
(0.0265471 0.0189962 -5.7844e-19)
(0.00645193 0.0683288 1.29498e-19)
(-0.0171648 0.135064 -1.70636e-18)
(-0.0144802 0.218822 3.77181e-19)
(0.00710857 0.253139 -7.43355e-19)
(0.0366339 0.293506 -7.58823e-19)
(0.12705 0.269997 1.66378e-18)
(0.160368 0.271633 2.41972e-18)
(0.299641 0.249129 1.14242e-18)
(0.314104 0.224159 1.19635e-18)
(0.611485 0.299949 -1.56104e-18)
(0.610893 0.27985 -1.65314e-18)
(0.0307578 -0.01836 7.98901e-19)
(0.0505936 -0.0282783 -1.5209e-18)
(0.0441664 -0.0211645 -7.34732e-19)
(0.0230557 -4.57685e-05 -1.64388e-18)
(-0.00251791 0.0328197 7.40526e-19)
(-0.032749 0.0765322 1.80045e-18)
(-0.0403698 0.138987 -2.05878e-18)
(-0.032769 0.162029 7.16733e-19)
(-0.0029988 0.201143 1.34152e-18)
(0.0683346 0.161519 3.67219e-19)
(0.119128 0.173656 -1.56327e-18)
(0.284152 0.174258 -6.56414e-19)
(0.429766 0.230766 -1.1328e-21)
(0.720219 0.314008 9.19639e-19)
(0.893182 0.399499 3.65023e-18)
(0.0319032 -0.0194725 -1.29435e-18)
(0.0477562 -0.0323362 -1.2974e-18)
(0.0364952 -0.0319392 7.25504e-19)
(0.0112141 -0.0201458 2.92151e-18)
(-0.0200804 -0.00026031 -1.90126e-18)
(-0.0553885 0.0247246 5.37035e-19)
(-0.0739072 0.0653308 8.03951e-19)
(-0.0770245 0.0736813 -6.57553e-20)
(-0.0523144 0.104851 1.69846e-19)
(0.0212432 0.0680469 7.5265e-19)
(0.139912 0.105068 -6.89581e-19)
(0.394318 0.179197 -1.43776e-18)
(0.624412 0.276889 -1.32744e-18)
(0.894028 0.376057 1.10999e-18)
(1.01289 0.432364 3.60149e-19)
(0.0303154 -0.0198733 -3.18697e-19)
(0.0399091 -0.036086 2.56717e-18)
(0.0225901 -0.0431248 5.38026e-19)
(-0.00795437 -0.0407857 7.68575e-19)
(-0.0455842 -0.0326894 7.02937e-19)
(-0.0863599 -0.0222205 6.76931e-19)
(-0.116012 -0.0018435 -2.42498e-19)
(-0.122816 -0.00601879 4.41716e-19)
(-0.0878839 0.020583 2.19588e-19)
(0.0561749 0.0310951 9.68527e-19)
(0.293228 0.12189 4.01573e-20)
(0.580192 0.233256 9.95709e-19)
(0.8169 0.337259 -8.47528e-19)
(0.989134 0.401978 -8.52973e-19)
(1.07971 0.443011 5.9508e-19)
(0.0255497 -0.0190456 1.14879e-18)
(0.0273979 -0.0383293 -1.05437e-18)
(0.00374625 -0.0526073 1.06453e-19)
(-0.0322385 -0.059044 -1.56795e-18)
(-0.075885 -0.060817 -1.30415e-18)
(-0.122014 -0.0606184 2.25545e-18)
(-0.155551 -0.055098 6.545e-19)
(-0.142665 -0.0607475 -9.35619e-19)
(-0.047343 -0.0199885 2.57516e-19)
(0.211322 0.0666685 -2.63398e-18)
(0.503318 0.185736 9.03035e-19)
(0.758388 0.292515 -1.09839e-18)
(0.931894 0.367219 1.34565e-18)
(1.05511 0.415979 -1.429e-19)
(1.13521 0.453853 -8.66599e-19)
(0.0178473 -0.0166634 -1.79194e-18)
(0.0115044 -0.0378106 -1.82351e-18)
(-0.0175127 -0.0576933 -1.8745e-18)
(-0.0575085 -0.070252 -1.40837e-18)
(-0.103542 -0.0776305 9.51273e-19)
(-0.147669 -0.0809499 -3.87007e-18)
(-0.168351 -0.0781572 3.53268e-19)
(-0.102508 -0.0694494 3.52077e-19)
(0.0967633 0.00962756 1.89459e-19)
(0.417323 0.13548 1.23614e-18)
(0.687435 0.246216 -1.02293e-18)
(0.882067 0.329728 2.42335e-18)
(1.01545 0.387642 -5.23867e-19)
(1.10652 0.427476 -1.04665e-18)
(1.15259 0.447815 5.94045e-19)
(0.00813137 -0.012748 3.15952e-19)
(-0.00574329 -0.0337381 1.47762e-18)
(-0.0378346 -0.0561687 2.10661e-18)
(-0.0780057 -0.0708196 3.49859e-19)
(-0.119601 -0.0780277 1.68745e-18)
(-0.149996 -0.0765318 9.49761e-19)
(-0.141912 -0.0666144 2.97566e-19)
(0.00418692 -0.0303828 -1.53391e-18)
(0.29756 0.0869098 -9.51997e-20)
(0.601722 0.201976 6.69564e-19)
(0.824535 0.291973 2.52402e-18)
(0.976771 0.358661 -3.18054e-19)
(1.07381 0.402092 8.97328e-19)
(1.12895 0.426793 8.61358e-19)
(1.16794 0.443482 1.42827e-18)
(-0.00226404 -0.00773337 5.79502e-19)
(-0.0221918 -0.0262343 -1.93964e-18)
(-0.0543046 -0.0480349 -4.21861e-19)
(-0.089788 -0.0609856 2.47105e-20)
(-0.120196 -0.0633599 -3.14078e-18)
(-0.128266 -0.052875 8.18987e-19)
(-0.0804767 -0.0379135 -4.26768e-19)
(0.165449 0.0411648 5.07754e-19)
(0.487223 0.16096 1.69304e-18)
(0.751497 0.255552 -5.82641e-19)
(0.931379 0.328593 -1.96575e-18)
(1.04287 0.378373 -2.69405e-19)
(1.10659 0.406726 -3.05106e-19)
(1.14845 0.426974 -6.67423e-19)
(1.17611 0.43782 -1.53608e-18)
(-0.012014 -0.00235801 1.21057e-19)
(-0.0362688 -0.0165173 5.24954e-19)
(-0.0654534 -0.0352263 -1.35555e-18)
(-0.0923285 -0.0439844 5.70936e-19)
(-0.107057 -0.0396811 1.29908e-18)
(-0.0911337 -0.0219183 -5.62489e-19)
(0.0137114 0.000719044 -1.07727e-19)
(0.342706 0.115023 -1.34456e-18)
(0.648297 0.221451 2.79689e-19)
(0.870661 0.298993 -9.80779e-19)
(1.0072 0.355552 9.46637e-19)
(1.08547 0.389945 -7.84925e-19)
(1.13141 0.410872 1.39829e-18)
(1.15727 0.424125 -5.40727e-19)
(1.17625 0.429361 -1.13538e-18)
(-0.0201573 0.00258204 6.18271e-19)
(-0.0471932 -0.00623291 3.87248e-19)
(-0.0714395 -0.0205311 3.50084e-19)
(-0.087402 -0.0245541 8.84679e-20)
(-0.0847713 -0.0140602 5.88278e-19)
(-0.0450404 0.00152862 -1.43854e-18)
(0.146928 0.0579539 8.13479e-19)
(0.505836 0.177858 1.93973e-18)
(0.781428 0.271717 -2.02453e-19)
(0.95992 0.332384 1.47049e-18)
(1.06044 0.374584 8.88579e-19)
(1.1158 0.3981 1.49733e-19)
(1.14371 0.410824 2.95837e-19)
(1.16173 0.419946 5.71937e-19)
(1.17998 0.424054 1.33179e-18)
(-0.0262354 0.00648266 9.38042e-19)
(-0.0549222 0.00306618 1.337e-18)
(-0.0732531 -0.00661449 -1.204e-18)
(-0.0775914 -0.00650337 1.09623e-18)
(-0.0598808 0.00673825 -2.52778e-18)
(0.0162989 0.015008 6.31628e-19)
(0.310977 0.120795 -2.19939e-19)
(0.652305 0.232112 -1.2018e-18)
(0.886342 0.311309 -2.16426e-18)
(1.02517 0.357199 -8.29914e-19)
(1.09696 0.388192 -2.06373e-18)
(1.13269 0.401545 1.28794e-18)
(1.15185 0.410402 -1.75189e-18)
(1.16556 0.416902 1.20916e-18)
(1.1776 0.417006 8.38201e-19)
(-0.0302631 0.00904002 -2.22173e-18)
(-0.0598719 0.0102644 7.59545e-20)
(-0.0721429 0.0046242 1.60028e-19)
(-0.0653877 0.00833066 3.04281e-19)
(-0.0352946 0.0163924 1.72738e-19)
(0.110248 0.0441605 1.20904e-18)
(0.471844 0.177363 6.7147e-19)
(0.775099 0.276731 -1.92049e-19)
(0.965993 0.341616 9.70014e-19)
(1.07079 0.375314 6.31075e-19)
(1.11983 0.396724 2.91545e-19)
(1.14446 0.403728 -7.2832e-19)
(1.15631 0.409508 2.41768e-18)
(1.16517 0.412332 4.24668e-19)
(1.17725 0.411601 -8.96071e-19)
(-0.0326262 0.0102481 2.04171e-18)
(-0.0627236 0.0147802 -1.45961e-18)
(-0.0691753 0.0122635 4.66893e-19)
(-0.0539142 0.0183921 -4.77147e-20)
(-0.00164807 0.0133191 2.39879e-18)
(0.250903 0.0980803 -1.96069e-19)
(0.615042 0.227473 -8.09384e-19)
(0.87413 0.312938 2.00067e-18)
(1.02476 0.364318 1.90419e-19)
(1.10154 0.387815 8.2552e-19)
(1.13495 0.402576 -1.66054e-18)
(1.15032 0.404155 3.63093e-20)
(1.15756 0.407968 -7.61937e-19)
(1.16597 0.409036 -1.59537e-19)
(1.17528 0.406724 -5.28672e-19)
(-0.0339332 0.0103191 -5.4599e-19)
(-0.0641694 0.0165078 1.52238e-18)
(-0.0651467 0.0168304 9.1888e-19)
(-0.0445894 0.0205182 7.31532e-19)
(0.0578969 0.017488 -3.9771e-19)
(0.409526 0.155084 -1.58367e-19)
(0.73853 0.269728 1.04999e-18)
(0.951251 0.341057 -8.47075e-19)
(1.06665 0.380644 2.6255e-19)
(1.12173 0.396573 -1.38797e-18)
(1.14307 0.405804 9.81981e-20)
(1.15354 0.40403 2.14223e-19)
(1.15852 0.407049 -3.1706e-19)
(1.1645 0.405184 -1.898e-18)
(1.17239 0.401938 8.03569e-19)
(-0.0348588 0.00952225 -9.59764e-19)
(-0.0646164 0.015805 -1.20046e-18)
(-0.0615408 0.0192363 6.29959e-19)
(-0.0312351 0.0128596 -8.2545e-20)
(0.16072 0.0557058 -9.74769e-19)
(0.550856 0.205408 -4.26208e-20)
(0.838448 0.304932 -7.35846e-19)
(1.00925 0.36291 -1.47992e-18)
(1.09578 0.392483 -6.13529e-19)
(1.134 0.402292 5.71685e-19)
(1.14787 0.4078 5.2765e-19)
(1.15475 0.403652 -5.41222e-20)
(1.15728 0.405628 -8.50291e-19)
(1.16325 0.401825 1.56122e-18)
(1.1703 0.39859 4.90484e-19)
(-0.0359696 0.00805266 9.4398e-19)
(-0.0642936 0.0138648 2.13371e-21)
(-0.0597597 0.0186675 -1.54496e-18)
(0.000306475 4.0561e-05 -3.35249e-20)
(0.305393 0.114523 2.34488e-19)
(0.675164 0.248918 4.30116e-19)
(0.918626 0.3333 -7.80766e-19)
(1.05238 0.379391 4.09672e-19)
(1.11529 0.400596 -1.7931e-20)
(1.14131 0.406172 4.65273e-19)
(1.14958 0.408706 -4.20391e-19)
(1.15427 0.403018 -1.18713e-18)
(1.15629 0.404713 -5.80069e-20)
(1.16137 0.398705 -7.56086e-19)
(1.16638 0.395018 -6.59912e-19)
(-0.0375205 0.00615816 3.84366e-19)
(-0.0635734 0.0124996 -7.84781e-19)
(-0.0579658 0.0134937 7.86147e-19)
(0.0618527 0.00587427 -2.49556e-19)
(0.451996 0.168085 -1.34535e-19)
(0.780225 0.28533 -3.89734e-19)
(0.980289 0.355965 6.1307e-19)
(1.08288 0.391813 4.03376e-19)
(1.12781 0.406432 -2.42934e-19)
(1.14482 0.408695 -6.966e-19)
(1.14983 0.409128 -2.53982e-19)
(1.15331 0.402629 1.21545e-18)
(1.15407 0.403567 7.47095e-19)
(1.15885 0.395658 7.42001e-19)
(1.16351 0.392685 -2.31047e-19)
(-0.0393443 0.00419485 -2.41402e-19)
(-0.0632683 0.012188 8.66703e-20)
(-0.0492513 0.00309844 -3.25527e-19)
(0.158699 0.0480412 -2.88241e-21)
(0.576139 0.214249 -2.51757e-19)
(0.865459 0.316631 -3.79389e-19)
(1.02748 0.374159 1.33355e-19)
(1.1045 0.401074 -8.00818e-19)
(1.13542 0.410379 7.20745e-19)
(1.14622 0.410427 9.27917e-19)
(1.14888 0.409247 1.20601e-19)
(1.15123 0.402151 -1.05458e-18)
(1.15183 0.402626 -1.03329e-18)
(1.15642 0.393177 -7.86036e-19)
(1.15925 0.390375 3.19774e-19)
(-0.041186 0.00293423 -7.7941e-19)
(-0.0643422 0.0109234 2.13849e-19)
(-0.0233231 -0.00980621 -1.57217e-19)
(0.290245 0.10711 -2.4177e-21)
(0.686149 0.254007 -6.31747e-20)
(0.934423 0.342048 -1.45582e-19)
(1.0626 0.388365 2.69936e-19)
(1.11876 0.407972 -1.57343e-19)
(1.13948 0.413344 -2.07105e-19)
(1.14587 0.411708 -4.01804e-19)
(1.14716 0.409261 -3.57826e-19)
(1.14905 0.401978 -1.64967e-19)
(1.14904 0.401669 6.41208e-19)
(1.15311 0.390736 -2.5412e-20)
(1.15547 0.38879 5.11047e-19)
(-0.0428208 0.0036225 3.2391e-19)
(-0.065963 0.00710747 5.396e-19)
(0.0261605 -0.0113264 9.16205e-20)
(0.427337 0.159023 3.3387e-19)
(0.780658 0.28756 7.34848e-19)
(0.98799 0.362992 2.71972e-19)
(1.08789 0.399681 1.00678e-18)
(1.12809 0.413297 5.34372e-19)
(1.14124 0.41554 3.41554e-19)
(1.14467 0.412722 7.88204e-19)
(1.145 0.409306 2.45622e-19)
(1.14615 0.401811 4.51244e-19)
(1.14598 0.400763 2.24533e-19)
(1.14998 0.388893 1.06506e-19)
(1.151 0.387458 3.52819e-19)
(-0.0439611 0.00679617 4.52232e-19)
(-0.0650968 0.000732468 -7.68202e-19)
(0.0983006 0.0122593 -1.48231e-19)
(0.543698 0.203046 3.51791e-19)
(0.859146 0.317735 -7.42382e-19)
(1.02992 0.380477 -3.04485e-19)
(1.10592 0.408573 -6.22445e-19)
(1.1335 0.417405 -2.14546e-20)
(1.14128 0.417418 -1.69691e-19)
(1.14263 0.413697 -6.63836e-19)
(1.14231 0.409423 5.06959e-19)
(1.14317 0.40189 3.85337e-20)
(1.14271 0.399979 -2.183e-20)
(1.1461 0.387194 1.86985e-19)
(1.14649 0.38643 -4.33016e-19)
(-0.0448339 0.0111246 -3.29954e-20)
(-0.0563405 -0.00819599 3.3759e-19)
(0.195137 0.0591812 9.38761e-20)
(0.644128 0.242082 -4.9407e-19)
(0.923391 0.343443 3.29549e-19)
(1.0617 0.394936 1.05754e-19)
(1.11807 0.415784 -2.77914e-19)
(1.13631 0.420851 -1.32402e-19)
(1.14027 0.419104 -4.0396e-19)
(1.14021 0.414656 7.22534e-20)
(1.13943 0.409689 -4.91076e-19)
(1.13972 0.402027 -3.49658e-19)
(1.13905 0.399226 9.3993e-20)
(1.14229 0.385999 9.79219e-20)
(1.14181 0.385701 -1.70457e-19)
(-0.0460586 0.013377 -1.67877e-19)
(-0.0345866 -0.0158244 -1.06985e-19)
(0.309905 0.111785 2.30066e-19)
(0.731843 0.275013 4.24879e-19)
(0.974496 0.365056 8.27375e-20)
(1.08532 0.406967 -2.27971e-19)
(1.12613 0.421763 2.87883e-19)
(1.1372 0.423832 2.52017e-19)
(1.13841 0.420789 1.31584e-19)
(1.13731 0.415738 2.52318e-20)
(1.13611 0.410104 1.58127e-19)
(1.1361 0.402352 7.02504e-20)
(1.13527 0.398666 -4.96792e-20)
(1.13792 0.38501 -6.27075e-20)
(1.13685 0.385007 5.58414e-20)
(-0.0477832 0.0106125 -7.81635e-20)
(0.00147491 -0.0162989 -9.19096e-20)
(0.426079 0.159565 7.57211e-20)
(0.808451 0.304438 -1.00196e-19)
(1.01503 0.383085 -2.15417e-19)
(1.1023 0.41685 1.64207e-20)
(1.13082 0.426886 1.33064e-19)
(1.13674 0.426681 -1.20558e-19)
(1.13602 0.422562 8.00687e-20)
(1.13415 0.416925 1.62122e-19)
(1.13264 0.410699 2.59435e-20)