/*--------------------------------*- C++ -*----------------------------------*\
  =========                 |
  \\      /  F ield         | OpenFOAM: The Open Source CFD Toolbox
   \\    /   O peration     | Website:  https://openfoam.org
    \\  /    A nd           | Version:  7
     \\/     M anipulation  |
\*---------------------------------------------------------------------------*/
FoamFile
{
    version     2.0;
    format      ascii;
    class       volScalarField;
    location    "0.1875";
    object      p;
}
// * * * * * * * * * * * * * * * * * * * * * * * * * * * * * * * * * * * * * //

dimensions      [0 2 -2 0 0 0 0];

internalField   nonuniform List<scalar> 
10000
(
9.82902e-09
-4.80358e-06
-2.32866e-05
-5.30464e-05
-8.89912e-05
-0.0001279
-0.000167186
-0.000205321
-0.000240897
-0.000272854
-0.000300308
-0.000322636
-0.000339427
-0.000350388
-0.00035534
-0.000354161
-0.000346719
-0.000333
-0.000313074
-0.000286974
-0.00025468
-0.000216212
-0.000171654
-0.000121091
-6.4583e-05
-2.20746e-06
6.59363e-05
0.000139768
0.000219209
0.000304135
0.000394401
0.000489904
0.00059058
0.000696327
0.000806995
0.000922434
0.00104254
0.00116722
0.00129638
0.00142987
0.00156752
0.00170918
0.00185464
0.00200368
0.00215608
0.00231166
0.00247023
0.00263157
0.00279538
0.00296136
0.00312927
0.00329885
0.00346986
0.00364198
0.00381487
0.00398819
0.00416156
0.00433459
0.00450684
0.00467783
0.0048471
0.00501418
0.00517859
0.00533982
0.00549734
0.00565066
0.00579933
0.00594294
0.00608108
0.00621331
0.00633919
0.0064583
0.00657029
0.00667482
0.00677158
0.00686023
0.00694045
0.00701196
0.00707452
0.00712801
0.00717232
0.00720743
0.00723334
0.00725015
0.00725801
0.00725723
0.00724819
0.0072314
0.00720747
0.00717711
0.00714124
0.00710093
0.00705751
0.00701256
0.00696794
0.00692589
0.00688904
0.00686051
0.00684402
0.00684107
2.422e-06
-3.66338e-06
-1.98556e-05
-4.43873e-05
-7.37017e-05
-0.000105349
-0.000137598
-0.000169036
-0.000198471
-0.00022486
-0.000247427
-0.000265554
-0.000278709
-0.000286584
-0.000289
-0.00028575
-0.000276699
-0.0002618
-0.000241037
-0.000214411
-0.000181922
-0.000143569
-9.93663e-05
-4.93414e-05
6.45961e-06
6.79573e-05
0.000135071
0.000207747
0.000285908
0.000369417
0.000458131
0.000551961
0.000650833
0.000754638
0.000863251
0.000976567
0.0010945
0.00121691
0.00134366
0.00147461
0.00160961
0.00174854
0.00189117
0.00203726
0.00218662
0.00233905
0.00249435
0.00265229
0.00281258
0.00297496
0.00313917
0.003305
0.00347213
0.00364027
0.00380908
0.00397826
0.00414746
0.00431629
0.0044843
0.004651
0.00481596
0.00497872
0.00513884
0.00529583
0.00544917
0.00559839
0.00574306
0.00588279
0.00601718
0.00614582
0.0062683
0.00638425
0.00649332
0.00659522
0.00668964
0.00677627
0.00685484
0.00692509
0.00698684
0.00703997
0.00708443
0.00712018
0.00714728
0.00716583
0.00717606
0.00717828
0.00717289
0.00716041
0.00714142
0.00711667
0.00708703
0.00705356
0.0070175
0.00698027
0.00694349
0.00690899
0.0068788
0.00685525
0.00684114
0.00683822
1.55688e-05
6.87289e-06
-9.17942e-06
-3.12398e-05
-5.68309e-05
-8.41607e-05
-0.000111917
-0.000138937
-0.000164098
-0.000186518
-0.000205525
-0.000220474
-0.000230888
-0.000236423
-0.000236826
-0.000231924
-0.000221586
-0.000205701
-0.000184209
-0.000157088
-0.000124339
-8.5967e-05
-4.19569e-05
7.70866e-06
6.29928e-05
0.000123816
0.00019012
0.000261863
0.000338956
0.000421267
0.000508682
0.000601129
0.00069851
0.000800695
0.000907581
0.00101911
0.00113522
0.00125575
0.00138052
0.00150939
0.00164225
0.00177895
0.00191926
0.00206296
0.00220985
0.00235977
0.00251249
0.00266773
0.00282522
0.00298473
0.00314604
0.0033089
0.00347301
0.00363803
0.00380366
0.00396962
0.00413558
0.00430113
0.00446581
0.00462918
0.00479081
0.00495026
0.00510709
0.0052608
0.00541092
0.00555701
0.00569865
0.00583546
0.00596703
0.00609297
0.00621288
0.00632643
0.00643331
0.00653323
0.00662589
0.006711
0.00678831
0.0068576
0.00691874
0.00697164
0.00701622
0.00705249
0.00708047
0.00710033
0.00711231
0.00711676
0.00711408
0.00710476
0.00708937
0.00706864
0.0070434
0.00701467
0.00698358
0.00695139
0.00691948
0.00688938
0.00686274
0.00684134
0.00682728
0.00682205
3.77851e-05
2.47211e-05
7.17582e-06
-1.41593e-05
-3.80818e-05
-6.31354e-05
-8.82792e-05
-0.000112467
-0.000134774
-0.000154463
-0.000170838
-0.0001834
-0.000191729
-0.000195429
-0.000194237
-0.000188
-0.000176574
-0.000159844
-0.000137727
-0.000110157
-7.71276e-05
-3.86512e-05
5.29925e-06
5.47383e-05
0.000109625
0.000169908
0.000235557
0.000306509
0.000382652
0.00046388
0.000550133
0.00064135
0.000737411
0.000838179
0.000943576
0.00105356
0.00116806
0.0012869
0.00140995
0.00153707
0.00166813
0.00180293
0.00194126
0.00208292
0.00222776
0.00237559
0.00252616
0.00267918
0.00283439
0.00299158
0.00315053
0.00331098
0.00347262
0.00363513
0.00379823
0.00396163
0.00412498
0.00428787
0.00444987
0.00461057
0.00476955
0.00492639
0.00508061
0.00523175
0.00537934
0.00552297
0.00566227
0.00579684
0.00592626
0.00605012
0.00616806
0.00627976
0.00638495
0.00648334
0.00657464
0.00665857
0.0067349
0.00680345
0.00686412
0.00691683
0.00696151
0.00699815
0.0070268
0.00704764
0.00706093
0.00706703
0.00706634
0.00705933
0.00704656
0.00702869
0.00700653
0.00698101
0.00695314
0.00692405
0.0068949
0.00686696
0.00684159
0.00682024
0.00680416
0.00679414
6.69495e-05
4.82085e-05
2.79354e-05
5.9933e-06
-1.75026e-05
-4.15163e-05
-6.50521e-05
-8.73061e-05
-0.000107595
-0.000125198
-0.000139534
-0.000150183
-0.000156752
-0.000158892
-0.00015635
-0.000148942
-0.000136523
-0.000119001
-9.62843e-05
-6.82974e-05
-3.50123e-05
3.59113e-06
4.75306e-05
9.67841e-05
0.000151316
0.000211117
0.000276164
0.000346361
0.000421596
0.000501805
0.000586951
0.000676957
0.000771713
0.000871126
0.000975141
0.00108369
0.00119666
0.00131392
0.00143534
0.00156083
0.0016902
0.00182325
0.00195976
0.00209958
0.00224255
0.00238848
0.00253709
0.0026881
0.0028413
0.00299646
0.00315334
0.00331167
0.00347113
0.00363143
0.00379232
0.00395349
0.00411457
0.00427514
0.0044348
0.00459317
0.00474986
0.00490444
0.00505643
0.00520536
0.00535081
0.00549239
0.00562971
0.00576239
0.00589
0.00601212
0.00612842
0.0062386
0.00634237
0.00643947
0.0065296
0.00661252
0.00668802
0.00675595
0.00681622
0.00686874
0.00691346
0.00695037
0.00697955
0.00700117
0.00701553
0.00702296
0.00702385
0.00701866
0.00700791
0.00699224
0.00697238
0.00694919
0.00692356
0.00689647
0.0068689
0.00684187
0.0068165
0.00679395
0.00677451
0.00675816
0.00010079
7.55508e-05
5.16105e-05
2.80319e-05
3.87281e-06
-2.00038e-05
-4.281e-05
-6.39589e-05
-8.28598e-05
-9.89727e-05
-0.00011183
-0.000121
-0.00012615
-0.000127012
-0.000123343
-0.000114948
-0.000101681
-8.34421e-05
-6.01598e-05
-3.17797e-05
1.75208e-06
4.048e-05
8.44021e-05
0.000133482
0.000187705
0.00024707
0.000311526
0.00038098
0.000455358
0.000534628
0.000618737
0.000707587
0.000801096
0.00089923
0.00100195
0.00110916
0.00122072
0.00133652
0.00145647
0.00158044
0.00170824
0.00183966
0.00197453
0.00211271
0.00225402
0.00239824
0.0025451
0.00269435
0.00284579
0.0029992
0.0031543
0.0033108
0.0034684
0.00362684
0.00378585
0.00394512
0.00410425
0.00426285
0.00442054
0.00457697
0.00473173
0.0048844
0.00503451
0.00518163
0.00532533
0.00546524
0.00560097
0.00573212
0.00585824
0.00597896
0.00609395
0.0062029
0.00630554
0.00640159
0.00649077
0.00657285
0.00664766
0.00671508
0.006775
0.00682734
0.00687205
0.00690913
0.00693868
0.0069609
0.00697607
0.00698452
0.00698663
0.00698279
0.00697352
0.0069594
0.00694113
0.00691947
0.00689523
0.00686922
0.00684225
0.00681513
0.0067888
0.00676415
0.00674059
0.00671719
0.000136787
0.000104731
7.65599e-05
5.05733e-05
2.50499e-05
5.75995e-07
-2.22672e-05
-4.29589e-05
-6.10625e-05
-7.62285e-05
-8.80466e-05
-9.61363e-05
-0.000100224
-0.000100077
-9.54861e-05
-8.62799e-05
-7.23168e-05
-5.34824e-05
-2.9719e-05
-9.81519e-07
3.27903e-05
7.16227e-05
0.0001155
0.000164412
0.000218362
0.000277315
0.000341192
0.00040993
0.000483506
0.000561892
0.000645015
0.00073279
0.000825172
0.000922145
0.00102366
0.00112961
0.00123988
0.00135437
0.001473
0.0015956
0.00172197
0.00185192
0.00198533
0.00212206
0.00226191
0.00240462
0.00254996
0.00269771
0.00284768
0.00299961
0.00315322
0.0033082
0.00346428
0.00362121
0.00377869
0.00393638
0.00409391
0.00425091
0.00440702
0.0045619
0.00471513
0.00486627
0.00501489
0.00516057
0.00530291
0.00544155
0.00557606
0.00570603
0.00583102
0.00595067
0.00606467
0.0061727
0.00627449
0.00636973
0.00645817
0.00653959
0.00661386
0.00668086
0.00674049
0.00679265
0.0068373
0.00687447
0.00690426
0.0069269
0.00694265
0.00695183
0.00695477
0.00695185
0.00694354
0.00693039
0.00691306
0.00689224
0.00686863
0.00684291
0.00681573
0.00678775
0.00675972
0.00673237
0.00670426
0.00667367
0.000172786
0.000133965
0.000101289
7.24956e-05
4.51021e-05
1.94629e-05
-3.91697e-06
-2.46782e-05
-4.25279e-05
-5.71766e-05
-6.83164e-05
-7.56702e-05
-7.89996e-05
-7.8093e-05
-7.27752e-05
-6.29081e-05
-4.83725e-05
-2.90675e-05
-4.92544e-06
2.41128e-05
5.80824e-05
9.6974e-05
0.000140783
0.000189529
0.0002432
0.000301728
0.000365047
0.000433128
0.000505962
0.000583503
0.000665687
0.000752471
0.000843844
0.000939776
0.00104019
0.00114499
0.00125409
0.00136743
0.00148487
0.00160622
0.0017313
0.00185996
0.0019921
0.00212755
0.00226611
0.00240752
0.00255158
0.00269809
0.00284685
0.00299757
0.00314996
0.00330372
0.00345862
0.00361436
0.00377065
0.00392712
0.0040834
0.00423916
0.00439406
0.00454776
0.00469984
0.00484984
0.00499735
0.00514198
0.00528334
0.00542106
0.0055547
0.00568382
0.00580803
0.00592694
0.00604026
0.00614766
0.00624885
0.00634351
0.00643141
0.00651236
0.00658623
0.00665291
0.00671228
0.00676426
0.00680882
0.00684601
0.00687595
0.00689885
0.00691497
0.00692459
0.00692803
0.00692562
0.00691783
0.00690516
0.00688824
0.00686768
0.00684407
0.00681801
0.00679
0.00676056
0.00673034
0.00669994
0.00666713
0.00662955
0.000207129
0.000161755
0.000124603
9.27739e-05
6.31159e-05
3.59744e-05
1.16921e-05
-9.56491e-06
-2.75555e-05
-4.20411e-05
-5.28351e-05
-5.9738e-05
-6.25517e-05
-6.11076e-05
-5.52533e-05
-4.48729e-05
-2.98845e-05
-1.02117e-05
1.42281e-05
4.34881e-05
7.75713e-05
0.000116469
0.000160197
0.000208761
0.000262119
0.000320202
0.000382983
0.000450462
0.000522605
0.000599352
0.000680669
0.000766564
0.000857032
0.000952016
0.00105143
0.00115521
0.00126331
0.00137561
0.00149197
0.00161219
0.00173614
0.0018637
0.00199475
0.0021291
0.00226653
0.00240684
0.00254985
0.00269538
0.00284317
0.00299294
0.00314438
0.00329724
0.00345126
0.00360615
0.00376155
0.00391712
0.00407252
0.00422742
0.0043815
0.00453438
0.00468566
0.00483489
0.00498167
0.00512563
0.00526639
0.00540353
0.00553662
0.00566524
0.00578897
0.00590747
0.00602041
0.00612745
0.00622827
0.00632258
0.00641014
0.00649078
0.00656438
0.00663082
0.00668998
0.0067418
0.00678625
0.00682339
0.00685338
0.00687641
0.0068927
0.00690251
0.00690613
0.0069039
0.00689625
0.00688366
0.0068667
0.00684591
0.00682183
0.00679491
0.0067656
0.00673429
0.00670156
0.0066679
0.00663045
0.00658627
0.000238519
0.000186961
0.000145425
0.000110439
7.83617e-05
4.9446e-05
2.39379e-05
1.91103e-06
-1.64894e-05
-3.11217e-05
-4.18521e-05
-4.85327e-05
-5.10334e-05
-4.92341e-05
-4.30118e-05
-3.22739e-05
-1.69596e-05
2.99519e-06
2.7656e-05
5.70427e-05
9.11519e-05
0.000130007
0.000173625
0.000221966
0.00027497
0.00033261
0.00039489
0.000461793
0.000533274
0.000609291
0.00068985
0.000774966
0.000864617
0.000958739
0.00105727
0.00116018
0.00126739
0.00137878
0.00149417
0.00161342
0.0017364
0.00186303
0.00199314
0.00212655
0.00226305
0.00240249
0.00254468
0.00268944
0.0028365
0.00298556
0.00313635
0.00328861
0.00344207
0.00359639
0.00375123
0.00390624
0.0040611
0.00421552
0.00436914
0.00452158
0.00467242
0.00482124
0.00496766
0.00511133
0.00525183
0.00538874
0.00552162
0.00565004
0.00577363
0.00589201
0.00600484
0.00611178
0.00621247
0.00630663
0.00639403
0.00647452
0.00654797
0.00661426
0.00667328
0.00672496
0.00676929
0.00680635
0.0068363
0.0068593
0.00687558
0.00688536
0.0068889
0.00688655
0.00687871
0.00686586
0.00684849
0.00682709
0.00680211
0.00677396
0.00674298
0.00670952
0.0066741
0.00663713
0.0065952
0.00654492
0.000266015
0.000208604
0.000162802
0.000124734
9.01499e-05
5.92507e-05
3.23093e-05
9.3084e-06
-9.73247e-06
-2.47408e-05
-3.56216e-05
-4.22841e-05
-4.46482e-05
-4.26397e-05
-3.61927e-05
-2.52387e-05
-9.71332e-06
1.04305e-05
3.52097e-05
6.4628e-05
9.87067e-05
0.000137472
0.000180912
0.00022897
0.000281608
0.000338829
0.000400632
0.000466981
0.000537837
0.000613203
0.000693104
0.000777538
0.00086646
0.00095982
0.00105759
0.00115975
0.0012662
0.00137678
0.00149134
0.00160977
0.00173197
0.00185782
0.00198716
0.00211979
0.00225556
0.00239434
0.00253595
0.00268016
0.00282671
0.00297532
0.00312573
0.00327768
0.00343086
0.00358493
0.00373951
0.0038943
0.004049
0.00420329
0.00435681
0.00450916
0.00465993
0.00480872
0.00495516
0.00509888
0.00523947
0.00537648
0.00550946
0.00563802
0.00576177
0.00588033
0.00599332
0.00610038
0.00620115
0.00629536
0.00638279
0.00646329
0.00653673
0.00660297
0.00666191
0.00671348
0.00675769
0.00679463
0.00682445
0.00684731
0.0068634
0.00687293
0.00687617
0.00687345
0.00686517
0.00685177
0.00683368
0.00681134
0.00678514
0.00675543
0.00672255
0.00668675
0.00664855
0.00660831
0.00656216
0.00650633
0.000288811
0.000225885
0.000176027
0.000134916
9.77978e-05
6.48562e-05
3.63487e-05
1.21905e-05
-7.67031e-06
-2.32162e-05
-3.44176e-05
-4.12332e-05
-4.36157e-05
-4.15416e-05
-3.49926e-05
-2.39244e-05
-8.29034e-06
1.19264e-05
3.67172e-05
6.6094e-05
0.00010009
0.000138704
0.000181893
0.000229623
0.000281896
0.000338718
0.00040006
0.000465883
0.00053618
0.000610984
0.000690312
0.000774135
0.000862412
0.000955126
0.00105227
0.00115379
0.00125957
0.00136946
0.00148332
0.0016011
0.00172268
0.00184791
0.00197663
0.00210868
0.00224393
0.00238227
0.0025235
0.00266738
0.00281366
0.00296208
0.00311238
0.0032643
0.00341748
0.00357158
0.00372624
0.00388116
0.00403605
0.00419057
0.00434434
0.00449696
0.00464802
0.00479715
0.00494397
0.0050881
0.00522911
0.00536654
0.00549996
0.00562897
0.00575318
0.00587219
0.0059856
0.00609301
0.00619408
0.00628854
0.00637618
0.00645686
0.00653042
0.00659672
0.00665565
0.00670714
0.00675124
0.00678803
0.00681764
0.00684024
0.00685598
0.00686509
0.00686784
0.00686455
0.00685561
0.0068414
0.00682233
0.00679878
0.00677109
0.00673962
0.00670465
0.00666642
0.00662543
0.00658202
0.00653196
0.00647112
0.000306204
0.000238196
0.000184462
0.000140348
0.000100735
6.5742e-05
3.55816e-05
1.01413e-05
-1.06653e-05
-2.68792e-05
-3.85314e-05
-4.56288e-05
-4.8169e-05
-4.61675e-05
-3.96271e-05
-2.8533e-05
-1.28898e-05
7.28364e-06
3.19964e-05
6.12784e-05
9.51296e-05
0.000133512
0.000176397
0.000223794
0.000275713
0.000332136
0.000393024
0.000458368
0.000528191
0.000602518
0.000681335
0.000764611
0.000852336
0.00094452
0.00104114
0.00114212
0.00124733
0.00135663
0.00146997
0.00158726
0.00170837
0.00183314
0.00196142
0.00209308
0.00222804
0.00236614
0.00250719
0.00265096
0.0027972
0.00294568
0.00309615
0.0032483
0.00340176
0.00355619
0.00371125
0.00386665
0.00402209
0.00417719
0.00433156
0.0044848
0.00463652
0.00478635
0.00493391
0.0050788
0.00522056
0.00535874
0.00549292
0.0056227
0.00574767
0.00586741
0.00598147
0.00608946
0.00619104
0.00628597
0.00637402
0.00645504
0.00652886
0.00659532
0.00665431
0.00670578
0.00674977
0.00678638
0.00681573
0.00683795
0.00685323
0.00686177
0.00686386
0.00685983
0.00685002
0.0068348
0.00681452
0.00678953
0.00676017
0.00672677
0.0066896
0.0066489
0.00660515
0.00655873
0.00650504
0.00643968
0.000317615
0.00024493
0.000187537
0.00014054
9.8471e-05
6.14133e-05
2.95678e-05
2.78306e-06
-1.90695e-05
-3.60618e-05
-4.82622e-05
-5.57468e-05
-5.85671e-05
-5.67438e-05
-5.03047e-05
-3.92948e-05
-2.37568e-05
-3.70605e-06
2.08759e-05
4.99952e-05
8.36164e-05
0.000121707
0.000164277
0.00021135
0.000262915
0.000318936
0.000379399
0.00044433
0.000513753
0.000587659
0.000666018
0.000748823
0.000836096
0.000927848
0.00102403
0.00112454
0.00122927
0.00133815
0.00145111
0.00156806
0.00168885
0.00181332
0.00194135
0.00207285
0.00220771
0.00234579
0.00248686
0.00263073
0.00277718
0.00292599
0.00307688
0.00322952
0.00338354
0.0035386
0.00369439
0.00385062
0.00400695
0.00416297
0.00431829
0.0044725
0.00462525
0.00477615
0.0049248
0.00507078
0.00521362
0.00535289
0.00548816
0.00561902
0.00574505
0.00586577
0.00598074
0.00608954
0.00619187
0.00628748
0.00637614
0.00645767
0.00653189
0.00659862
0.00665775
0.00670924
0.00675315
0.00678955
0.00681858
0.00684036
0.00685505
0.00686291
0.0068642
0.00685925
0.0068484
0.00683197
0.00681029
0.0067837
0.00675251
0.00671708
0.00667765
0.00663447
0.00658804
0.00653873
0.00648168
0.00641224
0.000322527
0.000245519
0.000184749
0.000135013
9.05397e-05
5.14385e-05
1.79057e-05
-1.02526e-05
-3.32055e-05
-5.10593e-05
-6.39151e-05
-7.18858e-05
-7.50631e-05
-7.35028e-05
-6.7276e-05
-5.64642e-05
-4.11151e-05
-2.12388e-05
3.15473e-06
3.20297e-05
6.53532e-05
0.000103132
0.000145394
0.000192141
0.000243343
0.000298982
0.000359078
0.000423661
0.000492728
0.000566248
0.000644206
0.000726626
0.00081354
0.000904933
0.00100073
0.00110085
0.00120523
0.00131382
0.00142656
0.00154331
0.00166392
0.00178826
0.00191625
0.0020478
0.00218278
0.00232102
0.00246233
0.00260653
0.00275345
0.00290283
0.00305439
0.00320778
0.00336264
0.00351865
0.00367552
0.00383291
0.00399045
0.00414773
0.00430434
0.0044599
0.00461404
0.00476637
0.00491645
0.00506386
0.00520812
0.00534881
0.0054855
0.00561776
0.00574513
0.0058671
0.00598322
0.0060931
0.00619642
0.00629293
0.0063824
0.00646461
0.00653935
0.00660644
0.00666579
0.00671737
0.00676122
0.00679742
0.00682609
0.00684735
0.00686139
0.00686845
0.00686881
0.0068628
0.00685074
0.00683294
0.00680971
0.00678136
0.00674824
0.00671069
0.00666897
0.00662332
0.00657427
0.0065222
0.00646201
0.00638888
0.000320526
0.000239553
0.000175633
0.000123296
7.65165e-05
3.5422e-05
2.17379e-07
-2.93205e-05
-5.34006e-05
-7.2172e-05
-8.57658e-05
-9.43062e-05
-9.7914e-05
-9.67084e-05
-9.08023e-05
-8.02757e-05
-6.51707e-05
-4.55257e-05
-2.13977e-05
7.16813e-06
4.01732e-05
7.76475e-05
0.000119599
0.000166003
0.000216847
0.00027215
0.000331942
0.000396221
0.000464955
0.000538124
0.000615749
0.000697868
0.000784489
0.000875569
0.000971043
0.00107087
0.00117503
0.00128348
0.00139611
0.00151279
0.00163339
0.0017578
0.00188595
0.00201775
0.00215303
0.00229164
0.00243341
0.0025782
0.00272583
0.00287604
0.00302851
0.00318291
0.00333891
0.00349619
0.00365445
0.00381333
0.00397241
0.00413127
0.00428953
0.0044468
0.0046027
0.00475681
0.00490868
0.00505784
0.00520387
0.00534631
0.00548475
0.00561872
0.00574771
0.00587122
0.00598876
0.00609997
0.00620454
0.00630218
0.00639265
0.00647569
0.00655107
0.00661863
0.00667829
0.00673002
0.00677385
0.00680987
0.00683816
0.00685887
0.00687217
0.00687833
0.00687765
0.00687044
0.00685703
0.00683771
0.00681278
0.00678257
0.00674743
0.00670769
0.00666365
0.00661555
0.00656393
0.00650921
0.0064461
0.00636962
0.000311344
0.000226678
0.000159781
0.000104993
5.60326e-05
1.30128e-05
-2.38412e-05
-5.47529e-05
-7.99762e-05
-9.97036e-05
-0.000114082
-0.000123254
-0.000127384
-0.000126634
-0.000121125
-0.000110934
-9.61305e-05
-7.67971e-05
-5.30046e-05
-2.47707e-05
7.92568e-06
4.50948e-05
8.67171e-05
0.000132778
0.0001833
0.000238322
0.000297845
0.000361835
0.00043026
0.000503134
0.000580499
0.000662377
0.000748741
0.000839548
0.000934775
0.00103443
0.00113849
0.00124691
0.00135955
0.0014763
0.00159705
0.00172173
0.00185025
0.00198248
0.00211826
0.00225745
0.00239993
0.00254556
0.00269415
0.00284542
0.00299905
0.00315473
0.00331216
0.00347104
0.003631
0.00379166
0.0039526
0.0041134
0.00427366
0.00443302
0.00459104
0.00474728
0.00490127
0.00505255
0.00520068
0.00534524
0.00548575
0.00562173
0.00575263
0.00587795
0.0059972
0.00611002
0.00621608
0.00631508
0.00640673
0.00649074
0.00656689
0.00663504
0.00669511
0.00674707
0.00679095
0.0068268
0.00685471
0.00687482
0.00688732
0.0068925
0.00689067
0.00688215
0.00686726
0.00684629
0.00681955
0.00678737
0.00675011
0.00670814
0.00666177
0.00661122
0.00655709
0.00649982
0.00643398
0.00635445
0.000294697
0.000206559
0.00013687
7.9759e-05
2.87263e-05
-1.61174e-05
-5.45647e-05
-8.68494e-05
-0.000113234
-0.000133931
-0.000149123
-0.000158996
-0.000163743
-0.000163523
-0.000158454
-0.000148649
-0.000134223
-0.000115275
-9.1846e-05
-6.3937e-05
-3.15507e-05
5.29044e-06
4.65747e-05
9.23239e-05
0.000142576
0.000197346
0.000256604
0.000320313
0.000388474
0.000461121
0.000538284
0.00061995
0.000706084
0.000796676
0.000891756
0.000991348
0.00109543
0.0012039
0.00131667
0.00143363
0.00155472
0.00167986
0.00180892
0.00194175
0.00207823
0.00221824
0.00236168
0.00250839
0.00265817
0.00281074
0.00296579
0.00312304
0.00328221
0.00344297
0.00360493
0.00376768
0.0039308
0.00409389
0.00425653
0.00441834
0.00457885
0.00473757
0.00489403
0.00504778
0.00519838
0.0053454
0.00548832
0.00562661
0.00575972
0.00588714
0.0060084
0.00612312
0.00623093
0.0063315
0.0064245
0.00650965
0.00658672
0.00665558
0.00671617
0.00676845
0.00681243
0.00684814
0.00687566
0.00689513
0.00690678
0.0069109
0.00690783
0.00689789
0.00688141
0.00685867
0.00683001
0.00679577
0.00675633
0.00671208
0.00666334
0.00661037
0.00655377
0.00649404
0.00642564
0.00634332
0.000270284
0.000178913
0.00010661
4.72974e-05
-5.70633e-06
-5.22829e-05
-9.22605e-05
-0.000125893
-0.000153433
-0.000175111
-0.000191164
-0.000201808
-0.000207228
-0.000207576
-0.000203
-0.000193656
-0.000179677
-0.000161139
-0.000138069
-0.00011049
-7.84419e-05
-4.19456e-05
-9.77498e-07
4.45052e-05
9.45167e-05
0.000149033
0.000208022
0.000271481
0.000339436
0.000411909
0.000488894
0.000570364
0.000656312
0.000746778
0.000841815
0.00094144
0.00104561
0.00115423
0.00126725
0.00138459
0.00150619
0.00163194
0.00176169
0.00189532
0.00203271
0.00217378
0.00231842
0.00246645
0.00261765
0.00277176
0.0029285
0.00308762
0.00324882
0.00341175
0.00357599
0.00374114
0.00390678
0.00407251
0.00423791
0.00440253
0.00456588
0.00472744
0.00488675
0.00504335
0.0051968
0.00534662
0.00549228
0.0056332
0.00576885
0.00589869
0.00602226
0.00613916
0.00624898
0.00635134
0.00644588
0.00653233
0.00661048
0.00668021
0.00674144
0.00679413
0.00683825
0.00687383
0.00690095
0.00691975
0.00693049
0.0069335
0.00692911
0.00691766
0.00689947
0.00687485
0.00684415
0.00680775
0.00676607
0.0067195
0.00666838
0.00661298
0.00655395
0.00649185
0.00642102
0.00633609
0.000237884
0.000143499
6.87497e-05
7.3699e-06
-4.75189e-05
-9.57717e-05
-0.00013722
-0.000172146
-0.000200826
-0.000223523
-0.000240486
-0.000251933
-0.000258044
-0.000259001
-0.00025499
-0.000246175
-0.000232669
-0.000214537
-0.000191832
-0.000164617
-0.000132931
-9.67647e-05
-5.60754e-05
-1.08401e-05
3.89199e-05
9.3172e-05
0.000151913
0.00021517
0.000282964
0.000355283
0.000432098
0.000513402
0.000599239
0.000689676
0.000784759
0.000884484
0.00098881
0.00109769
0.00121108
0.00132895
0.0014512
0.0015777
0.00170832
0.00184293
0.00198146
0.00212383
0.0022699
0.00241947
0.00257233
0.00272823
0.00288694
0.00304821
0.00321172
0.00337709
0.00354391
0.00371177
0.00388028
0.00404902
0.00421754
0.00438534
0.00455189
0.00471667
0.00487922
0.00503907
0.00519574
0.00534873
0.00549746
0.00564136
0.00577986
0.00591247
0.00603868
0.00615805
0.00627013
0.0063745
0.00647081
0.00655876
0.00663817
0.00670892
0.00677091
0.00682409
0.00686839
0.00690385
0.00693054
0.00694865
0.00695845
0.00696028
0.00695449
0.00694143
0.00692141
0.00689479
0.00686194
0.0068233
0.0067793
0.00673036
0.00667683
0.006619
0.00655756
0.00649314
0.00641996
0.00633256
0.000197371
0.000100115
2.30611e-05
-4.02652e-05
-9.69566e-05
-0.000146824
-0.000189685
-0.000225869
-0.000255698
-0.000279441
-0.00029733
-0.000309582
-0.000316412
-0.000318036
-0.000314645
-0.000306381
-0.000293344
-0.000275627
-0.000253325
-0.000226503
-0.000195171
-0.000159304
-0.000118881
-7.39144e-05
-2.44315e-05
2.95638e-05
8.80976e-05
0.000151194
0.000218841
0.000291003
0.000367666
0.000448867
0.000534679
0.000625169
0.000720359
0.000820242
0.000924808
0.00103405
0.00114797
0.00126649
0.0013895
0.00151688
0.00164852
0.00178432
0.00192422
0.00206811
0.00221581
0.00236714
0.00252189
0.00267986
0.00284082
0.00300451
0.00317059
0.00333868
0.00350837
0.00367929
0.00385103
0.00402314
0.00419513
0.00436646
0.00453659
0.004705
0.00487119
0.00503469
0.00519498
0.00535151
0.00550368
0.00565091
0.00579264
0.00592836
0.00605753
0.00617967
0.00629429
0.00640093
0.00649923
0.00658891
0.00666978
0.00674171
0.00680458
0.0068583
0.00690282
0.00693816
0.00696442
0.00698183
0.00699066
0.00699126
0.00698398
0.00696918
0.00694721
0.00691846
0.00688336
0.00684238
0.00679599
0.00674462
0.00668862
0.00662833
0.00656449
0.00649776
0.00642228
0.0063325
0.000148639
4.86053e-05
-3.06668e-05
-9.58428e-05
-0.000154238
-0.000205651
-0.0002499
-0.000287345
-0.000318325
-0.000343099
-0.000361905
-0.000374983
-0.000382579
-0.00038491
-0.000382145
-0.000374418
-0.00036186
-0.0003446
-0.000322736
-0.000296306
-0.000265307
-0.000229732
-0.000189602
-0.000144939
-9.57392e-05
-4.19725e-05
1.63857e-05
7.93268e-05
0.000146815
0.000218827
0.000295388
0.000376564
0.000462428
0.000553023
0.000648367
0.000748475
0.000853381
0.000963109
0.00107764
0.00119691
0.0013208
0.0014492
0.00158204
0.00171923
0.00186069
0.00200629
0.00215583
0.00230914
0.00246603
0.00262634
0.00278981
0.00295618
0.00312509
0.00329618
0.00346907
0.00364338
0.00381869
0.00399452
0.00417034
0.00434557
0.00451968
0.00469212
0.00486238
0.00502995
0.00519426
0.00535471
0.00551071
0.00566166
0.00580701
0.00594621
0.00607869
0.00620391
0.00632135
0.00643054
0.0065311
0.00662275
0.00670529
0.00677855
0.00684241
0.00689675
0.00694152
0.00697676
0.0070026
0.00701929
0.00702712
0.00702643
0.00701757
0.00700091
0.00697686
0.00694586
0.00690839
0.00686498
0.0068161
0.0067622
0.00670368
0.00664087
0.00657459
0.00650554
0.00642779
0.00633571
9.15536e-05
-1.11625e-05
-9.25862e-05
-0.000159538
-0.000219562
-0.000272488
-0.000318126
-0.000356832
-0.000388937
-0.00041472
-0.00043445
-0.000448389
-0.000456776
-0.000459806
-0.000457647
-0.000450463
-0.00043842
-0.000421651
-0.000400228
-0.000374175
-0.000343511
-0.000308266
-0.000268471
-0.000224123
-0.000175186
-0.000121627
-6.34479e-05
-6.841e-07
6.6638e-05
0.000138534
0.000215059
0.00029628
0.000382244
0.000472983
0.000568532
0.000668951
0.000774301
0.000884611
0.000999852
0.00111995
0.00124482
0.00137438
0.00150859
0.00164735
0.00179055
0.00193802
0.00208959
0.0022451
0.00240439
0.00256728
0.00273353
0.00290283
0.00307485
0.00324924
0.00342565
0.00360369
0.00378291
0.00396281
0.0041428
0.00432232
0.0045008
0.0046777
0.00485247
0.00502453
0.00519327
0.00535808
0.00551832
0.00567341
0.00582278
0.00596584
0.00610198
0.00623062
0.0063512
0.00646324
0.00656634
0.00666022
0.00674463
0.00681939
0.00688435
0.00693938
0.00698446
0.00701964
0.0070451
0.00706107
0.00706785
0.00706579
0.00705523
0.0070366
0.00701034
0.00697697
0.00693703
0.00689106
0.00683957
0.00678303
0.00672188
0.00665649
0.0065877
0.00651631
0.00643633
0.00634199
2.59888e-05
-7.93056e-05
-0.000162815
-0.00023151
-0.00029315
-0.000347581
-0.000394594
-0.000434535
-0.000467751
-0.000494552
-0.000515228
-0.000530034
-0.000539188
-0.00054289
-0.00054134
-0.000534734
-0.000523236
-0.000506958
-0.000485961
-0.000460294
-0.000430007
-0.000395143
-0.000355703
-0.000311656
-0.000262964
-0.000209623
-0.000151657
-8.90925e-05
-2.1919e-05
4.99122e-05
0.00012646
0.000207765
0.000293856
0.000384777
0.000480603
0.000581424
0.000687309
0.000798273
0.000914287
0.0010353
0.00116126
0.00129214
0.00142786
0.00156833
0.0017134
0.00186291
0.0020167
0.00217464
0.00233657
0.00250229
0.00267155
0.00284404
0.00301946
0.00319746
0.00337772
0.00355983
0.00374329
0.00392758
0.00411211
0.0042963
0.00447959
0.00466139
0.0048411
0.00501809
0.0051917
0.00536129
0.00552623
0.00568591
0.00583972
0.00598705
0.00612723
0.00625964
0.0063837
0.00649891
0.00660487
0.00670123
0.00678775
0.00686418
0.00693036
0.00698618
0.00703165
0.00706684
0.00709193
0.00710716
0.00711285
0.00710931
0.00709696
0.00707623
0.00704765
0.00701178
0.00696923
0.00692055
0.00686631
0.006807
0.0067431
0.00667502
0.00660367
0.00652992
0.00644767
0.00635108
-4.81658e-05
-0.000155955
-0.000241508
-0.00031195
-0.000375217
-0.000431138
-0.000479496
-0.000520662
-0.000555009
-0.000582851
-0.000604469
-0.000620107
-0.000629995
-0.000634368
-0.000633456
-0.000627453
-0.000616502
-0.000600702
-0.000580141
-0.000554901
-0.000525043
-0.000490581
-0.000451488
-0.000407731
-0.000359301
-0.000306219
-0.000248499
-0.000186131
-0.00011907
-4.72632e-05
2.93289e-05
0.000110728
0.000196971
0.000288132
0.000384316
0.00048562
0.000592102
0.000703775
0.000820627
0.000942649
0.00106983
0.00120214
0.0013395
0.00148178
0.00162884
0.00178054
0.00193674
0.00209733
0.00226212
0.0024309
0.00260341
0.00277936
0.00295847
0.00314042
0.00332486
0.00351135
0.00369938
0.0038884
0.00407784
0.00426711
0.00445563
0.00464277
0.00482787
0.00501023
0.00518918
0.00536403
0.00553414
0.00569888
0.00585759
0.0060096
0.00615422
0.00629079
0.00641871
0.00653745
0.00664658
0.00674571
0.00683456
0.00691285
0.00698041
0.00703716
0.0070831
0.00711836
0.0071431
0.00715758
0.00716209
0.00715699
0.00714272
0.00711977
0.00708874
0.00705025
0.00700492
0.00695337
0.0068962
0.00683397
0.00676718
0.0066963
0.00662231
0.00654614
0.00646159
0.00636269
-0.00013104
-0.000241282
-0.000328857
-0.000401044
-0.000465929
-0.000523331
-0.000573042
-0.000615458
-0.000650954
-0.000679827
-0.00070235
-0.000718791
-0.000729417
-0.000734485
-0.000734228
-0.000728823
-0.000718407
-0.000703102
-0.000683022
-0.000658259
-0.000628848
-0.000594777
-0.000556021
-0.000512575
-0.000464456
-0.000411676
-0.000354214
-0.000292022
-0.000225048
-0.000153259
-7.66324e-05
4.86266e-06
9.12923e-05
0.000182759
0.000279373
0.000381216
0.000488341
0.000600772
0.000718538
0.000841669
0.000970171
0.001104
0.00124307
0.00138726
0.00153643
0.00169047
0.00184927
0.0020127
0.00218055
0.00235261
0.00252861
0.00270831
0.00289142
0.00307763
0.00326655
0.00345774
0.00365067
0.00384478
0.00403952
0.0042343
0.00442849
0.00462141
0.00481235
0.00500056
0.00518532
0.00536594