/*--------------------------------*- C++ -*----------------------------------*\
  =========                 |
  \\      /  F ield         | OpenFOAM: The Open Source CFD Toolbox
   \\    /   O peration     | Website:  https://openfoam.org
    \\  /    A nd           | Version:  7
     \\/     M anipulation  |
\*---------------------------------------------------------------------------*/
FoamFile
{
    version     2.0;
    format      ascii;
    class       surfaceScalarField;
    location    "0.1875";
    object      phi;
}
// * * * * * * * * * * * * * * * * * * * * * * * * * * * * * * * * * * * * * //

dimensions      [0 3 -1 0 0 0 0];

internalField   nonuniform List<scalar> 
19800
(
5.93342e-11
-5.94033e-11
1.40794e-10
-8.14597e-11
1.88094e-10
-4.72937e-11
1.63279e-10
2.48215e-11
5.70303e-11
1.06259e-10
-1.28727e-10
1.85746e-10
-3.89223e-10
2.60506e-10
-7.17505e-10
3.28282e-10
-1.10622e-09
3.88719e-10
-1.54805e-09
4.41827e-10
-2.03586e-09
4.87814e-10
-2.56297e-09
5.27123e-10
-3.12311e-09
5.60136e-10
-3.7107e-09
5.87592e-10
-4.32064e-09
6.09947e-10
-4.94818e-09
6.27544e-10
-5.58913e-09
6.40953e-10
-6.23981e-09
6.5068e-10
-6.89687e-09
6.57061e-10
-7.55743e-09
6.60557e-10
-8.21892e-09
6.61493e-10
-8.87899e-09
6.60065e-10
-9.53561e-09
6.56612e-10
-1.01871e-08
6.51458e-10
-1.08318e-08
6.44697e-10
-1.14682e-08
6.3643e-10
-1.20951e-08
6.26867e-10
-1.27112e-08
6.16167e-10
-1.33156e-08
6.04376e-10
-1.39071e-08
5.91516e-10
-1.44848e-08
5.77665e-10
-1.50477e-08
5.62896e-10
-1.55949e-08
5.472e-10
-1.61254e-08
5.30544e-10
-1.66384e-08
5.12959e-10
-1.71329e-08
4.94512e-10
-1.76081e-08
4.75184e-10
-1.8063e-08
4.54877e-10
-1.84965e-08
4.33539e-10
-1.89077e-08
4.11206e-10
-1.92956e-08
3.8791e-10
-1.96592e-08
3.63614e-10
-1.99975e-08
3.38267e-10
-2.03094e-08
3.11869e-10
-2.05938e-08
2.84454e-10
-2.08498e-08
2.56012e-10
-2.10763e-08
2.26497e-10
-2.12722e-08
1.95894e-10
-2.14365e-08
1.64255e-10
-2.15681e-08
1.31657e-10
-2.16663e-08
9.8127e-11
-2.17299e-08
6.36435e-11
-2.17581e-08
2.82088e-11
-2.175e-08
-8.11188e-12
-2.17048e-08
-4.52166e-11
-2.16217e-08
-8.30168e-11
-2.15003e-08
-1.21445e-10
-2.13399e-08
-1.6043e-10
-2.114e-08
-1.99863e-10
-2.09004e-08
-2.39607e-10
-2.06209e-08
-2.79517e-10
-2.03014e-08
-3.19465e-10
-1.99421e-08
-3.59312e-10
-1.95432e-08
-3.98884e-10
-1.91053e-08
-4.37976e-10
-1.86289e-08
-4.76387e-10
-1.81149e-08
-5.13933e-10
-1.75645e-08
-5.50429e-10
-1.69788e-08
-5.85669e-10
-1.63594e-08
-6.19409e-10
-1.5708e-08
-6.5139e-10
-1.50267e-08
-6.8135e-10
-1.43176e-08
-7.09039e-10
-1.35834e-08
-7.34207e-10
-1.28268e-08
-7.56593e-10
-1.20509e-08
-7.75901e-10
-1.12591e-08
-7.91814e-10
-1.04551e-08
-8.04008e-10
-9.64294e-09
-8.1218e-10
-8.8269e-09
-8.16047e-10
-8.01157e-09
-8.15329e-10
-7.20184e-09
-8.09731e-10
-6.4029e-09
-7.98942e-10
-5.62024e-09
-7.82651e-10
-4.85967e-09
-7.6057e-10
-4.12724e-09
-7.32432e-10
-3.42924e-09
-6.97998e-10
-2.7722e-09
-6.57047e-10
-2.16282e-09
-6.0938e-10
-1.60799e-09
-5.54832e-10
-1.11468e-09
-4.93312e-10
-6.89805e-10
-4.24876e-10
-3.39985e-10
-3.49822e-10
-7.11541e-11
-2.68832e-10
1.12136e-10
-1.83294e-10
2.0803e-10
-9.58992e-11
2.19869e-10
-1.18404e-11
1.61023e-10
5.88622e-11
6.48824e-11
9.61816e-11
6.49219e-11
7.65916e-11
-1.35994e-10
1.36142e-10
-1.41001e-10
8.85413e-11
3.02826e-13
-1.20319e-10
2.33677e-10
-5.15279e-10
5.01227e-10
-1.102e-09
7.7248e-10
-1.87403e-09
1.03252e-09
-2.81945e-09
1.2737e-09
-3.92307e-09
1.49234e-09
-5.16823e-09
1.68697e-09
-6.53807e-09
1.85767e-09
-8.01596e-09
2.00501e-09
-9.58604e-09
2.13022e-09
-1.12334e-08
2.235e-09
-1.29443e-08
2.32084e-09
-1.47061e-08
2.38935e-09
-1.65073e-08
2.44218e-09
-1.83375e-08
2.48087e-09
-2.01874e-08
2.50692e-09
-2.20486e-08
2.52177e-09
-2.39136e-08
2.52657e-09
-2.57759e-08
2.52238e-09
-2.76296e-08
2.51029e-09
-2.94693e-08
2.4912e-09
-3.12904e-08
2.46573e-09
-3.30885e-08
2.43453e-09
-3.48598e-08
2.3982e-09
-3.66008e-08
2.35717e-09
-3.83082e-08
2.31174e-09
-3.99788e-08
2.26217e-09
-4.16099e-08
2.2087e-09
-4.31984e-08
2.15148e-09
-4.47418e-08
2.09059e-09
-4.62373e-08
2.02606e-09
-4.76823e-08
1.95795e-09
-4.90741e-08
1.88631e-09
-5.041e-08
1.8111e-09
-5.16873e-08
1.7322e-09
-5.29033e-08
1.64955e-09
-5.40553e-08
1.56317e-09
-5.51404e-08
1.47301e-09
-5.61558e-08
1.37903e-09
-5.70987e-08
1.28116e-09
-5.79662e-08
1.17938e-09
-5.87555e-08
1.07372e-09
-5.94636e-08
9.64139e-10
-6.00878e-08
8.50622e-10
-6.06251e-08
7.33198e-10
-6.10728e-08
6.11977e-10
-6.14282e-08
4.87092e-10
-6.16887e-08
3.58643e-10
-6.18518e-08
2.26719e-10
-6.1915e-08
9.14625e-11
-6.18763e-08
-4.68999e-11
-6.17334e-08
-1.88087e-10
-6.14846e-08
-3.31803e-10
-6.11283e-08
-4.77742e-10
-6.06632e-08
-6.25562e-10
-6.00882e-08
-7.74856e-10
-5.94026e-08
-9.25166e-10
-5.86061e-08
-1.076e-09
-5.76987e-08
-1.22684e-09
-5.66809e-08
-1.37712e-09
-5.55536e-08
-1.52622e-09
-5.43181e-08
-1.67346e-09
-5.29764e-08
-1.81812e-09
-5.15309e-08
-1.95946e-09
-4.99846e-08
-2.09673e-09
-4.83411e-08
-2.2291e-09
-4.66048e-08
-2.35571e-09
-4.47806e-08
-2.47563e-09
-4.2874e-08
-2.5879e-09
-4.08915e-08
-2.69157e-09
-3.884e-08
-2.78563e-09
-3.67276e-08
-2.86907e-09
-3.45627e-08
-2.9408e-09
-3.23548e-08
-2.99972e-09
-3.01141e-08
-3.0447e-09
-2.78517e-08
-3.07463e-09
-2.55793e-08
-3.08843e-09
-2.33096e-08
-3.08501e-09
-2.1056e-08
-3.06329e-09
-1.88328e-08
-3.02219e-09
-1.66548e-08
-2.96066e-09
-1.45376e-08
-2.87773e-09
-1.24975e-08
-2.77249e-09
-1.05514e-08
-2.64415e-09
-8.71638e-09
-2.49206e-09
-7.01002e-09
-2.31574e-09
-5.44986e-09
-2.11498e-09
-4.05318e-09
-1.89e-09
-2.83644e-09
-1.64163e-09
-1.81452e-09
-1.37174e-09
-9.99549e-10
-1.0838e-09
-3.98961e-10
-7.83875e-10
-1.24954e-11
-4.82362e-10
1.72639e-10
-1.96999e-10
1.88518e-10
4.29158e-11
9.56313e-11
1.88979e-10
1.60577e-10
2.80784e-11
-1.64067e-10
-2.99614e-11
-8.29661e-11
-2.6832e-10
2.38682e-10
-7.43875e-10
7.09225e-10
-1.48603e-09
1.24339e-09
-2.50363e-09
1.79008e-09
-3.79125e-09
2.32015e-09
-5.33465e-09
2.81712e-09
-7.11422e-09
3.2719e-09
-9.10749e-09
3.68025e-09
-1.12907e-08
4.04091e-09
-1.36402e-08
4.35444e-09
-1.61326e-08
4.62269e-09
-1.87459e-08
4.84827e-09
-2.14592e-08
5.03418e-09
-2.42533e-08
5.18345e-09
-2.71105e-08
5.29936e-09
-3.00146e-08
5.38501e-09
-3.29511e-08
5.44338e-09
-3.59066e-08
5.4773e-09
-3.88694e-08
5.48931e-09
-4.18288e-08
5.48174e-09
-4.47752e-08
5.45671e-09
-4.77e-08
5.41604e-09
-5.05956e-08
5.36129e-09
-5.34549e-08
5.29385e-09
-5.62716e-08
5.21489e-09
-5.90398e-08
5.12538e-09
-6.17541e-08
5.02605e-09
-6.44094e-08
4.91751e-09
-6.7001e-08
4.80027e-09
-6.95242e-08
4.67464e-09
-7.19744e-08
4.54085e-09
-7.43474e-08
4.39905e-09
-7.66389e-08
4.24939e-09
-7.88444e-08
4.09189e-09
-8.09598e-08
3.9265e-09
-8.29808e-08
3.75313e-09
-8.49029e-08
3.5717e-09
-8.67219e-08
3.38217e-09
-8.84334e-08
3.18447e-09
-9.00328e-08
2.9785e-09
-9.15159e-08
2.7642e-09
-9.2878e-08
2.54155e-09
-9.41149e-08
2.31054e-09
-9.52219e-08
2.07117e-09
-9.61947e-08
1.82346e-09
-9.70291e-08
1.56752e-09
-9.77206e-08
1.30355e-09
-9.82653e-08
1.03179e-09
-9.86592e-08
7.52462e-10
-9.88983e-08
4.65864e-10
-9.89792e-08
1.72364e-10
-9.88985e-08
-1.27562e-10
-9.86533e-08
-4.3335e-10
-9.82407e-08
-7.44374e-10
-9.76585e-08
-1.05995e-09
-9.69047e-08
-1.3793e-09
-9.5978e-08
-1.70157e-09
-9.48774e-08
-2.0258e-09
-9.36024e-08
-2.35094e-09
-9.21534e-08
-2.67587e-09
-9.05312e-08
-2.99937e-09
-8.87373e-08
-3.32012e-09
-8.67741e-08
-3.63668e-09
-8.46446e-08
-3.94754e-09
-8.2353e-08
-4.25114e-09
-7.99039e-08
-4.5458e-09
-7.73032e-08
-4.82976e-09
-7.45578e-08
-5.10116e-09
-7.16753e-08
-5.35805e-09
-6.86648e-08
-5.59842e-09
-6.55362e-08
-5.82017e-09
-6.23007e-08
-6.02119e-09
-5.89705e-08
-6.19926e-09
-5.55592e-08
-6.35211e-09
-5.20815e-08
-6.47742e-09
-4.85533e-08
-6.57286e-09
-4.49919e-08
-6.63608e-09
-4.14155e-08
-6.66478e-09
-3.78439e-08
-6.65665e-09
-3.42977e-08
-6.60946e-09
-3.07989e-08
-6.52099e-09
-2.73704e-08
-6.38915e-09
-2.40362e-08
-6.21199e-09
-2.08209e-08
-5.98778e-09
-1.775e-08
-5.71507e-09
-1.48493e-08
-5.39274e-09
-1.21448e-08
-5.02021e-09
-9.66227e-09
-4.59755e-09
-7.42639e-09
-4.12588e-09
-5.46023e-09
-3.60779e-09
-3.78389e-09
-3.04809e-09
-2.4128e-09
-2.4549e-09
-1.35522e-09
-1.84145e-09
-6.08747e-10
-1.22881e-09
-1.55515e-10
-6.50187e-10
4.41013e-11
-1.56669e-10
5.86375e-11
1.74395e-10
2.1922e-10
-3.71692e-11
-1.26891e-10
-2.5793e-10
1.3779e-10
-7.40667e-10
7.21412e-10
-1.53365e-09
1.50222e-09
-2.66286e-09
2.37261e-09
-4.13572e-09
3.26293e-09
-5.94574e-09
4.13018e-09
-8.07662e-09
4.948e-09
-1.05057e-08
5.70099e-09
-1.32065e-08
6.38109e-09
-1.61506e-08
6.98502e-09
-1.9309e-08
7.51279e-09
-2.26528e-08
7.96655e-09
-2.61544e-08
8.34987e-09
-2.97874e-08
8.66712e-09
-3.3527e-08
8.92311e-09
-3.73505e-08
9.12284e-09
-4.12368e-08
9.27127e-09
-4.51666e-08
9.37323e-09
-4.91226e-08
9.43325e-09
-5.30888e-08
9.45557e-09
-5.70511e-08
9.44405e-09
-6.09966e-08
9.40217e-09
-6.49135e-08
9.33301e-09
-6.87915e-08
9.23925e-09
-7.26209e-08
9.12325e-09
-7.6393e-08
8.98699e-09
-8.00997e-08
8.83211e-09
-8.37336e-08
8.65994e-09
-8.72877e-08
8.47158e-09
-9.07553e-08
8.26791e-09
-9.41302e-08
8.04951e-09
-9.74062e-08
7.81683e-09
-1.00577e-07
7.5702e-09
-1.03638e-07
7.30982e-09
-1.06582e-07
7.03578e-09
-1.09403e-07
6.74804e-09
-1.12097e-07
6.44657e-09
-1.14656e-07
6.13131e-09
-1.17076e-07
5.80215e-09
-1.19351e-07
5.45896e-09
-1.21474e-07
5.10163e-09
-1.2344e-07
4.73012e-09
-1.25243e-07
4.34442e-09
-1.26877e-07
3.94453e-09
-1.28336e-07
3.53048e-09
-1.29615e-07
3.10239e-09
-1.30708e-07
2.66046e-09
-1.31609e-07
2.20501e-09
-1.32314e-07
1.73643e-09
-1.32817e-07
1.25517e-09
-1.33113e-07
7.61782e-10
-1.33197e-07
2.56951e-10
-1.33066e-07
-2.58501e-10
-1.32716e-07
-7.83637e-10
-1.32143e-07
-1.3174e-09
-1.31344e-07
-1.85862e-09
-1.30318e-07
-2.40594e-09
-1.29061e-07
-2.95788e-09
-1.27574e-07
-3.51281e-09
-1.25856e-07
-4.06895e-09
-1.23908e-07
-4.62441e-09
-1.2173e-07
-5.17709e-09
-1.19325e-07
-5.72476e-09
-1.16697e-07
-6.26501e-09
-1.13849e-07
-6.79527e-09
-1.10788e-07
-7.31285e-09
-1.07518e-07
-7.81493e-09
-1.0405e-07
-8.2985e-09
-1.0039e-07
-8.76043e-09
-9.6551e-08
-9.19741e-09
-9.25434e-08
-9.60603e-09
-8.83808e-08
-9.98277e-09
-8.4078e-08
-1.0324e-08
-7.96513e-08
-1.0626e-08
-7.51184e-08
-1.0885e-08
-7.04988e-08
-1.1097e-08
-6.58135e-08
-1.12582e-08
-6.10848e-08
-1.13647e-08
-5.6337e-08
-1.14126e-08
-5.15957e-08
-1.1398e-08
-4.68878e-08
-1.13174e-08
-4.22418e-08
-1.1167e-08
-3.76874e-08
-1.09435e-08
-3.32554e-08
-1.0644e-08
-2.89776e-08
-1.02656e-08
-2.48863e-08
-9.80637e-09
-2.10142e-08
-9.2648e-09
-1.7394e-08
-8.64043e-09
-1.40574e-08
-7.93411e-09
-1.10349e-08
-7.14846e-09
-8.35396e-09
-6.28868e-09
-6.03841e-09
-5.36364e-09
-4.1059e-09
-4.38742e-09
-2.56565e-09
-3.38172e-09
-1.41512e-09
-2.37936e-09
-6.35911e-10
-1.4294e-09
-1.89135e-10
-6.03417e-10
-1.02039e-11
-4.55096e-12
2.09013e-10
-1.1129e-10
-1.55906e-11
-5.17982e-10
5.44489e-10
-1.27388e-09
1.47731e-09
-2.41253e-09
2.64088e-09
-3.95136e-09
3.91144e-09
-5.89279e-09
5.20437e-09
-8.22699e-09
6.46437e-09
-1.09349e-08
7.65592e-09
-1.39911e-08
8.75716e-09
-1.73658e-08
9.75579e-09
-2.10269e-08
1.06461e-08
-2.49415e-08
1.14274e-08
-2.90766e-08
1.21016e-08
-3.34e-08
1.26733e-08
-3.7881e-08
1.31481e-08
-4.24906e-08
1.35327e-08
-4.72015e-08
1.38338e-08
-5.19888e-08
1.40585e-08
-5.68291e-08
1.42136e-08
-6.17014e-08
1.43056e-08
-6.65864e-08
1.43406e-08
-7.14667e-08
1.43243e-08
-7.63264e-08
1.42618e-08
-8.11509e-08
1.41576e-08
-8.59273e-08
1.40157e-08
-9.06437e-08
1.38396e-08
-9.5289e-08
1.36323e-08
-9.98532e-08
1.33963e-08
-1.04327e-07
1.31336e-08
-1.08701e-07
1.28459e-08
-1.12968e-07
1.25346e-08
-1.17119e-07
1.22005e-08
-1.21147e-07
1.18446e-08
-1.25044e-07
1.14673e-08
-1.28803e-07
1.10689e-08
-1.32417e-07
1.06496e-08
-1.35878e-07
1.02095e-08
-1.3918e-07
9.74849e-09
-1.42315e-07
9.26664e-09
-1.45277e-07
8.7638e-09
-1.48058e-07
8.23982e-09
-1.50651e-07
7.6946e-09
-1.53049e-07
7.1281e-09
-1.55245e-07
6.54034e-09
-1.57231e-07
5.93135e-09
-1.59002e-07
5.30124e-09
-1.6055e-07
4.65024e-09
-1.61868e-07
3.97872e-09
-1.6295e-07
3.28715e-09
-1.6379e-07
2.57611e-09
-1.64381e-07
1.84632e-09
-1.64718e-07
1.09866e-09
-1.64795e-07
3.3422e-10
-1.64608e-07
-4.45763e-10
-1.64152e-07
-1.23988e-09
-1.63423e-07
-2.04654e-09
-1.62417e-07
-2.86394e-09
-1.61133e-07
-3.69007e-09
-1.59569e-07
-4.52268e-09
-1.57722e-07
-5.35932e-09
-1.55594e-07
-6.19733e-09
-1.53184e-07
-7.03384e-09
-1.50496e-07
-7.86574e-09
-1.47531e-07
-8.68967e-09
-1.44294e-07
-9.50202e-09
-1.4079e-07
-1.0299e-08
-1.37026e-07
-1.10765e-08
-1.33011e-07
-1.18304e-08
-1.28753e-07
-1.25561e-08
-1.24265e-07
-1.3249e-08
-1.19558e-07
-1.39041e-08
-1.14648e-07
-1.45163e-08
-1.0955e-07
-1.50805e-08
-1.04283e-07
-1.55912e-08
-9.88658e-08
-1.60429e-08
-9.33209e-08
-1.64299e-08
-8.76714e-08
-1.67465e-08
-8.19427e-08
-1.6987e-08
-7.61619e-08
-1.71455e-08
-7.0358e-08
-1.72165e-08
-6.45618e-08
-1.71943e-08
-5.88056e-08
-1.70735e-08
-5.31234e-08
-1.68491e-08
-4.75506e-08
-1.65164e-08
-4.21236e-08
-1.60709e-08
-3.68799e-08
-1.55093e-08
-3.18576e-08
-1.48287e-08
-2.70947e-08
-1.40277e-08
-2.2629e-08
-1.31061e-08
-1.84971e-08
-1.2066e-08
-1.47334e-08
-1.09121e-08
-1.13694e-08
-9.65275e-09
-8.43137e-09
-8.30163e-09
-5.93936e-09
-6.87942e-09
-3.9044e-09
-5.41667e-09
-2.32604e-09
-3.95774e-09
-1.18928e-09
-2.56618e-09
-4.61622e-10
-1.33107e-09
-9.05232e-11
-3.75652e-10
1.18487e-10
-1.8875e-10
1.73148e-10
-7.89558e-10
1.14531e-09
-1.83024e-09
2.51799e-09
-3.32661e-09
4.13724e-09
-5.28417e-09
5.86901e-09
-7.69775e-09
7.61793e-09
-1.05523e-08
9.31893e-09
-1.3825e-08
1.09286e-08
-1.74871e-08
1.24193e-08
-2.15058e-08
1.37745e-08
-2.5846e-08
1.49864e-08
-3.04715e-08
1.60528e-08
-3.53459e-08
1.6976e-08
-4.04336e-08
1.7761e-08
-4.57003e-08
1.84149e-08
-5.11135e-08
1.89459e-08
-5.66425e-08
1.93628e-08
-6.22587e-08
1.96747e-08
-6.79357e-08
1.98906e-08
-7.36491e-08
2.00191e-08
-7.93769e-08
2.00684e-08
-8.50986e-08
2.0046e-08
-9.07957e-08
1.99589e-08
-9.64514e-08
1.98132e-08
-1.0205e-07
1.96145e-08
-1.07578e-07
1.93674e-08
-1.13022e-07
1.90761e-08
-1.1837e-07
1.87441e-08
-1.2361e-07
1.83743e-08
-1.28733e-07
1.7969e-08
-1.33729e-07
1.75302e-08
-1.38587e-07
1.70591e-08
-1.433e-07
1.65571e-08
-1.47858e-07
1.60249e-08
-1.52252e-07
1.54629e-08
-1.56474e-07
1.48716e-08
-1.60515e-07
1.4251e-08
-1.64368e-07
1.36013e-08
-1.68024e-07
1.29225e-08
-1.71474e-07
1.22143e-08
-1.74711e-07
1.14767e-08
-1.77726e-07
1.07097e-08
-1.80512e-07
9.91331e-09
-1.83059e-07
9.08744e-09
-1.8536e-07
8.23226e-09
-1.87406e-07
7.34799e-09
-1.89191e-07
6.43502e-09
-1.90706e-07
5.49388e-09
-1.91944e-07
4.52526e-09
-1.92898e-07
3.52999e-09
-1.93561e-07
2.50912e-09
-1.93926e-07
1.46394e-09
-1.93988e-07
3.95942e-10
-1.93741e-07
-6.93116e-10
-1.93179e-07
-1.80126e-09
-1.923e-07
-2.92626e-09
-1.91098e-07
-4.06559e-09
-1.89572e-07
-5.21645e-09
-1.87719e-07
-6.37572e-09
-1.85538e-07
-7.54002e-09
-1.8303e-07
-8.70567e-09
-1.80195e-07
-9.86865e-09
-1.77036e-07
-1.10247e-08
-1.73556e-07
-1.2169e-08
-1.69762e-07
-1.32968e-08
-1.65658e-07
-1.44027e-08
-1.61253e-07
-1.54812e-08
-1.56557e-07
-1.65264e-08
-1.51581e-07
-1.75321e-08
-1.46338e-07
-1.84919e-08
-1.40844e-07
-1.93989e-08
-1.35114e-07
-2.02462e-08
-1.29168e-07
-2.10266e-08
-1.23026e-07
-2.17326e-08
-1.16712e-07
-2.23568e-08
-1.10251e-07
-2.28913e-08
-1.03669e-07
-2.33283e-08
-9.69962e-08
-2.366e-08
-9.02631e-08
-2.38785e-08
-8.35032e-08
-2.39764e-08
-7.67516e-08
-2.39459e-08
-7.00452e-08
-2.378e-08
-6.34225e-08
-2.34718e-08
-5.69238e-08
-2.30151e-08
-5.05901e-08
-2.24046e-08
-4.44636e-08
-2.16358e-08
-3.85869e-08
-2.07054e-08
-3.30025e-08
-1.96121e-08
-2.77523e-08
-1.83564e-08
-2.28765e-08
-1.69418e-08
-1.84132e-08
-1.53754e-08
-1.43965e-08
-1.36694e-08
-1.08557e-08
-1.18424e-08
-7.81351e-09
-9.92165e-09
-5.28386e-09
-7.94631e-09
-3.27044e-09
-5.97116e-09
-1.76459e-09
-4.07204e-09
-7.43989e-10
-2.35168e-09
-1.7219e-10
-9.47451e-10
-5.37036e-11
-2.64584e-10
4.37742e-10
-1.05861e-09
1.93932e-09
-2.38412e-09
3.8435e-09
-4.23832e-09
5.99146e-09
-6.61341e-09
8.2441e-09
-9.49467e-09
1.04992e-08
-1.28604e-08
1.26847e-08
-1.6683e-08
1.47511e-08
-2.09297e-08
1.6666e-08
-2.55647e-08
1.84095e-08
-3.05499e-08
1.99716e-08
-3.58461e-08
2.1349e-08
-4.14141e-08
2.25441e-08
-4.72156e-08
2.35625e-08
-5.32133e-08
2.44126e-08
-5.93717e-08
2.51042e-08
-6.56572e-08
2.56483e-08
-7.20384e-08
2.60559e-08
-7.84863e-08
2.63384e-08
-8.49737e-08
2.65065e-08
-9.1476e-08
2.65706e-08
-9.79703e-08
2.65403e-08
-1.04436e-07
2.64244e-08
-1.10853e-07
2.62308e-08
-1.17206e-07
2.59667e-08
-1.23476e-07
2.56382e-08
-1.29651e-07
2.52507e-08
-1.35715e-07
2.48087e-08
-1.41657e-07
2.43162e-08
-1.47464e-07
2.37762e-08
-1.53125e-07
2.31912e-08
-1.5863e-07
2.25632e-08
-1.63966e-07
2.18938e-08
-1.69125e-07
2.11841e-08
-1.74097e-07
2.04348e-08
-1.78872e-07
1.96465e-08
-1.83441e-07
1.88194e-08
-1.87793e-07
1.79538e-08
-1.9192e-07
1.70496e-08
-1.95813e-07
1.61068e-08
-1.99461e-07
1.51253e-08
-2.02857e-07
1.41052e-08
-2.0599e-07
1.30465e-08
-2.08852e-07
1.19493e-08
-2.11433e-07
1.08138e-08
-2.13726e-07
9.64033e-09
-2.1572e-07
8.4295e-09
-2.17408e-07
7.18202e-09
-2.18782e-07
5.89885e-09
-2.19833e-07
4.58113e-09
-2.20554e-07
3.2303e-09
-2.20938e-07
1.84809e-09
-2.20979e-07
4.36493e-10
-2.2067e-07
-1.00218e-09
-2.20006e-07
-2.46531e-09
-2.18982e-07
-3.94992e-09
-2.17595e-07
-5.45269e-09
-2.15842e-07
-6.96991e-09
-2.1372e-07
-8.4975e-09
-2.11229e-07
-1.0031e-08
-2.08369e-07
-1.15656e-08
-2.05142e-07
-1.3096e-08
-2.0155e-07
-1.46166e-08
-1.97597e-07
-1.61212e-08
-1.93291e-07
-1.76034e-08
-1.88637e-07
-1.90563e-08
-1.83646e-07
-2.04725e-08
-1.78328e-07
-2.18445e-08
-1.72696e-07
-2.31641e-08
-1.66765e-07
-2.44229e-08
-1.60552e-07
-2.56121e-08
-1.54075e-07
-2.67225e-08
-1.47357e-07
-2.77448e-08
-1.4042e-07
-2.86694e-08
-1.33291e-07
-2.94864e-08
-1.25996e-07
-3.01858e-08
-1.18567e-07
-3.07575e-08
-1.11036e-07
-3.11914e-08
-1.03437e-07
-3.14775e-08
-9.58071e-08
-3.16059e-08
-8.81858e-08
-3.15672e-08
-8.06135e-08
-3.13523e-08
-7.31327e-08
-3.09525e-08
-6.57875e-08
-3.03603e-08
-5.8623e-08
-2.95691e-08
-5.16852e-08
-2.85736e-08
-4.50205e-08
-2.73702e-08
-3.86748e-08
-2.59577e-08
-3.26935e-08
-2.43377e-08
-2.71201e-08
-2.25152e-08
-2.19955e-08
-2.05001e-08
-1.73568e-08
-1.83081e-08
-1.32362e-08
-1.5963e-08
-9.65959e-09
-1.34983e-08
-6.64512e-09
-1.09608e-08
-4.20212e-09
-8.41416e-09
-2.3302e-09
-5.94397e-09
-1.01916e-09
-3.66273e-09
-2.50199e-10
-1.71641e-09
-3.03901e-10
-3.36565e-10
7.74305e-10
-1.31699e-09
2.91975e-09
-2.91974e-09
5.44626e-09
-5.1239e-09
8.19561e-09
-7.90758e-09
1.10278e-08
-1.12457e-08
1.38373e-08
-1.51088e-08
1.65478e-08
-1.94635e-08
1.91058e-08
-2.42728e-08
2.14753e-08
-2.94971e-08
2.36339e-08
-3.50955e-08
2.55699e-08
-4.10259e-08
2.72795e-08
-4.72467e-08
2.87649e-08
-5.37168e-08
3.00327e-08
-6.03967e-08
3.10924e-08
-6.72483e-08
3.19558e-08
-7.42357e-08
3.26357e-08
-8.13252e-08
3.31454e-08
-8.84852e-08
3.34984e-08
-9.56865e-08
3.37078e-08
-1.02902e-07
3.37862e-08
-1.10107e-07
3.37453e-08
-1.17279e-07
3.3596e-08
-1.24396e-07
3.33481e-08
-1.3144e-07
3.30103e-08
-1.38392e-07
3.25903e-08
-1.45236e-07
3.20949e-08
-1.51957e-07
3.15298e-08
-1.58541e-07
3.08998e-08
-1.64973e-07
3.0209e-08
-1.71243e-07
2.94605e-08
-1.77336e-07
2.86569e-08
-1.83243e-07
2.78003e-08
-1.88951e-07
2.68921e-08
-1.94449e-07
2.59334e-08
-1.99728e-07
2.49249e-08
-2.04776e-07
2.38671e-08
-2.09582e-07
2.27603e-08
-2.14137e-07
2.16047e-08
-2.18431e-07
2.04001e-08
-2.22452e-07
1.91468e-08
-2.26191e-07
1.78447e-08
-2.29639e-07
1.64939e-08
-2.32784e-07
1.50947e-08
-2.35618e-07
1.36474e-08
-2.3813e-07
1.21526e-08
-2.40311e-07
1.06109e-08
-2.42153e-07
9.02343e-09
-2.43645e-07
7.39135e-09
-2.4478e-07
5.7162e-09
-2.4555e-07
3.99985e-09
-2.45946e-07
2.2445e-09
-2.45963e-07
4.52722e-10
-2.45592e-07
-1.37255e-09
-2.4483e-07
-3.228e-09
-2.4367e-07
-5.10983e-09
-2.42108e-07
-7.01381e-09
-2.40143e-07
-8.93526e-09
-2.37772e-07
-1.0869e-08
-2.34993e-07
-1.28095e-08
-2.31808e-07
-1.47506e-08
-2.28219e-07
-1.66856e-08
-2.24228e-07
-1.86074e-08
-2.19841e-07
-2.05083e-08
-2.15064e-07
-2.23802e-08
-2.09905e-07
-2.42145e-08
-2.04376e-07
-2.60018e-08
-1.98488e-07
-2.77327e-08
-1.92255e-07
-2.93968e-08
-1.85694e-07
-3.09837e-08
-1.78824e-07
-3.24824e-08
-1.71665e-07
-3.38813e-08
-1.64241e-07
-3.51689e-08
-1.56578e-07
-3.6333e-08
-1.48703e-07
-3.73613e-08
-1.40647e-07
-3.82415e-08
-1.32444e-07
-3.89609e-08
-1.24128e-07
-3.95072e-08
-1.15737e-07
-3.98679e-08
-1.07312e-07
-4.0031e-08
-9.88949e-08
-3.99847e-08
-9.05291e-08
-3.97181e-08
-8.22608e-08
-3.92208e-08
-7.41373e-08
-3.84838e-08
-6.62073e-08
-3.74992e-08
-5.85198e-08
-3.6261e-08
-5.11244e-08
-3.47656e-08
-4.40703e-08
-3.30119e-08
-3.74055e-08
-3.10024e-08
-3.11767e-08
-2.87441e-08
-2.54273e-08
-2.62494e-08
-2.01975e-08
-2.35379e-08
-1.55228e-08
-2.06377e-08
-1.14329e-08
-1.75882e-08
-7.9509e-09
-1.44428e-08
-5.09291e-09
-1.12722e-08
-2.86777e-09
-8.1691e-09
-1.27806e-09
-5.25245e-09
-3.22235e-10
-2.67224e-09
-6.26133e-10
-4.03561e-10
1.17787e-09
-1.56056e-09
4.07675e-09
-3.42845e-09
7.31415e-09
-5.9692e-09
1.07364e-08
-9.14712e-09
1.42057e-08
-1.29263e-08
1.76165e-08
-1.72692e-08
2.08907e-08
-2.21359e-08
2.39725e-08
-2.74845e-08
2.68239e-08
-3.32716e-08
2.9421e-08
-3.94528e-08
3.17511e-08
-4.59836e-08
3.38102e-08
-5.28196e-08
3.56009e-08
-5.99177e-08
3.71308e-08
-6.7236e-08
3.84107e-08
-7.47344e-08
3.94542e-08
-8.23748e-08
4.02762e-08
-9.01216e-08
4.08922e-08
-9.79413e-08
4.1318e-08
-1.05803e-07
4.15692e-08
-1.13677e-07
4.16604e-08
-1.21537e-07
4.16058e-08
-1.29359e-07
4.14181e-08
-1.3712e-07
4.11091e-08
-1.44799e-07
4.06894e-08
-1.52377e-07
4.01683e-08
-1.59836e-07
3.95538e-08
-1.6716e-07
3.8853e-08
-1.74332e-07
3.80718e-08
-1.81338e-07
3.72151e-08
-1.88164e-07
3.62869e-08
-1.94798e-07
3.52903e-08
-2.01225e-07
3.42281e-08
-2.07435e-07
3.31019e-08
-2.13415e-07
3.19132e-08
-2.19153e-07
3.06632e-08
-2.24638e-07
2.93523e-08
-2.29859e-07
2.79811e-08
-2.34804e-07
2.65498e-08
-2.39463e-07
2.50585e-08
-2.43823e-07
2.35074e-08
-2.47875e-07
2.18967e-08
-2.51608e-07
2.02265e-08
-2.5501e-07
1.84971e-08
-2.58072e-07
1.67092e-08
-2.60783e-07
1.48634e-08
-2.63133e-07
1.29606e-08
-2.65112e-07
1.10023e-08
-2.6671e-07
8.98981e-09
-2.67919e-07
6.92519e-09
-2.6873e-07
4.81075e-09
-2.69135e-07
2.64922e-09
-2.69126e-07
4.43782e-10
-2.68696e-07
-1.80195e-09
-2.6784e-07
-4.08385e-09
-2.66553e-07
-6.39727e-09
-2.6483e-07
-8.737e-09
-2.62668e-07
-1.10973e-08
-2.60065e-07
-1.34719e-08
-2.57021e-07
-1.58538e-08
-2.53535e-07
-1.82357e-08
-2.49612e-07
-2.06092e-08
-2.45253e-07
-2.29658e-08
-2.40466e-07
-2.5296e-08
-2.35256e-07
-2.75899e-08
-2.29634e-07
-2.98369e-08
-2.2361e-07
-3.20258e-08
-2.17197e-07
-3.41448e-08
-2.10413e-07
-3.61816e-08
-2.03273e-07
-3.81232e-08
-1.95799e-07
-3.99563e-08
-1.88014e-07
-4.1667e-08
-1.79941e-07
-4.3241e-08
-1.71611e-07
-4.46639e-08
-1.63051e-07
-4.59207e-08
-1.54296e-07
-4.69963e-08
-1.45382e-07
-4.78758e-08
-1.36345e-07
-4.8544e-08
-1.27226e-07
-4.89863e-08
-1.18069e-07
-4.91881e-08
-1.08918e-07
-4.91356e-08
-9.98206e-08
-4.88157e-08
-9.0825e-08
-4.82164e-08
-8.19817e-08
-4.73271e-08
-7.3342e-08
-4.61389e-08
-6.4958e-08
-4.4645e-08
-5.6882e-08
-4.28416e-08
-4.91659e-08
-4.0728e-08
-4.18605e-08
-3.83078e-08
-3.50149e-08
-3.55897e-08
-2.86757e-08
-3.25886e-08
-2.2886e-08
-2.93275e-08
-1.76849e-08
-2.58388e-08
-1.31064e-08
-2.21667e-08
-9.17933e-09
-1.83698e-08
-5.92694e-09
-1.45245e-08
-3.36763e-09
-1.07284e-08
-1.51637e-09
-7.10371e-09
-3.87441e-10
-3.80116e-09
-1.01357e-09
-4.65338e-10
1.64321e-09
-1.78765e-09
5.39906e-09
-3.90592e-09
9.43243e-09
-6.76657e-09
1.3597e-08
-1.03209e-08
1.776e-08
-1.45222e-08
2.18178e-08
-1.93244e-08
2.56929e-08
-2.4681e-08
2.9329e-08
-3.05447e-08
3.26876e-08
-3.68679e-08
3.57442e-08
-4.36028e-08
3.84861e-08
-5.0702e-08
4.09094e-08
-5.81187e-08
4.30177e-08
-6.58075e-08
4.48195e-08
-7.37245e-08
4.63277e-08
-8.18278e-08
4.75575e-08
-9.00774e-08
4.85258e-08
-9.8436e-08
4.92508e-08
-1.06868e-07
4.97504e-08
-1.15342e-07
5.00425e-08
-1.23825e-07
5.01443e-08
-1.32292e-07
5.0072e-08
-1.40714e-07
4.98406e-08
-1.49069e-07
4.94639e-08
-1.57334e-07
4.89542e-08
-1.65488e-07
4.83225e-08
-1.73513e-07
4.75784e-08
-1.8139e-07
4.67301e-08
-1.89102e-07
4.57846e-08
-1.96635e-07
4.47479e-08
-2.03973e-07
4.36248e-08
-2.11102e-07
4.24192e-08
-2.18008e-07
4.11341e-08
-2.24678e-07
3.97719e-08
-2.31099e-07
3.83344e-08
-2.37259e-07
3.6823e-08
-2.43145e-07
3.52384e-08
-2.48745e-07
3.35813e-08
-2.54048e-07
3.18521e-08
-2.5904e-07
3.00511e-08
-2.63711e-07
2.81785e-08
-2.68049e-07
2.62347e-08
-2.72043e-07
2.42198e-08
-2.7568e-07
2.21345e-08
-2.7895e-07
1.99795e-08
-2.81842e-07
1.77555e-08
-2.84346e-07
1.5464e-08
-2.8645e-07
1.31064e-08
-2.88145e-07
1.06847e-08
-2.89421e-07
8.2012e-09
-2.90269e-07
5.6588e-09
-2.9068e-07
3.06077e-09
-2.90648e-07
4.10948e-10
-2.90163e-07
-2.28631e-09
-2.89221e-07
-5.02603e-09
-2.87816e-07
-7.80262e-09
-2.85943e-07
-1.06098e-08
-2.83599e-07
-1.34408e-08
-2.80783e-07
-1.62881e-08
-2.77494e-07
-1.91432e-08
-2.73732e-07
-2.19974e-08
-2.695e-07
-2.48408e-08
-2.64803e-07
-2.76631e-08
-2.59646e-07
-3.0453e-08
-2.54038e-07
-3.31986e-08
-2.47987e-07
-3.58874e-08
-2.41507e-07
-3.8506e-08
-2.34611e-07
-4.10403e-08
-2.27317e-07
-4.34756e-08
-2.19644e-07
-4.57965e-08
-2.11613e-07
-4.79872e-08
-2.03249e-07
-5.00312e-08
-1.94578e-07
-5.19117e-08
-1.85631e-07
-5.36113e-08
-1.76439e-07
-5.51124e-08
-1.67038e-07
-5.63974e-08
-1.57465e-07
-5.74485e-08
-1.47761e-07
-5.8248e-08
-1.37969e-07
-5.87787e-08
-1.28133e-07
-5.90237e-08
-1.18302e-07
-5.89667e-08
-1.08525e-07
-5.85929e-08
-9.88534e-08
-5.78882e-08
-8.93399e-08
-5.68407e-08
-8.00384e-08
-5.54403e-08
-7.10038e-08
-5.36797e-08
-6.22907e-08
-5.15547e-08
-5.39535e-08
-4.90651e-08
-4.60459e-08
-4.62155e-08
-3.86194e-08
-4.30161e-08
-3.17236e-08
-3.94844e-08
-2.54049e-08
-3.56463e-08
-1.97061e-08
-3.15376e-08
-1.46661e-08
-2.72067e-08
-1.03194e-08
-2.27165e-08
-6.69669e-09
-1.81473e-08
-3.82562e-09
-1.35995e-08
-1.7326e-09
-9.19672e-09
-4.45731e-10
-5.08802e-09
-1.4593e-09
-5.22041e-10
2.16526e-09
-1.99777e-09
6.8748e-09
-4.35058e-09
1.17852e-08
-7.5128e-09
1.67592e-08
-1.14235e-08
2.16707e-08
-1.60259e-08
2.64202e-08
-2.12653e-08
3.09323e-08
-2.70883e-08
3.51521e-08
-3.34423e-08
3.90416e-08
-4.02752e-08
4.25771e-08
-4.75355e-08
4.57464e-08
-5.51728e-08
4.85467e-08
-6.3138e-08
5.09828e-08
-7.13832e-08
5.30648e-08
-7.98627e-08
5.48072e-08
-8.85329e-08
5.62276e-08
-9.73522e-08
5.73452e-08
-1.06282e-07
5.81802e-08
-1.15284e-07
5.87533e-08
-1.24327e-07
5.90847e-08
-1.33376e-07
5.9194e-08
-1.42404e-07
5.90997e-08
-1.51383e-07
5.88191e-08
-1.60287e-07
5.83678e-08
-1.69093e-07
5.77602e-08
-1.77779e-07
5.70088e-08
-1.86325e-07
5.61248e-08
-1.94713e-07
5.51178e-08
-2.02925e-07
5.39959e-08
-2.10943e-07
5.27661e-08
-2.18752e-07
5.14341e-08
-2.26337e-07
5.00044e-08
-2.33684e-07
4.84807e-08
-2.40778e-07
4.68658e-08
-2.47605e-07
4.51621e-08
-2.54153e-07
4.3371e-08
-2.60409e-07
4.14937e-08
-2.66358e-07
3.9531e-08
-2.7199e-07
3.74835e-08
-2.77291e-07
3.53517e-08
-2.82248e-07
3.31359e-08
-2.8685e-07
3.08365e-08
-2.91084e-07
2.8454e-08
-2.94939e-07
2.59891e-08
-2.98402e-07
2.34426e-08
-3.01462e-07
2.08157e-08
-3.04108e-07
1.81099e-08
-3.06328e-07
1.53271e-08
-3.08113e-07
1.24696e-08
-3.09452e-07
9.54022e-09
-3.10336e-07
6.54239e-09
-3.10755e-07
3.47996e-09
-3.10702e-07
3.57463e-10
-3.10168e-07
-2.81995e-09
-3.09148e-07
-6.04641e-09
-3.07635e-07
-9.31534e-09
-3.05625e-07
-1.26194e-08
-3.03115e-07
-1.59506e-08
-3.00104e-07
-1.93e-08
-2.96589e-07
-2.26578e-08
-2.92573e-07
-2.60137e-08
-2.88057e-07
-2.93561e-08
-2.83048e-07
-3.26728e-08
-2.7755e-07
-3.59507e-08
-2.71573e-07
-3.9176e-08
-2.65126e-07
-4.23337e-08
-2.58224e-07
-4.54083e-08
-2.50881e-07
-4.83832e-08
-2.43115e-07
-5.12414e-08
-2.34947e-07
-5.39648e-08
-2.26399e-07
-5.6535e-08
-2.17498e-07
-5.89328e-08
-2.08271e-07
-6.11384e-08
-1.98751e-07
-6.31317e-08
-1.8897e-07
-6.48925e-08
-1.78968e-07
-6.64001e-08
-1.68782e-07
-6.76341e-08
-1.58456e-07
-6.8574e-08
-1.48035e-07
-6.91999e-08
-1.37566e-07
-6.94926e-08
-1.27099e-07
-6.94335e-08
-1.16687e-07
-6.90055e-08
-1.06382e-07
-6.8193e-08
-9.62401e-08
-6.69825e-08
-8.63176e-08
-6.53627e-08
-7.66716e-08
-6.33258e-08
-6.73591e-08
-6.08672e-08
-5.84371e-08
-5.79871e-08
-4.99616e-08
-5.4691e-08
-4.19871e-08
-5.09906e-08
-3.4566e-08
-4.69055e-08
-2.77483e-08
-4.2464e-08
-2.15808e-08
-3.77051e-08
-1.61071e-08
-3.26804e-08
-1.13676e-08
-2.7456e-08
-7.40021e-09
-2.21147e-08
-4.24111e-09
-1.67586e-08
-1.92693e-09
-1.15109e-08
-4.97396e-10
-6.51756e-09
-1.95669e-09
-5.73897e-10
2.73916e-09
-2.1915e-09
8.4924e-09
-4.76271e-09
1.43564e-08
-8.20745e-09
2.0204e-08
-1.24537e-08
2.5917e-08
-1.7435e-08
3.14015e-08
-2.30886e-08
3.65858e-08
-2.93541e-08
4.14176e-08
-3.61734e-08
4.58609e-08
-4.34898e-08
4.98935e-08
-5.12481e-08
5.35047e-08
-5.93948e-08
5.66934e-08
-6.7878e-08
5.9466e-08
-7.6648e-08
6.18347e-08
-8.5657e-08
6.38162e-08
-9.48597e-08
6.54302e-08
-1.04213e-07
6.66984e-08
-1.13676e-07
6.76437e-08
-1.23212e-07
6.8289e-08
-1.32785e-07
6.86573e-08
-1.42362e-07
6.87706e-08
-1.51911e-07
6.86497e-08
-1.61406e-07
6.8314e-08
-1.7082e-07
6.77814e-08
-1.80128e-07
6.7068e-08
-1.89307e-07
6.61882e-08
-1.98337e-07
6.51547e-08
-2.07198e-07
6.39784e-08
-2.1587e-07
6.26687e-08
-2.24338e-07
6.12335e-08
-2.32583e-07
5.96794e-08
-2.4059e-07
5.80118e-08
-2.48345e-07
5.62349e-08
-2.55831e-07
5.43522e-08
-2.63035e-07
5.23661e-08
-2.69943e-07
5.02787e-08
-2.7654e-07
4.80913e-08
-2.82814e-07
4.5805e-08
-2.88751e-07
4.34206e-08
-2.94338e-07
4.09387e-08
-2.99562e-07
3.83598e-08
-3.0441e-07
3.56843e-08
-3.08869e-07
3.2913e-08
-3.12927e-07
3.00468e-08
-3.16571e-07
2.70866e-08
-3.19789e-07
2.40339e-08
-3.2257e-07
2.08905e-08
-3.24901e-07
1.76586e-08
-3.26773e-07
1.4341e-08
-3.28173e-07
1.09409e-08
-3.29093e-07
7.46233e-09
-3.29523e-07
3.90974e-09
-3.29454e-07
2.88408e-10
-3.28878e-07
-3.39568e-09
-3.27789e-07
-7.13572e-09
-3.2618e-07
-1.09241e-08
-3.24047e-07
-1.47524e-08
-3.21387e-07
-1.86112e-08
-3.18196e-07
-2.24903e-08
-3.14475e-07
-2.63785e-08
-3.10226e-07
-3.02636e-08
-3.05449e-07
-3.41323e-08
-3.00151e-07
-3.79707e-08
-2.94339e-07
-4.17634e-08
-2.8802e-07
-4.54946e-08
-2.81207e-07
-4.91469e-08
-2.73913e-07
-5.27025e-08
-2.66153e-07
-5.61424e-08
-2.57948e-07