/*--------------------------------*- C++ -*----------------------------------*\
  =========                 |
  \\      /  F ield         | OpenFOAM: The Open Source CFD Toolbox
   \\    /   O peration     | Website:  https://openfoam.org
    \\  /    A nd           | Version:  7
     \\/     M anipulation  |
\*---------------------------------------------------------------------------*/
FoamFile
{
    version     2.0;
    format      ascii;
    class       volVectorField;
    location    "0.1875";
    object      U;
}
// * * * * * * * * * * * * * * * * * * * * * * * * * * * * * * * * * * * * * //

dimensions      [0 1 -1 0 0 0 0];

internalField   nonuniform List<vector> 
10000
(
(3.39567e-06 -2.79452e-06 0)
(1.04836e-05 -4.64151e-06 0)
(1.77449e-05 -3.95374e-06 0)
(1.9112e-05 -1.31164e-06 0)
(1.28088e-05 1.71478e-06 0)
(-1.81461e-06 4.52853e-06 0)
(-2.42892e-05 7.06726e-06 0)
(-5.38614e-05 9.32363e-06 0)
(-8.98713e-05 1.12644e-05 0)
(-0.000131564 1.29315e-05 0)
(-0.000178183 1.43572e-05 0)
(-0.000229078 1.55302e-05 0)
(-0.00028358 1.6504e-05 0)
(-0.000341083 1.73254e-05 0)
(-0.000401085 1.79813e-05 0)
(-0.000463068 1.84821e-05 0)
(-0.000526574 1.88635e-05 0)
(-0.000591245 1.91326e-05 0)
(-0.000656715 1.92956e-05 0)
(-0.00072266 1.93765e-05 0)
(-0.000788817 1.93824e-05 0)
(-0.000854949 1.93104e-05 0)
(-0.000920834 1.91806e-05 0)
(-0.000986279 1.90162e-05 0)
(-0.00105112 1.88143e-05 0)
(-0.00111521 1.85666e-05 0)
(-0.00117841 1.82818e-05 0)
(-0.00124059 1.79749e-05 0)
(-0.00130164 1.76465e-05 0)
(-0.00136146 1.72857e-05 0)
(-0.00141995 1.68898e-05 0)
(-0.001477 1.6465e-05 0)
(-0.00153252 1.60131e-05 0)
(-0.00158643 1.55308e-05 0)
(-0.00163863 1.50233e-05 0)
(-0.00168903 1.45018e-05 0)
(-0.00173753 1.39649e-05 0)
(-0.00178406 1.33968e-05 0)
(-0.0018285 1.27862e-05 0)
(-0.00187077 1.21386e-05 0)
(-0.00191074 1.1466e-05 0)
(-0.00194834 1.0772e-05 0)
(-0.00198346 1.00507e-05 0)
(-0.00201599 9.29657e-06 0)
(-0.00204584 8.5094e-06 0)
(-0.00207289 7.68935e-06 0)
(-0.00209703 6.83378e-06 0)
(-0.00211817 5.94136e-06 0)
(-0.00213621 5.01683e-06 0)
(-0.00215103 4.06765e-06 0)
(-0.00216254 3.09533e-06 0)
(-0.00217065 2.09335e-06 0)
(-0.00217526 1.0551e-06 0)
(-0.00217629 -1.8381e-08 0)
(-0.00217364 -1.119e-06 0)
(-0.00216724 -2.23801e-06 0)
(-0.00215703 -3.37162e-06 0)
(-0.00214294 -4.52089e-06 0)
(-0.00212494 -5.68764e-06 0)
(-0.00210297 -6.87043e-06 0)
(-0.00207702 -8.06395e-06 0)
(-0.00204706 -9.26115e-06 0)
(-0.00201312 -1.04549e-05 0)
(-0.0019752 -1.16388e-05 0)
(-0.00193335 -1.28075e-05 0)
(-0.00188761 -1.39573e-05 0)
(-0.00183808 -1.50848e-05 0)
(-0.00178483 -1.61848e-05 0)
(-0.00172799 -1.72492e-05 0)
(-0.00166769 -1.82684e-05 0)
(-0.00160411 -1.92331e-05 0)
(-0.00153742 -2.01363e-05 0)
(-0.00146785 -2.0972e-05 0)
(-0.00139562 -2.17348e-05 0)
(-0.001321 -2.24173e-05 0)
(-0.0012443 -2.30094e-05 0)
(-0.00116583 -2.34989e-05 0)
(-0.00108595 -2.38745e-05 0)
(-0.00100504 -2.41273e-05 0)
(-0.000923527 -2.42507e-05 0)
(-0.000841845 -2.42377e-05 0)
(-0.000760472 -2.40788e-05 0)
(-0.000679913 -2.37625e-05 0)
(-0.000600702 -2.32765e-05 0)
(-0.000523403 -2.26097e-05 0)
(-0.000448609 -2.17536e-05 0)
(-0.000376938 -2.07016e-05 0)
(-0.000309031 -1.9447e-05 0)
(-0.000245554 -1.79801e-05 0)
(-0.000187187 -1.62881e-05 0)
(-0.000134627 -1.43576e-05 0)
(-8.85711e-05 -1.21804e-05 0)
(-4.97039e-05 -9.75665e-06 0)
(-1.86663e-05 -7.09638e-06 0)
(3.99265e-06 -4.22981e-06 0)
(1.79112e-05 -1.23284e-06 0)
(2.30706e-05 1.71372e-06 0)
(2.01628e-05 4.18871e-06 0)
(1.17406e-05 5.29133e-06 0)
(3.31657e-06 3.32336e-06 0)
(4.44315e-06 -1.03655e-05 0)
(1.26872e-05 -1.28753e-05 0)
(1.44861e-05 -6.03105e-06 0)
(2.52765e-06 7.14588e-06 0)
(-2.72165e-05 2.23551e-05 0)
(-7.63297e-05 3.7497e-05 0)
(-0.00014447 5.18619e-05 0)
(-0.000230666 6.49901e-05 0)
(-0.000333503 7.67735e-05 0)
(-0.000451323 8.71921e-05 0)
(-0.00058249 9.62325e-05 0)
(-0.000725264 0.000103986 0)
(-0.000878015 0.000110534 0)
(-0.00103925 0.000115978 0)
(-0.00120749 0.000120416 0)
(-0.00138141 0.000123941 0)
(-0.00155983 0.000126633 0)
(-0.00174165 0.000128586 0)
(-0.00192586 0.000129886 0)
(-0.00211161 0.000130611 0)
(-0.0022981 0.000130816 0)
(-0.00248462 0.000130553 0)
(-0.00267056 0.000129889 0)
(-0.00285535 0.000128877 0)
(-0.0030385 0.000127543 0)
(-0.00321956 0.000125916 0)
(-0.00339812 0.000124031 0)
(-0.00357382 0.000121915 0)
(-0.00374631 0.00011958 0)
(-0.00391529 0.000117036 0)
(-0.00408045 0.000114296 0)
(-0.0042415 0.000111369 0)
(-0.00439816 0.000108252 0)
(-0.00455018 0.000104944 0)
(-0.00469727 0.000101453 0)
(-0.00483917 9.7787e-05 0)
(-0.00497562 9.39449e-05 0)
(-0.00510635 8.99127e-05 0)
(-0.00523109 8.56806e-05 0)
(-0.00534955 8.12499e-05 0)
(-0.00546147 7.6624e-05 0)
(-0.00556656 7.18002e-05 0)
(-0.00566455 6.6773e-05 0)
(-0.00575514 6.15415e-05 0)
(-0.00583806 5.61075e-05 0)
(-0.00591299 5.04686e-05 0)
(-0.00597967 4.46191e-05 0)
(-0.00603781 3.85581e-05 0)
(-0.00608713 3.22936e-05 0)
(-0.00612736 2.58372e-05 0)
(-0.00615822 1.9196e-05 0)
(-0.00617945 1.23708e-05 0)
(-0.00619083 5.36374e-06 0)
(-0.0061921 -1.81546e-06 0)
(-0.00618307 -9.14973e-06 0)
(-0.00616352 -1.66203e-05 0)
(-0.0061333 -2.42101e-05 0)
(-0.00609225 -3.19026e-05 0)
(-0.00604027 -3.96783e-05 0)
(-0.00597725 -4.75135e-05 0)
(-0.00590316 -5.53824e-05 0)
(-0.00581795 -6.32582e-05 0)
(-0.00572168 -7.11112e-05 0)
(-0.00561439 -7.89072e-05 0)
(-0.00549621 -8.66082e-05 0)
(-0.0053673 -9.41758e-05 0)
(-0.00522787 -0.000101573 0)
(-0.0050782 -0.000108762 0)
(-0.00491861 -0.000115701 0)
(-0.00474951 -0.000122343 0)
(-0.00457136 -0.000128637 0)
(-0.00438467 -0.000134532 0)
(-0.00419005 -0.000139978 0)
(-0.00398817 -0.000144924 0)
(-0.00377977 -0.000149318 0)
(-0.00356568 -0.000153104 0)
(-0.0033468 -0.000156219 0)
(-0.00312411 -0.000158604 0)
(-0.00289868 -0.000160198 0)
(-0.00267164 -0.000160943 0)
(-0.00244421 -0.000160785 0)
(-0.00221771 -0.000159665 0)
(-0.00199352 -0.000157525 0)
(-0.00177309 -0.000154306 0)
(-0.00155794 -0.000149951 0)
(-0.00134968 -0.000144409 0)
(-0.00114995 -0.000137633 0)
(-0.000960475 -0.000129583 0)
(-0.000782983 -0.000120225 0)
(-0.00061924 -0.000109534 0)
(-0.000470994 -9.75003e-05 0)
(-0.000339948 -8.41467e-05 0)
(-0.000227693 -6.9546e-05 0)
(-0.000135617 -5.38548e-05 0)
(-6.47539e-05 -3.73728e-05 0)
(-1.5545e-05 -2.0655e-05 0)
(1.24881e-05 -4.72096e-06 0)
(2.13429e-05 8.58673e-06 0)
(1.59269e-05 1.59719e-05 0)
(5.25438e-06 1.17166e-05 0)
(2.53413e-06 -1.59711e-05 0)
(3.52762e-06 -1.44694e-05 0)
(-9.71982e-06 6.60198e-06 0)
(-4.43959e-05 3.98285e-05 0)
(-0.000104793 7.78628e-05 0)
(-0.000192759 0.000116734 0)
(-0.000308286 0.000154196 0)
(-0.000450263 0.000189125 0)
(-0.0006169 0.000220953 0)
(-0.000806127 0.000249365 0)
(-0.00101554 0.000274368 0)
(-0.00124273 0.000296022 0)
(-0.00148539 0.000314456 0)
(-0.0017412 0.000329909 0)
(-0.00200802 0.00034261 0)
(-0.00228386 0.000352759 0)
(-0.00256684 0.000360606 0)
(-0.00285528 0.000366381 0)
(-0.00314766 0.00037029 0)
(-0.00344257 0.000372538 0)
(-0.00373876 0.000373302 0)
(-0.00403512 0.000372734 0)
(-0.00433063 0.000370989 0)
(-0.00462439 0.000368195 0)
(-0.00491559 0.000364456 0)
(-0.00520351 0.000359861 0)
(-0.00548746 0.000354495 0)
(-0.00576684 0.000348424 0)
(-0.00604109 0.000341697 0)
(-0.0063097 0.000334352 0)
(-0.00657217 0.000326426 0)
(-0.00682801 0.000317945 0)
(-0.00707679 0.000308917 0)
(-0.00731807 0.000299345 0)
(-0.0075514 0.000289239 0)
(-0.00777635 0.000278606 0)
(-0.0079925 0.000267441 0)
(-0.00819943 0.000255734 0)
(-0.00839669 0.000243479 0)
(-0.00858386 0.000230672 0)
(-0.00876049 0.000217309 0)
(-0.00892614 0.000203379 0)
(-0.00908038 0.000188875 0)
(-0.00922275 0.000173795 0)
(-0.00935281 0.000158144 0)
(-0.00947011 0.000141922 0)
(-0.00957421 0.000125125 0)
(-0.00966468 0.000107755 0)
(-0.00974108 8.98269e-05 0)
(-0.00980299 7.13587e-05 0)
(-0.00985001 5.23685e-05 0)
(-0.00988174 3.28734e-05 0)
(-0.00989783 1.28962e-05 0)
(-0.00989793 -7.5312e-06 0)
(-0.0098817 -2.83696e-05 0)
(-0.00984887 -4.95763e-05 0)
(-0.00979917 -7.11054e-05 0)
(-0.00973241 -9.29049e-05 0)
(-0.00964842 -0.000114915 0)
(-0.00954707 -0.000137067 0)
(-0.0094283 -0.00015929 0)
(-0.00929208 -0.000181508 0)
(-0.00913849 -0.000203639 0)
(-0.00896763 -0.000225593 0)
(-0.00877971 -0.00024727 0)
(-0.008575 -0.000268563 0)
(-0.00835383 -0.000289363 0)
(-0.00811666 -0.000309557 0)
(-0.00786402 -0.000329026 0)
(-0.00759653 -0.000347643 0)
(-0.00731493 -0.000365275 0)
(-0.00702006 -0.00038178 0)
(-0.00671284 -0.000397014 0)
(-0.00639434 -0.000410829 0)
(-0.00606573 -0.000423076 0)
(-0.00572831 -0.000433598 0)
(-0.00538348 -0.000442235 0)
(-0.00503278 -0.000448823 0)
(-0.00467786 -0.000453199 0)
(-0.0043205 -0.0004552 0)
(-0.0039626 -0.000454669 0)
(-0.00360619 -0.000451448 0)
(-0.00325339 -0.000445383 0)
(-0.00290645 -0.000436326 0)
(-0.00256772 -0.000424134 0)
(-0.00223962 -0.000408679 0)
(-0.00192468 -0.000389848 0)
(-0.00162546 -0.000367553 0)
(-0.00134457 -0.000341735 0)
(-0.00108461 -0.000312381 0)
(-0.000848096 -0.000279541 0)
(-0.000637462 -0.000243363 0)
(-0.000454897 -0.00020415 0)
(-0.000302229 -0.000162438 0)
(-0.000180714 -0.000119144 0)
(-9.07419e-05 -7.57873e-05 0)
(-3.14531e-05 -3.48648e-05 0)
(-1.7066e-07 -3.67194e-07 0)
(8.62204e-06 2.1387e-05 0)
(4.15263e-06 2.00844e-05 0)
(3.504e-07 -1.6175e-05 0)
(-9.00931e-06 -1.54206e-06 0)
(-4.26497e-05 4.1607e-05 0)
(-0.000105678 0.000102327 0)
(-0.000201356 0.000170887 0)
(-0.00033147 0.000241125 0)
(-0.000495938 0.000309449 0)
(-0.000693447 0.000373734 0)
(-0.000922073 0.000432707 0)
(-0.00117924 0.000485817 0)
(-0.00146219 0.000532858 0)
(-0.00176805 0.00057383 0)
(-0.00209385 0.000608966 0)
(-0.00243678 0.000638574 0)
(-0.00279414 0.000663011 0)
(-0.00316337 0.000682677 0)
(-0.00354207 0.000697981 0)
(-0.00392806 0.000709315 0)
(-0.00431931 0.000717069 0)
(-0.00471401 0.000721605 0)
(-0.0051105 0.000723252 0)
(-0.00550727 0.000722316 0)
(-0.00590295 0.000719071 0)
(-0.00629635 0.000713752 0)
(-0.00668634 0.000706562 0)
(-0.00707194 0.000697688 0)
(-0.00745222 0.000687288 0)
(-0.00782635 0.00067548 0)
(-0.00819357 0.00066236 0)
(-0.00855314 0.000648015 0)
(-0.00890438 0.000632514 0)
(-0.00924666 0.000615902 0)
(-0.00957935 0.000598208 0)
(-0.00990186 0.000579457 0)
(-0.0102136 0.000559663 0)
(-0.0105139 0.000538829 0)
(-0.0108024 0.000516947 0)
(-0.0110782 0.000494011 0)
(-0.011341 0.000470021 0)
(-0.0115902 0.00044497 0)
(-0.011825 0.000418846 0)
(-0.0120451 0.000391632 0)
(-0.0122497 0.000363321 0)
(-0.0124382 0.000333915 0)
(-0.0126102 0.000303415 0)
(-0.012765 0.000271821 0)
(-0.0129021 0.00023914 0)
(-0.0130208 0.000205385 0)
(-0.0131207 0.000170583 0)
(-0.0132011 0.000134761 0)
(-0.0132616 9.79498e-05 0)
(-0.0133016 6.0191e-05 0)
(-0.0133208 2.15374e-05 0)
(-0.0133186 -1.79463e-05 0)
(-0.0132946 -5.81871e-05 0)
(-0.0132485 -9.91058e-05 0)
(-0.01318 -0.000140615 0)
(-0.0130888 -0.000182612 0)
(-0.0129746 -0.000224983 0)
(-0.0128375 -0.000267599 0)
(-0.0126772 -0.000310321 0)
(-0.0124939 -0.000353003 0)
(-0.0122875 -0.000395488 0)
(-0.0120583 -0.000437603 0)
(-0.0118066 -0.000479164 0)
(-0.0115327 -0.000519969 0)
(-0.0112371 -0.00055981 0)
(-0.0109203 -0.000598467 0)
(-0.0105832 -0.000635712 0)
(-0.0102266 -0.000671303 0)
(-0.0098514 -0.000704984 0)
(-0.00945874 -0.000736493 0)
(-0.00904988 -0.000765554 0)
(-0.00862622 -0.000791888 0)
(-0.00818932 -0.000815206 0)
(-0.00774088 -0.000835211 0)
(-0.00728276 -0.000851604 0)
(-0.00681697 -0.000864078 0)
(-0.0063457 -0.00087233 0)
(-0.00587126 -0.000876057 0)
(-0.00539615 -0.000874961 0)
(-0.004923 -0.000868748 0)
(-0.00445459 -0.000857137 0)
(-0.00399383 -0.00083986 0)
(-0.00354373 -0.000816668 0)
(-0.00310745 -0.000787345 0)
(-0.00268818 -0.000751709 0)
(-0.00228921 -0.000709627 0)
(-0.0019138 -0.000661039 0)
(-0.0015652 -0.000605982 0)
(-0.00124652 -0.00054463 0)
(-0.000960705 -0.000477354 0)
(-0.000710362 -0.000404816 0)
(-0.000497615 -0.000328102 0)
(-0.000323882 -0.00024894 0)
(-0.00018959 -0.000170015 0)
(-9.37933e-05 -9.54605e-05 0)
(-3.37033e-05 -3.14658e-05 0)
(-4.31862e-06 1.28128e-05 0)
(1.73243e-06 2.30235e-05 0)
(-2.1087e-06 -8.84178e-06 0)
(-2.33132e-05 2.95323e-05 0)
(-8.02044e-05 0.000103082 0)
(-0.000174535 0.000198468 0)
(-0.000308186 0.000303931 0)
(-0.00048231 0.000411668 0)
(-0.00069644 0.000516754 0)
(-0.000949131 0.000616007 0)
(-0.00123803 0.000707583 0)
(-0.00156033 0.000790476 0)
(-0.00191294 0.000864205 0)
(-0.00229255 0.000928774 0)
(-0.00269584 0.000984394 0)
(-0.00311954 0.00103145 0)
(-0.00356051 0.00107047 0)
(-0.00401574 0.001102 0)
(-0.00448241 0.00112665 0)
(-0.00495792 0.00114501 0)
(-0.00543984 0.00115765 0)
(-0.00592598 0.00116511 0)
(-0.00641431 0.00116793 0)
(-0.00690299 0.00116657 0)
(-0.00739035 0.00116145 0)
(-0.00787491 0.00115294 0)
(-0.00835527 0.00114138 0)
(-0.00883019 0.00112705 0)
(-0.00929853 0.00111021 0)
(-0.00975925 0.00109105 0)
(-0.0102114 0.00106973 0)
(-0.010654 0.0010464 0)
(-0.0110862 0.00102117 0)
(-0.0115073 0.000994091 0)
(-0.0119164 0.000965239 0)
(-0.0123129 0.000934661 0)
(-0.0126959 0.000902385 0)
(-0.0130647 0.000868413 0)
(-0.0134186 0.000832743 0)
(-0.013757 0.000795374 0)
(-0.014079 0.000756302 0)
(-0.014384 0.000715518 0)
(-0.0146713 0.000673006 0)
(-0.0149402 0.000628755 0)
(-0.0151899 0.000582762 0)
(-0.0154198 0.000535025 0)
(-0.0156291 0.000485544 0)
(-0.0158171 0.000434323 0)
(-0.0159832 0.00038138 0)
(-0.0161267 0.000326745 0)
(-0.0162469 0.00027046 0)
(-0.0163431 0.000212569 0)
(-0.0164148 0.000153127 0)
(-0.0164614 9.2202e-05 0)
(-0.0164822 2.98818e-05 0)
(-0.0164768 -3.37304e-05 0)
(-0.0164447 -9.85178e-05 0)
(-0.0163856 -0.000164351 0)
(-0.0162989 -0.000231084 0)
(-0.0161845 -0.000298554 0)
(-0.0160421 -0.000366577 0)
(-0.0158715 -0.000434954 0)
(-0.0156728 -0.000503464 0)
(-0.0154458 -0.000571873 0)
(-0.0151909 -0.000639925 0)
(-0.0149081 -0.000707342 0)
(-0.0145979 -0.000773832 0)
(-0.0142607 -0.000839081 0)
(-0.0138972 -0.000902758 0)
(-0.013508 -0.000964515 0)
(-0.0130941 -0.00102398 0)
(-0.0126565 -0.00108078 0)
(-0.0121964 -0.00113449 0)
(-0.0117152 -0.0011847 0)
(-0.0112143 -0.00123099 0)
(-0.0106956 -0.00127291 0)
(-0.0101609 -0.00130999 0)
(-0.00961223 -0.00134178 0)
(-0.00905191 -0.00136779 0)
(-0.00848234 -0.00138756 0)
(-0.00790617 -0.0014006 0)
(-0.00732619 -0.00140645 0)
(-0.00674541 -0.00140464 0)
(-0.00616697 -0.00139471 0)
(-0.00559419 -0.00137625 0)
(-0.00503055 -0.00134884 0)
(-0.00447965 -0.00131212 0)
(-0.00394517 -0.00126577 0)
(-0.00343092 -0.00120957 0)
(-0.00294072 -0.00114334 0)
(-0.00247837 -0.00106707 0)
(-0.00204761 -0.000980867 0)
(-0.00165201 -0.000885104 0)
(-0.0012949 -0.000780448 0)
(-0.000979211 -0.000668009 0)
(-0.000707312 -0.00054952 0)
(-0.000480819 -0.000427595 0)
(-0.000300343 -0.000306113 0)
(-0.00016515 -0.000190753 0)
(-7.27842e-05 -8.96403e-05 0)
(-1.95284e-05 -1.42509e-05 0)
(-1.08719e-06 1.817e-05 0)
(-4.67895e-06 6.15507e-06 0)
(-3.8251e-05 7.98093e-05 0)
(-0.000119395 0.000192777 0)
(-0.000246385 0.000330063 0)
(-0.000419116 0.000478629 0)
(-0.000637892 0.000629433 0)
(-0.000901793 0.000776311 0)
(-0.00120881 0.000915325 0)
(-0.00155632 0.00104399 0)
(-0.00194121 0.0011608 0)
(-0.00236005 0.00126511 0)
(-0.00280924 0.00135678 0)
(-0.00328513 0.00143601 0)
(-0.00378411 0.00150328 0)
(-0.00430266 0.00155923 0)
(-0.00483745 0.00160461 0)
(-0.00538529 0.00164019 0)
(-0.00594323 0.00166678 0)
(-0.00650852 0.00168516 0)
(-0.00707862 0.00169609 0)
(-0.00765122 0.00170028 0)
(-0.00822417 0.0016984 0)
(-0.00879555 0.00169102 0)
(-0.00936359 0.00167868 0)
(-0.00992668 0.00166187 0)
(-0.0104833 0.00164098 0)
(-0.0110322 0.00161636 0)
(-0.0115721 0.00158832 0)
(-0.0121018 0.00155709 0)
(-0.0126202 0.00152289 0)
(-0.0131264 0.00148586 0)
(-0.0136194 0.00144613 0)
(-0.0140981 0.00140378 0)
(-0.0145619 0.00135888 0)
(-0.0150096 0.00131148 0)
(-0.0154407 0.00126159 0)
(-0.015854 0.00120924 0)
(-0.016249 0.00115441 0)
(-0.0166246 0.00109711 0)
(-0.0169801 0.00103732 0)
(-0.0173147 0.000975029 0)
(-0.0176275 0.00091023 0)
(-0.0179177 0.000842922 0)
(-0.0181846 0.000773109 0)
(-0.0184271 0.000700793 0)
(-0.0186447 0.000625988 0)
(-0.0188365 0.000548724 0)
(-0.0190017 0.000469047 0)
(-0.0191395 0.000387016 0)
(-0.0192493 0.000302699 0)
(-0.0193303 0.000216184 0)
(-0.0193819 0.000127575 0)
(-0.0194034 3.70018e-05 0)
(-0.0193942 -5.53887e-05 0)
(-0.0193539 -0.000149429 0)
(-0.0192819 -0.000244932 0)
(-0.0191779 -0.000341682 0)
(-0.0190416 -0.00043944 0)
(-0.0188726 -0.00053794 0)
(-0.018671 -0.000636894 0)
(-0.0184365 -0.000735991 0)
(-0.0181693 -0.000834891 0)
(-0.0178695 -0.000933224 0)
(-0.0175375 -0.00103059 0)
(-0.0171737 -0.00112657 0)
(-0.0167786 -0.00122071 0)
(-0.0163529 -0.00131254 0)
(-0.0158976 -0.00140156 0)
(-0.0154137 -0.00148724 0)
(-0.0149024 -0.00156902 0)
(-0.0143652 -0.00164633 0)
(-0.0138035 -0.00171857 0)
(-0.0132192 -0.00178512 0)
(-0.0126143 -0.00184535 0)
(-0.0119909 -0.0018986 0)
(-0.0113515 -0.00194422 0)
(-0.0106987 -0.00198152 0)
(-0.0100352 -0.00200984 0)
(-0.00936406 -0.00202851 0)
(-0.00868856 -0.00203685 0)
(-0.00801209 -0.00203423 0)
(-0.00733825 -0.00202001 0)
(-0.00667083 -0.0019936 0)
(-0.00601375 -0.00195446 0)
(-0.00537109 -0.00190209 0)
(-0.00474702 -0.00183611 0)
(-0.00414581 -0.00175621 0)
(-0.00357171 -0.00166223 0)
(-0.00302895 -0.0015542 0)
(-0.00252168 -0.00143239 0)
(-0.00205382 -0.00129738 0)
(-0.00162901 -0.0011502 0)
(-0.00125049 -0.000992439 0)
(-0.000920866 -0.00082652 0)
(-0.000642041 -0.000655937 0)
(-0.000414962 -0.000485684 0)
(-0.00023935 -0.000322793 0)
(-0.000113415 -0.000176954 0)
(-3.51522e-05 -6.13491e-05 0)
(-3.87859e-06 5.03686e-06 0)
(-7.16981e-06 2.88516e-05 0)
(-5.29167e-05 0.000149649 0)
(-0.000158362 0.000311167 0)
(-0.000318009 0.000497665 0)
(-0.000529777 0.000695417 0)
(-0.000793036 0.000894357 0)
(-0.00110601 0.00108762 0)
(-0.00146618 0.0012705 0)
(-0.0018705 0.00143996 0)
(-0.00231553 0.00159416 0)
(-0.0027975 0.0017322 0)
(-0.00331254 0.00185382 0)
(-0.00385673 0.00195921 0)
(-0.00442615 0.00204893 0)
(-0.00501702 0.00212375 0)
(-0.00562568 0.00218456 0)
(-0.00624868 0.00223236 0)
(-0.00688277 0.00226815 0)
(-0.00752493 0.00229295 0)
(-0.00817234 0.00230772 0)
(-0.00882241 0.0023134 0)
(-0.00947278 0.00231082 0)
(-0.0101213 0.00230078 0)
(-0.0107659 0.00228398 0)
(-0.0114048 0.00226105 0)
(-0.0120363 0.00223253 0)
(-0.0126589 0.00219889 0)
(-0.0132712 0.00216053 0)
(-0.0138719 0.00211779 0)
(-0.0144596 0.00207094 0)
(-0.0150333 0.00202019 0)
(-0.0155918 0.00196572 0)
(-0.0161341 0.00190767 0)
(-0.0166591 0.00184612 0)
(-0.0171659 0.00178113 0)
(-0.0176535 0.00171274 0)
(-0.0181209 0.00164099 0)
(-0.0185672 0.00156588 0)
(-0.0189914 0.0014874 0)
(-0.0193926 0.00140556 0)
(-0.0197699 0.00132034 0)
(-0.0201223 0.00123174 0)
(-0.020449 0.00113976 0)
(-0.020749 0.0010444 0)
(-0.0210214 0.000945684 0)
(-0.0212653 0.000843637 0)
(-0.0214798 0.000738307 0)
(-0.0216642 0.000629757 0)
(-0.0218174 0.000518065 0)
(-0.0219389 0.000403329 0)
(-0.0220277 0.000285672 0)
(-0.0220831 0.000165244 0)
(-0.0221045 4.22222e-05 0)
(-0.0220912 -8.31945e-05 0)
(-0.0220427 -0.00021078 0)
(-0.0219584 -0.000340277 0)
(-0.0218379 -0.000471395 0)
(-0.021681 -0.000603809 0)
(-0.0214873 -0.000737161 0)
(-0.0212566 -0.000871061 0)
(-0.0209891 -0.00100509 0)
(-0.0206846 -0.00113878 0)
(-0.0203436 -0.00127165 0)
(-0.0199663 -0.00140315 0)
(-0.0195531 -0.00153273 0)
(-0.0191049 -0.00165976 0)
(-0.0186224 -0.00178363 0)
(-0.0181067 -0.00190364 0)
(-0.0175588 -0.0020191 0)
(-0.0169803 -0.00212927 0)
(-0.0163726 -0.00223336 0)
(-0.0157376 -0.00233058 0)
(-0.0150774 -0.00242011 0)
(-0.014394 -0.00250109 0)
(-0.01369 -0.00257266 0)
(-0.0129681 -0.00263394 0)
(-0.0122311 -0.00268403 0)
(-0.0114823 -0.00272205 0)
(-0.0107248 -0.0027471 0)
(-0.00996248 -0.00275832 0)
(-0.00919895 -0.00275485 0)
(-0.00843824 -0.00273589 0)
(-0.00768451 -0.00270066 0)
(-0.0069421 -0.00264848 0)
(-0.00621548 -0.00257875 0)
(-0.00550921 -0.00249097 0)
(-0.00482793 -0.00238481 0)
(-0.00417628 -0.00226013 0)
(-0.00355882 -0.00211703 0)
(-0.00298004 -0.00195595 0)
(-0.00244416 -0.00177771 0)
(-0.00195512 -0.00158373 0)
(-0.00151642 -0.00137611 0)
(-0.00113099 -0.00115793 0)
(-0.000801088 -0.000933486 0)
(-0.00052813 -0.000708762 0)
(-0.000312474 -0.000491886 0)
(-0.000153201 -0.000293714 0)
(-5.02052e-05 -0.000128543 0)
(-6.46805e-06 -1.61634e-05 0)
(-9.46108e-06 5.90009e-05 0)
(-6.69153e-05 0.000238556 0)
(-0.000195903 0.000457812 0)
(-0.000387411 0.000700876 0)
(-0.000637443 0.000953629 0)
(-0.000944184 0.00120566 0)
(-0.00130502 0.00144947 0)
(-0.0017168 0.00167985 0)
(-0.00217596 0.00189332 0)
(-0.00267866 0.00208781 0)
(-0.00322083 0.00226216 0)
(-0.00379832 0.00241603 0)
(-0.00440691 0.00254964 0)
(-0.00504247 0.00266359 0)
(-0.00570093 0.00275878 0)
(-0.00637843 0.0028363 0)
(-0.00707125 0.00289731 0)
(-0.00777591 0.00294304 0)
(-0.00848914 0.00297473 0)
(-0.0092079 0.00299359 0)
(-0.00992939 0.00300074 0)
(-0.010651 0.00299726 0)
(-0.0113704 0.00298411 0)
(-0.0120853 0.0029622 0)
(-0.0127938 0.00293231 0)
(-0.0134941 0.00289514 0)
(-0.0141843 0.00285127 0)
(-0.0148629 0.00280125 0)
(-0.0155285 0.00274548 0)
(-0.0161796 0.00268432 0)
(-0.016815 0.00261806 0)
(-0.0174335 0.00254693 0)
(-0.0180338 0.00247112 0)
(-0.0186148 0.00239073 0)
(-0.0191754 0.00230586 0)
(-0.0197145 0.00221657 0)
(-0.0202311 0.00212291 0)
(-0.020724 0.0020249 0)
(-0.0211924 0.00192254 0)
(-0.021635 0.00181582 0)
(-0.022051 0.00170475 0)
(-0.0224393 0.00158933 0)
(-0.0227989 0.00146958 0)
(-0.0231288 0.00134549 0)
(-0.023428 0.0012171 0)
(-0.0236955 0.00108445 0)
(-0.0239304 0.000947617 0)
(-0.0241318 0.000806678 0)
(-0.0242987 0.000661739 0)
(-0.0244303 0.000512932 0)
(-0.0245257 0.000360422 0)
(-0.0245842 0.000204406 0)
(-0.024605 4.51111e-05 0)
(-0.0245874 -0.000117202 0)
(-0.0245309 -0.000282238 0)
(-0.0244349 -0.000449662 0)
(-0.0242989 -0.000619098 0)
(-0.0241227 -0.000790129 0)
(-0.0239059 -0.000962294 0)
(-0.0236484 -0.00113509 0)
(-0.0233502 -0.00130798 0)
(-0.0230114 -0.00148037 0)
(-0.0226322 -0.00165161 0)
(-0.0222132 -0.00182103 0)
(-0.0217548 -0.00198789 0)
(-0.0212578 -0.00215142 0)
(-0.0207232 -0.00231081 0)
(-0.020152 -0.00246519 0)
(-0.0195455 -0.00261365 0)
(-0.0189054 -0.00275524 0)
(-0.0182334 -0.00288897 0)
(-0.0175314 -0.00301384 0)
(-0.0168016 -0.00312877 0)
(-0.0160466 -0.00323271 0)
(-0.0152689 -0.00332453 0)
(-0.0144716 -0.00340313 0)
(-0.0136578 -0.00346737 0)
(-0.0128309 -0.00351613 0)
(-0.0119946 -0.0035483 0)
(-0.0111528 -0.00356278 0)
(-0.0103096 -0.00355851 0)
(-0.00946937 -0.00353448 0)
(-0.0086365 -0.00348976 0)
(-0.00781572 -0.0034235 0)
(-0.00701182 -0.00333499 0)
(-0.00622971 -0.00322367 0)
(-0.00547434 -0.00308917 0)
(-0.00475065 -0.00293137 0)
(-0.00406353 -0.00275047 0)
(-0.00341772 -0.00254708 0)
(-0.00281776 -0.00232231 0)
(-0.00226785 -0.00207793 0)
(-0.0017718 -0.00181655 0)
(-0.0013329 -0.00154183 0)
(-0.000953808 -0.00125881 0)
(-0.000636537 -0.000974253 0)
(-0.000382188 -0.000697135 0)
(-0.000190813 -0.000439103 0)
(-6.4206e-05 -0.000215059 0)
(-8.79416e-06 -4.49096e-05 0)
(-1.15738e-05 9.61018e-05 0)
(-7.99974e-05 0.000345663 0)
(-0.000231379 0.000631697 0)
(-0.000453519 0.000938476 0)
(-0.000740393 0.00125211 0)
(-0.00108911 0.00156196 0)
(-0.00149619 0.00186025 0)
(-0.0019577 0.00214144 0)
(-0.00246953 0.00240182 0)
(-0.00302741 0.00263906 0)
(-0.00362695 0.00285188 0)
(-0.00426366 0.00303991 0)
(-0.0049331 0.00320338 0)
(-0.00563087 0.00334298 0)
(-0.0063527 0.00345973 0)
(-0.00709451 0.0035549 0)
(-0.00785238 0.00362986 0)
(-0.00862261 0.00368606 0)
(-0.00940173 0.00372496 0)
(-0.0101865 0.003748 0)
(-0.010974 0.00375653 0)
(-0.0117614 0.00375184 0)
(-0.0125461 0.00373512 0)
(-0.0133258 0.00370744 0)
(-0.0140983 0.00366977 0)
(-0.0148616 0.00362295 0)
(-0.0156139 0.00356773 0)
(-0.0163534 0.00350474 0)
(-0.0170785 0.00343452 0)
(-0.0177878 0.0033575 0)
(-0.0184798 0.00327406 0)
(-0.0191531 0.00318447 0)
(-0.0198064 0.00308897 0)
(-0.0204386 0.00298772 0)
(-0.0210484 0.00288085 0)
(-0.0216346 0.00276843 0)
(-0.022196 0.00265054 0)
(-0.0227316 0.0025272 0)
(-0.0232402 0.00239843 0)
(-0.0237206 0.00226424 0)
(-0.0241719 0.00212463 0)
(-0.0245928 0.00197963 0)
(-0.0249823 0.00182924 0)
(-0.0253393 0.00167349 0)
(-0.0256627 0.00151241 0)
(-0.0259516 0.00134609 0)
(-0.0262049 0.00117459 0)
(-0.0264216 0.000998038 0)
(-0.0266007 0.000816565 0)
(-0.0267413 0.000630344 0)
(-0.0268425 0.000439583 0)
(-0.0269034 0.00024453 0)
(-0.0269234 4.54712e-05 0)
(-0.0269016 -0.000157269 0)
(-0.0268375 -0.000363321 0)
(-0.0267305 -0.000572261 0)
(-0.02658 -0.000783621 0)
(-0.0263858 -0.00099688 0)
(-0.0261476 -0.00121147 0)
(-0.0258652 -0.00142676 0)
(-0.0255387 -0.00164209 0)
(-0.0251682 -0.00185671 0)
(-0.024754 -0.00206982 0)
(-0.0242966 -0.00228059 0)
(-0.0237965 -0.00248811 0)
(-0.0232546 -0.00269141 0)
(-0.022672 -0.0028895 0)
(-0.0220498 -0.00308129 0)
(-0.0213896 -0.00326566 0)
(-0.0206929 -0.00344145 0)
(-0.0199617 -0.00360743 0)
(-0.0191981 -0.00376236 0)
(-0.0184046 -0.00390492 0)
(-0.0175837 -0.00403381 0)
(-0.0167384 -0.00414765 0)
(-0.0158718 -0.00424509 0)
(-0.0149874 -0.00432474 0)
(-0.0140889 -0.00438523 0)
(-0.0131801 -0.00442521 0)
(-0.0122652 -0.00444335 0)
(-0.0113487 -0.00443837 0)
(-0.010435 -0.00440907 0)
(-0.00952914 -0.00435434 0)
(-0.00863592 -0.00427319 0)
(-0.00776048 -0.00416478 0)
(-0.00690799 -0.00402848 0)
(-0.0060837 -0.00386391 0)
(-0.00529281 -0.00367097 0)
(-0.00454049 -0.00344999 0)
(-0.00383174 -0.00320173 0)
(-0.00317137 -0.00292759 0)
(-0.00256389 -0.00262968 0)
(-0.00201343 -0.00231105 0)
(-0.00152365 -0.0019759 0)
(-0.00109773 -0.00162986 0)
(-0.000738283 -0.00128033 0)
(-0.000447222 -0.000936871 0)
(-0.000225587 -0.000611604 0)
(-7.69547e-05 -0.000319638 0)
(-1.08465e-05 -8.05374e-05 0)
(-1.34931e-05 0.000139648 0)
(-9.20858e-05 0.000469918 0)
(-0.000264572 0.000831358 0)
(-0.000515695 0.00120898 0)
(-0.000837673 0.0015892 0)
(-0.00122655 0.00196149 0)
(-0.0016779 0.00231802 0)
(-0.00218701 0.00265317 0)
(-0.00274921 0.00296306 0)
(-0.00335975 0.00324523 0)
(-0.00401386 0.00349841 0)
(-0.00470674 0.00372219 0)
(-0.00543369 0.00391686 0)
(-0.00619008 0.00408322 0)
(-0.00697144 0.00422245 0)
(-0.00777348 0.00433598 0)
(-0.00859209 0.00442541 0)
(-0.00942341 0.00449241 0)
(-0.0102638 0.00453868 0)
(-0.0111099 0.00456587 0)
(-0.0119585 0.00457559 0)
(-0.0128066 0.00456934 0)
(-0.0136517 0.00454853 0)
(-0.0144911 0.00451442 0)
(-0.0153227 0.00446814 0)
(-0.0161441 0.00441073 0)
(-0.0169535 0.00434306 0)
(-0.017749 0.0042659 0)
(-0.0185289 0.00417988 0)
(-0.0192916 0.00408555 0)
(-0.0200355 0.00398335 0)
(-0.0207591 0.00387363 0)
(-0.0214612 0.00375667 0)
(-0.0221404 0.00363269 0)
(-0.0227952 0.00350183 0)
(-0.0234246 0.00336423 0)
(-0.0240272 0.00321996 0)
(-0.0246018 0.00306906 0)
(-0.0251472 0.00291156 0)
(-0.0256623 0.0027475 0)
(-0.0261457 0.00257688 0)
(-0.0265965 0.00239974 0)
(-0.0270133 0.00221609 0)
(-0.0273952 0.00202597 0)
(-0.0277408 0.00182945 0)
(-0.0280492 0.00162662 0)
(-0.0283192 0.00141757 0)
(-0.0285499 0.00120245 0)
(-0.0287401 0.00098143 0)
(-0.0288888 0.000754728 0)
(-0.0289953 0.000522601 0)
(-0.0290584 0.000285351 0)
(-0.0290776 4.33256e-05 0)
(-0.0290519 -0.000203079 0)
(-0.0289807 -0.000453409 0)
(-0.0288634 -0.000707153 0)
(-0.0286996 -0.00096374 0)
(-0.0284889 -0.00122254 0)
(-0.0282309 -0.00148286 0)
(-0.0279256 -0.00174396 0)
(-0.027573 -0.002005 0)
(-0.0271733 -0.0022651 0)
(-0.0267267 -0.00252329 0)
(-0.0262338 -0.00277857 0)
(-0.0256953 -0.00302983 0)
(-0.0251121 -0.00327592 0)
(-0.0244852 -0.00351561 0)
(-0.0238161 -0.00374762 0)
(-0.0231061 -0.0039706 0)
(-0.0223573 -0.00418313 0)
(-0.0215715 -0.00438376 0)
(-0.0207511 -0.00457097 0)
(-0.0198986 -0.00474322 0)
(-0.019017 -0.0048989 0)
(-0.0181092 -0.00503641 0)
(-0.0171786 -0.0051541 0)
(-0.016229 -0.00525035 0)
(-0.0152641 -0.00532351 0)
(-0.0142882 -0.00537199 0)
(-0.0133056 -0.00539421 0)
(-0.0123211 -0.00538869 0)
(-0.0113394 -0.00535401 0)
(-0.0103657 -0.00528889 0)
(-0.00940507 -0.00519218 0)
(-0.00846296 -0.00506294 0)
(-0.00754479 -0.00490048 0)
(-0.00665604 -0.00470438 0)
(-0.00580219 -0.0044746 0)
(-0.00498863 -0.00421156 0)
(-0.00422066 -0.0039162 0)
(-0.00350334 -0.00359015 0)
(-0.00284149 -0.00323586 0)
(-0.00223959 -0.00285677 0)
(-0.00170172 -0.00245752 0)
(-0.00123157 -0.00204421 0)
(-0.000832436 -0.00162471 0)
(-0.000507004 -0.00120896 0)
(-0.000257266 -0.000809315 0)
(-8.84062e-05 -0.000440791 0)
(-1.2637e-05 -0.000122343 0)
(-1.52217e-05 0.000189143 0)
(-0.00010323 0.000610083 0)
(-0.00029535 0.0010553 0)
(-0.000573703 0.0015106 0)
(-0.000928902 0.00196296 0)
(-0.00135587 0.00240221 0)
(-0.0018493 0.00282067 0)
(-0.00240375 0.00321275 0)
(-0.00301392 0.00357456 0)
(-0.00367456 0.00390369 0)
(-0.0043805 0.00419887 0)
(-0.00512663 0.00445976 0)
(-0.00590796 0.00468673 0)
(-0.00671964 0.00488075 0)
(-0.00755701 0.00504314 0)
(-0.00841556 0.00517555 0)
(-0.00929103 0.0052798 0)
(-0.0101794 0.00535778 0)
(-0.0110769 0.00541144 0)
(-0.01198 0.00544266 0)
(-0.0128854 0.0054533 0)
(-0.0137899 0.00544509 0)
(-0.0146909 0.00541963 0)
(-0.0155856 0.0053784 0)
(-0.0164717 0.00532273 0)
(-0.0173468 0.0052538 0)
(-0.018209 0.00517264 0)
(-0.0190561 0.00508015 0)
(-0.0198865 0.00497707 0)
(-0.0206984 0.00486407 0)
(-0.0214902 0.00474165 0)
(-0.0222602 0.00461025 0)
(-0.0230072 0.00447018 0)
(-0.0237296 0.00432173 0)
(-0.024426 0.00416509 0)
(-0.0250951 0.0040004 0)
(-0.0257356 0.00382776 0)
(-0.0263461 0.00364724 0)
(-0.0269255 0.00345889 0)
(-0.0274724 0.00326276 0)
(-0.0279856 0.00305886 0)
(-0.0284639 0.00284723 0)
(-0.028906 0.00262792 0)
(-0.0293107 0.00240097 0)
(-0.0296769 0.00216647 0)
(-0.0300034 0.00192452 0)
(-0.0302889 0.00167527 0)
(-0.0305325 0.00141887 0)
(-0.0307331 0.00115554 0)
(-0.0308895 0.000885547 0)
(-0.0310009 0.000609193 0)
(-0.0310662 0.000326841 0)
(-0.0310847 3.89045e-05 0)
(-0.0310555 -0.000254141 0)
(-0.030978 -0.000551755 0)
(-0.0308514 -0.00085333 0)
(-0.0306754 -0.00115819 0)
(-0.0304495 -0.00146559 0)
(-0.0301735 -0.0017747 0)
(-0.0298471 -0.00208464 0)
(-0.0294706 -0.00239444 0)
(-0.0290439 -0.00270302 0)
(-0.0285675 -0.00300928 0)