/*--------------------------------*- C++ -*----------------------------------*\
  =========                 |
  \\      /  F ield         | OpenFOAM: The Open Source CFD Toolbox
   \\    /   O peration     | Website:  https://openfoam.org
    \\  /    A nd           | Version:  7
     \\/     M anipulation  |
\*---------------------------------------------------------------------------*/
FoamFile
{
    version     2.0;
    format      ascii;
    class       volScalarField;
    location    "27.0006";
    object      p;
}
// * * * * * * * * * * * * * * * * * * * * * * * * * * * * * * * * * * * * * //

dimensions      [0 2 -2 0 0 0 0];

internalField   nonuniform List<scalar> 
18750
(
-0.0125864
-0.0219412
-0.0382709
-0.0624338
-0.092987
-0.129295
-0.170438
-0.215641
-0.264083
-0.315057
-0.367849
-0.421721
-0.475857
-0.529464
-0.581894
-0.0162891
-0.0253993
-0.0415046
-0.0654702
-0.0958555
-0.132021
-0.173041
-0.218132
-0.266462
-0.317319
-0.369994
-0.423758
-0.477774
-0.531201
-0.583369
-0.0234904
-0.032121
-0.0477809
-0.0713543
-0.101406
-0.13729
-0.178071
-0.222947
-0.271067
-0.321707
-0.37417
-0.42774
-0.481551
-0.534677
-0.5864
-0.033906
-0.041848
-0.0568575
-0.0798565
-0.109417
-0.144883
-0.185306
-0.229859
-0.277663
-0.327975
-0.38011
-0.433374
-0.48688
-0.539598
-0.590743
-0.047131
-0.0542096
-0.0683865
-0.0906498
-0.119576
-0.154492
-0.194437
-0.238556
-0.285932
-0.335797
-0.387473
-0.440295
-0.493378
-0.545602
-0.596091
-0.0626647
-0.0687356
-0.0819315
-0.103329
-0.131496
-0.165744
-0.205094
-0.248665
-0.2955
-0.344796
-0.395872
-0.448104
-0.500634
-0.552292
-0.602097
-0.0799506
-0.0848668
-0.0969904
-0.117436
-0.144747
-0.178222
-0.216869
-0.259781
-0.305964
-0.354573
-0.404916
-0.456406
-0.508252
-0.55928
-0.608413
-0.0983689
-0.102006
-0.11303
-0.132482
-0.158869
-0.191489
-0.229338
-0.27149
-0.316919
-0.364737
-0.414229
-0.464843
-0.515876
-0.566218
-0.61472
-0.11725
-0.119555
-0.129516
-0.147974
-0.173402
-0.205107
-0.242084
-0.283389
-0.327976
-0.374917
-0.423466
-0.473094
-0.523203
-0.572804
-0.620731
-0.135919
-0.136927
-0.145938
-0.163438
-0.187899
-0.218658
-0.254708
-0.295101
-0.338775
-0.384774
-0.43232
-0.480889
-0.529983
-0.578789
-0.626197
-0.153738
-0.153581
-0.161822
-0.178428
-0.201945
-0.231753
-0.266849
-0.306282
-0.348992
-0.394007
-0.440518
-0.487992
-0.536012
-0.583964
-0.630897
-0.170119
-0.169059
-0.17675
-0.192542
-0.215167
-0.244048
-0.278182
-0.316631
-0.358344
-0.402349
-0.447819
-0.4942
-0.541121
-0.588159
-0.63463
-0.184573
-0.183046
-0.190349
-0.205428
-0.227244
-0.255242
-0.288429
-0.325889
-0.36659
-0.409574
-0.454011
-0.499333
-0.54517
-0.591239
-0.637207
-0.196711
-0.195324
-0.20229
-0.216797
-0.237917
-0.26509
-0.297356
-0.333838
-0.373527
-0.415489
-0.458908
-0.503217
-0.548035
-0.593106
-0.638423
-0.206524
-0.205536
-0.212317
-0.226437
-0.246987
-0.273397
-0.304775
-0.340305
-0.378989
-0.419937
-0.462353
-0.505692
-0.549584
-0.593708
-0.638056
-0.214025
-0.213512
-0.220356
-0.234215
-0.254313
-0.28002
-0.310548
-0.345152
-0.382838
-0.422785
-0.464216
-0.506606
-0.549653
-0.592988
-0.636059
-0.219313
-0.219305
-0.226382
-0.24014
-0.259801
-0.284872
-0.314587
-0.348279
-0.38497
-0.423926
-0.464392
-0.505848
-0.548066
-0.59079
-0.63262
-0.222644
-0.223121
-0.230441
-0.244162
-0.263471
-0.287941
-0.316875
-0.349603
-0.385309
-0.423274
-0.462791
-0.503337
-0.544736
-0.586864
-0.627838
-0.224428
-0.225246
-0.232662
-0.24632
-0.265323
-0.289206
-0.317348
-0.34912
-0.383818
-0.420775
-0.459352
-0.499005
-0.539553
-0.581226
-0.621425
-0.225147
-0.225984
-0.233218
-0.246722
-0.265409
-0.288694
-0.316015
-0.346819
-0.380477
-0.41639
-0.454019
-0.492814
-0.532437
-0.57382
-0.61318
-0.225243
-0.225589
-0.232299
-0.245526
-0.263839
-0.28648
-0.31293
-0.342718
-0.375286
-0.410094
-0.44673
-0.484738
-0.523322
-0.56454
-0.60304
-0.224969
-0.224191
-0.230103
-0.242925
-0.26076
-0.282675
-0.308179
-0.336868
-0.368271
-0.401891
-0.437419
-0.474754
-0.512169
-0.553299
-0.590986
-0.224296
-0.221792
-0.226876
-0.239147
-0.256337
-0.277411
-0.301875
-0.329351
-0.359475
-0.391828
-0.426038
-0.462826
-0.498966
-0.54006
-0.577007
-0.222974
-0.218435
-0.222953
-0.234443
-0.250752
-0.27085
-0.29416
-0.320274
-0.348953
-0.379991
-0.412572
-0.448912
-0.483711
-0.524833
-0.561145
-0.220784
-0.214513
-0.218731
-0.229068
-0.244221
-0.263184
-0.2852
-0.309784
-0.336751
-0.366477
-0.397065
-0.432973
-0.466407
-0.507583
-0.543552
-0.217755
-0.210852
-0.214552
-0.223293
-0.23702
-0.254664
-0.275187
-0.298072
-0.322941
-0.351344
-0.379642
-0.414985
-0.447113
-0.48818
-0.52433
-0.214187
-0.208165
-0.210589
-0.21744
-0.229518
-0.245599
-0.264333
-0.285362
-0.30764
-0.334611
-0.360478
-0.394912
-0.426087
-0.466552
-0.503476
-0.21071
-0.206459
-0.20694
-0.211936
-0.222155
-0.236378
-0.252881
-0.271869
-0.291108
-0.31623
-0.339831
-0.372563
-0.403713
-0.442807
-0.481114
-0.207774
-0.205187
-0.203888
-0.207292
-0.215398
-0.227441
-0.241177
-0.257775
-0.273696
-0.296211
-0.31805
-0.347779
-0.380064
-0.416964
-0.457823
-0.205548
-0.203959
-0.201863
-0.203871
-0.209667
-0.219277
-0.229667
-0.243286
-0.255875
-0.274517
-0.295663
-0.320638
-0.35535
-0.387946
-0.435287
-0.203954
-0.202759
-0.200929
-0.2017
-0.205295
-0.212326
-0.219011
-0.228609
-0.238192
-0.251507
-0.272683
-0.29224
-0.329144
-0.357262
-0.405244
-0.202845
-0.201835
-0.200604
-0.200614
-0.202508
-0.20691
-0.209869
-0.21442
-0.220813
-0.228228
-0.248644
-0.264435
-0.299882
-0.328837
-0.372804
-0.202048
-0.201223
-0.200503
-0.200411
-0.201303
-0.203223
-0.202684
-0.201528
-0.204268
-0.205454
-0.224803
-0.237278
-0.274941
-0.300155
-0.346544
-0.201415
-0.200828
-0.200566
-0.200813
-0.201341
-0.201233
-0.197602
-0.19083
-0.189126
-0.18493
-0.201083
-0.213059
-0.250268
-0.276258
-0.326111
-0.200801
-0.200504
-0.200737
-0.201483
-0.202032
-0.200616
-0.194274
-0.183244
-0.175662
-0.168385
-0.177655
-0.192594
-0.225145
-0.257669
-0.306966
-0.200074
-0.200114
-0.200856
-0.202128
-0.202801
-0.200792
-0.192212
-0.178747
-0.165068
-0.155863
-0.159824
-0.176284
-0.204854
-0.243855
-0.286579
-0.199139
-0.199537
-0.200725
-0.20243
-0.203241
-0.201103
-0.191101
-0.176542
-0.15836
-0.147172
-0.148996
-0.165743
-0.191461
-0.23292
-0.270911
-0.197955
-0.198694
-0.200204
-0.202208
-0.203125
-0.201075
-0.190665
-0.175664
-0.155642
-0.142839
-0.143613
-0.160704
-0.184448
-0.223079
-0.260425
-0.196552
-0.197575
-0.199243
-0.201384
-0.202412
-0.20038
-0.190822
-0.175788
-0.156507
-0.143536
-0.142997
-0.159051
-0.181968
-0.216154
-0.252575
-0.19505
-0.196257
-0.197919
-0.200017
-0.201117
-0.199498
-0.191802
-0.177875
-0.160008
-0.148171
-0.146739
-0.160223
-0.182181
-0.21211
-0.245958
-0.193648
-0.194939
-0.196477
-0.198402
-0.199675
-0.199097
-0.194586
-0.18299
-0.165855
-0.15525
-0.15325
-0.163922
-0.183741
-0.209812
-0.240261
-0.192579
-0.19388
-0.19525
-0.197135
-0.198736
-0.199587
-0.199179
-0.19023
-0.173634
-0.162962
-0.160621
-0.168856
-0.185851
-0.208426
-0.235186
-0.192014
-0.193273
-0.194575
-0.196483
-0.198566
-0.200898
-0.203913
-0.196386
-0.181346
-0.170355
-0.167577
-0.173857
-0.188067
-0.207305
-0.230509
-0.192
-0.193195
-0.194464
-0.196441
-0.19898
-0.202684
-0.205839
-0.201113
-0.187578
-0.176867
-0.173642
-0.178305
-0.189964
-0.206123
-0.226102
-0.192452
-0.19354
-0.194777
-0.19674
-0.199377
-0.204364
-0.205111
-0.203151
-0.191879
-0.182115
-0.178601
-0.181867
-0.19132
-0.204735
-0.221821
-0.193214
-0.194141
-0.195269
-0.197027
-0.19961
-0.204159
-0.204309
-0.202878
-0.194226
-0.185932
-0.182368
-0.184498
-0.192039
-0.203026
-0.21759
-0.194122
-0.194838
-0.195739
-0.197022
-0.200031
-0.201066
-0.203365
-0.201698
-0.195054
-0.188335
-0.184954
-0.186199
-0.192085
-0.200986
-0.21335
-0.195054
-0.195526
-0.196057
-0.196779
-0.199976
-0.198483
-0.201606
-0.200044
-0.194846
-0.189502
-0.186418
-0.187025
-0.191503
-0.198601
-0.209047
-0.195947
-0.196178
-0.196138
-0.196911
-0.197521
-0.197826
-0.19962
-0.198123
-0.193981
-0.189681
-0.186899
-0.187043
-0.19032
-0.19589
-0.204663
-0.196797
-0.196797
-0.196075
-0.197671
-0.193695
-0.197179
-0.197896
-0.196177
-0.192691
-0.1891
-0.186544
-0.186331
-0.188596
-0.192876
-0.200163
-0.197656
-0.197353
-0.196331
-0.19803
-0.192604
-0.195941
-0.196192
-0.194287
-0.191137
-0.18795
-0.185512
-0.184981
-0.186376
-0.189571
-0.195536
-0.1986
-0.197853
-0.197648
-0.195999
-0.194533
-0.195191
-0.194566
-0.192439
-0.189395
-0.186368
-0.183928
-0.183075
-0.183715
-0.185997
-0.190761
-0.199692
-0.19837
-0.200053
-0.192657
-0.195649
-0.194914
-0.193162
-0.190622
-0.187501
-0.184449
-0.181899
-0.180701
-0.180666
-0.182159
-0.185825
-0.200908
-0.199322
-0.202002
-0.192443
-0.195459
-0.194474
-0.191946
-0.188861
-0.18548
-0.182253
-0.179501
-0.177926
-0.177277
-0.178078
-0.180718
-0.20224
-0.201359
-0.201961
-0.196656
-0.195956
-0.19394
-0.190747
-0.187097
-0.183339
-0.179822
-0.176789
-0.174809
-0.173593
-0.173763
-0.175439
-0.203724
-0.204747
-0.199934
-0.200968
-0.197446
-0.193585
-0.189529
-0.185289
-0.181076
-0.177181
-0.173804
-0.171392
-0.169642
-0.16923
-0.170005
-0.205367
-0.208928
-0.197554
-0.202491
-0.198649
-0.193437
-0.188365
-0.183426
-0.178685
-0.174344
-0.170569
-0.167704
-0.16545
-0.16449
-0.164434
-0.207412
-0.212427
-0.198705
-0.202232
-0.199015
-0.193216
-0.18723
-0.181514
-0.176165
-0.171318
-0.1671
-0.163766
-0.161027
-0.159553
-0.158755
-0.210231
-0.21429
-0.204295
-0.202848
-0.198892
-0.192722
-0.186011
-0.179521
-0.173507
-0.168102
-0.163404
-0.159589
-0.156386
-0.154429
-0.152985
-0.214156
-0.214403
-0.211519
-0.205398
-0.199045
-0.192005
-0.184599
-0.17738
-0.170686
-0.164688
-0.159481
-0.155177
-0.151528
-0.149125
-0.147131
-0.219541
-0.213515
-0.217461
-0.208958
-0.199831
-0.191273
-0.182983
-0.175029
-0.167659
-0.161057
-0.155325
-0.150532
-0.146457
-0.143643
-0.141181
-0.226613
-0.213921
-0.221376
-0.212408
-0.201033
-0.190644
-0.1812
-0.172433
-0.164382
-0.15718
-0.150922
-0.145648
-0.141169
-0.13798
-0.135112
-0.235109
-0.218379
-0.224019
-0.215108
-0.202183
-0.190035
-0.179266
-0.16958
-0.160824
-0.153028
-0.146255
-0.140515
-0.135658
-0.132124
-0.128894
-0.244371
-0.227351
-0.226754
-0.216888
-0.202854
-0.189226
-0.177131
-0.166454
-0.15696
-0.148574
-0.141301
-0.135122
-0.129911
-0.126057
-0.122501
-0.253215
-0.23887
-0.230428
-0.217973
-0.202808
-0.187981
-0.174691
-0.163025
-0.152774
-0.143798
-0.136042
-0.129446
-0.12391
-0.119765
-0.115923
-0.260369
-0.249644
-0.234765
-0.218662
-0.202019
-0.186143
-0.171829
-0.159239
-0.148242
-0.138683
-0.130458
-0.123469
-0.11763
-0.113228
-0.109158
-0.264943
-0.257528
-0.238504
-0.218983
-0.20058
-0.183665
-0.168459
-0.155042
-0.143338
-0.133212
-0.124533
-0.117168
-0.111045
-0.106425
-0.102199
-0.266929
-0.262123
-0.240843
-0.218729
-0.198569
-0.180573
-0.164541
-0.150384
-0.138031
-0.127369
-0.118252
-0.110525
-0.104131
-0.0993211
-0.095016
-0.267304
-0.264033
-0.241621
-0.217705
-0.195992
-0.176902
-0.160067
-0.145235
-0.132293
-0.121133
-0.111604
-0.10353
-0.0968756
-0.091889
-0.0875378
-0.267091
-0.264133
-0.240978
-0.21581
-0.192805
-0.172665
-0.155039
-0.139574
-0.126098
-0.114486
-0.104576
-0.0961818
-0.0892851
-0.0841227
-0.0796405
-0.266963
-0.263174
-0.239169
-0.213033
-0.188956
-0.167847
-0.149454
-0.133391
-0.119427
-0.107407
-0.0971524
-0.0884774
-0.0813838
-0.0760647
-0.071181
-0.267189
-0.2616
-0.236418
-0.209403
-0.184405
-0.162417
-0.143299
-0.126672
-0.112263
-0.0998796
-0.0893217
-0.0804158
-0.0731963
-0.067795
-0.062086
-0.267719
-0.259621
-0.232888
-0.204956
-0.179119
-0.156339
-0.136548
-0.1194
-0.104592
-0.0918916
-0.0810785
-0.0719991
-0.0647368
-0.0593537
-0.0524697
-0.268291
-0.257302
-0.228666
-0.199712
-0.173068
-0.149569
-0.12917
-0.111553
-0.0963995
-0.0834406
-0.0724301
-0.0632427
-0.0560194
-0.0506254
-0.0426956
-0.268522
-0.254596
-0.223772
-0.193667
-0.16622
-0.142065
-0.12113
-0.103111
-0.0876778
-0.0745333
-0.063395
-0.0541762
-0.0470635
-0.0413467
-0.0330874
-0.268029
-0.251291
-0.218138
-0.186787
-0.158535
-0.13379
-0.112402
-0.0940629
-0.078427
-0.0651816
-0.053992
-0.0448376
-0.0378069
-0.0316123
-0.0235689
-0.266505
-0.247019
-0.211638
-0.179013
-0.149976
-0.124714
-0.102974
-0.0844138
-0.0686605
-0.0553897
-0.0442214
-0.0351936
-0.0281877
-0.0215895
-0.0140337
-0.26365
-0.241496
-0.204115
-0.170276
-0.14051
-0.114827
-0.0928525
-0.0741787
-0.0583991
-0.0451279
-0.0340734
-0.0252114
-0.0181916
-0.0113883
-0.00441416
-0.259228
-0.234526
-0.195427
-0.160512
-0.130117
-0.10414
-0.0820554
-0.0633572
-0.0475989
-0.0344107
-0.0235432
-0.0148737
-0.00784927
-0.00104362
0.00531637
-0.253056
-0.225977
-0.185452
-0.149665
-0.118798
-0.0926745
-0.0705687
-0.0519133
-0.0362606
-0.0232491
-0.0126323
-0.00418383
0.00278846
0.00945934
0.0151659
-0.245012
-0.215782
-0.174093
-0.137705
-0.10658
-0.0804114
-0.0583599
-0.0398448
-0.0243953
-0.0116536
-0.00134886
0.00684386
0.0136947
0.020139
0.025137
-0.235031
-0.203944
-0.161277
-0.124624
-0.0934535
-0.0673153
-0.0454293
-0.0271615
-0.0120181
0.000363129
0.0102935
0.0181921
0.0248603
0.0310071
0.035222
-0.223093
-0.190526
-0.14698
-0.110415
-0.0793549
-0.0533933
-0.0317911
-0.0138805
0.000853232
0.0127855
0.0222806
0.029846
0.0362761
0.0420538
0.0453886
-0.209211
-0.175579
-0.131277
-0.0949947
-0.0642775
-0.0386636
-0.0174691
-2.48629e-05
0.0141979
0.0255978
0.0346022
0.0417949
0.0479174
0.0532212
0.055584
-0.193436
-0.159043
-0.11429
-0.0783813
-0.0482357
-0.0231506
-0.00249269
0.0143768
0.0279925
0.038786
0.0472543
0.0540315
0.0597419
0.064393
0.0657074
-0.17586
-0.140692
-0.0961876
-0.0606942
-0.031273
-0.00688542
0.013104
0.0292921
0.0422123
0.0523379
0.0602356
0.066545
0.0716937
0.0754151
0.0754892
-0.156617
-0.120389
-0.0770628
-0.0420676
-0.0134595
0.0100904
0.0292832
0.0446857
0.056831
0.0662401
0.073538
0.0793061
0.0837031
0.0861194
0.0844597
-0.135815
-0.098404
-0.0567996
-0.0225904
0.00512209
0.0277228
0.0460014
0.0605204
0.071821
0.0804737
0.0871335
0.0922529
0.0956704
0.0963658
0.0924623
-0.11345
-0.0751764
-0.0353992
-0.00230686
0.0243934
0.0459485
0.0632098
0.076757
0.0871524
0.0950085
0.100965
0.105287
0.107484
0.10624
0.100439
-0.0894749
-0.0511309
-0.0129884
0.0187474
0.0442867
0.0646998
0.0808538
0.0933528
0.10279
0.1098
0.114956
0.118304
0.119102
0.116249
0.110298
-0.0640811
-0.0263407
0.0102733
0.0405079
0.0647369
0.0839087
0.0988751
0.110261
0.118689
0.124793
0.12903
0.13125
0.130624
0.126678
0.123763
-0.0374859
-0.00080887
0.0342444
0.0628803
0.085672
0.103506
0.117213
0.127428
0.134797
0.139922
0.143134
0.14415
0.142264
0.137797
0.136927
-0.00989979
0.0254126
0.0588043
0.0857578
0.107011
0.123421
0.135802
0.144797
0.151053
0.155127
0.157238
0.157066
0.15416
0.149567
0.149444
0.0184908
0.052229
0.0838401
0.109031
0.128665
0.143578
0.154577
0.162304
0.167397
0.170355
0.171328
0.170025
0.166254
0.161562
0.161386
0.047507
0.0795151
0.109238
0.132594
0.150542
0.163898
0.173467
0.179884
0.183767
0.185566
0.185393
0.18303
0.17851
0.173613
0.172902
0.0769791
0.107134
0.134882
0.156338
0.172546
0.1843
0.1924
0.197469
0.200106
0.200719
0.199407
0.196024
0.190773
0.185523
0.184129
0.10674
0.134944
0.160649
0.180156
0.194584
0.204701
0.2113
0.214995
0.216359
0.215773
0.213339
0.208974
0.202996
0.197258
0.195093
0.136627
0.162803
0.186418
0.203942
0.21656
0.225015
0.230093
0.232393
0.232471
0.230682
0.227134
0.221795
0.215069
0.208779
0.205827
0.16648
0.190571
0.212066
0.227587
0.238378
0.245159
0.248703
0.2496
0.248385
0.245399
0.240754
0.234456
0.226962
0.220053
0.216298
0.196143
0.218112
0.237473
0.250985
0.259945
0.265047
0.267057
0.26655
0.264044
0.259867
0.254132
0.24688
0.238618
0.231078
0.226502
0.225462
0.245291
0.262519
0.274032
0.281166
0.284598
0.285081
0.283178
0.279393
0.27404
0.267233
0.259037
0.249999
0.241797
0.236399
0.25429
0.271979
0.287089
0.296623
0.301951
0.30373
0.302703
0.29942
0.294371
0.287857
0.279993
0.270874
0.261077
0.252208
0.245967
0.282482
0.29805
0.311071
0.318659
0.32221
0.322363
0.319852
0.315214
0.308926
0.301275
0.292378
0.282352
0.271801
0.262255
0.255176
0.309901
0.323382
0.334356
0.340043
0.341856
0.340421
0.336459
0.330497
0.322997
0.314236
0.304336
0.293435
0.282152
0.271926
0.263998
0.336414
0.34786
0.35684
0.360682
0.360807
0.357829
0.352459
0.345212
0.336537
0.3267
0.315826
0.304077
0.292081
0.28118
0.272409
0.361895
0.371371
0.378424
0.380486
0.378982
0.374515
0.367786
0.359299
0.349491
0.338617
0.32681
0.314252
0.301567
0.289993
0.280385
0.386222
0.393811
0.399012
0.399371
0.396306
0.390412
0.382382
0.372707
0.361811
0.349944
0.337246
0.323916
0.31057
0.298336
0.287904
0.409283
0.41508
0.418517
0.417255
0.412706
0.405456
0.396186
0.385381
0.373452
0.360643
0.347101
0.333042
0.319063
0.306183
0.294947
0.430972
0.435084
0.436852
0.434065
0.428114
0.419584
0.409147
0.397274
0.384368
0.370671
0.356337
0.341595
0.327019
0.313513
0.301495
0.451188
0.453736
0.453942
0.449728
0.442468
0.432741
0.421211
0.40834
0.394522
0.379995
0.364925
0.349548
0.334408
0.3203
0.307534
0.46984
0.470957
0.469713
0.464182
0.45571
0.444875
0.432332
0.418537
0.403874
0.388581
0.372833
0.356872
0.341207
0.326527
0.313048
0.486843
0.486675
0.484103
0.477366
0.467785
0.455936
0.442468
0.427827
0.412391
0.396398
0.380033
0.363542
0.347394
0.332176
0.318028
0.502119
0.500828
0.497052
0.489227
0.478645
0.465882
0.451578
0.436174
0.420041
0.403418
0.386501
0.369535
0.352947
0.337229
0.322463
0.515605
0.513357
0.508508
0.499715
0.488246
0.474672
0.459628
0.443547
0.426796
0.409617
0.392214
0.374829
0.357847
0.341675
0.326345
0.527262
0.524198
0.518421
0.508788
0.496549
0.482272
0.466586
0.449919
0.432633
0.414973
0.397151
0.379406
0.362079
0.3455
0.329669
0.537052
0.533299
0.526747
0.516407
0.50352
0.488652
0.472427
0.455266
0.43753
0.419466
0.401294
0.383248
0.365628
0.348696
0.332435
0.544938
0.54062
0.533449
0.52254
0.509132
0.493787
0.477127
0.459568
0.44147
0.423081
0.404628
0.386341
0.368482
0.351257
0.334641
0.550885
0.546136
0.5385
0.527162
0.513361
0.497658
0.480669
0.462811
0.444438
0.425805
0.407142
0.388673
0.370631
0.353179
0.336292
0.554866
0.549826
0.54188
0.530256
0.516192
0.500248
0.48304
0.464981
0.446425
0.427629
0.408826
0.390236
0.37207
0.354462
0.337391
0.556863
0.551676
0.543575
0.531808
0.517613
0.501549
0.484231
0.466072
0.447424
0.428546
0.409673
0.391022
0.372794
0.355106
0.337943
0.556866
0.55168
0.54358
0.531813
0.517619
0.501555
0.484238
0.466078
0.447431
0.428553
0.40968
0.39103
0.372802
0.355114
0.337951
0.554877
0.549838
0.541894
0.530271
0.516209
0.500267
0.48306
0.465001
0.446447
0.427651
0.408848
0.390258
0.372093
0.354485
0.337414
0.550903
0.546157
0.538524
0.527188
0.51339
0.497688
0.480702
0.462845
0.444474
0.425841
0.407179
0.388711
0.37067
0.353217
0.33633
0.544964
0.540649
0.533482
0.522577
0.509172
0.49383
0.477173
0.459616
0.441519
0.423132
0.40468
0.386394
0.368536
0.351311
0.334694
0.537086
0.533337
0.52679
0.516455
0.503572
0.488708
0.472486
0.455328
0.437594
0.419532
0.401361
0.383316
0.365698
0.348766
0.332502
0.527304
0.524246
0.518475
0.508847
0.496613
0.48234
0.466659
0.449995
0.432712
0.415054
0.397233
0.37949
0.362164
0.345585
0.329753
0.515657
0.513414
0.508573
0.499787
0.488323
0.474754
0.459714
0.443637
0.42689
0.409713
0.392312
0.374929
0.357948
0.341776
0.326443
0.50218
0.500896
0.497128
0.48931
0.478735
0.465978
0.451679
0.436279
0.42015
0.40353
0.386615
0.369651
0.353063
0.337346
0.322577
0.486914
0.486755
0.484191
0.477462
0.467889
0.456046
0.442584
0.427947
0.412515
0.396525
0.380163
0.363674
0.347527
0.332309
0.318158
0.469922
0.471049
0.469815
0.464292
0.455828
0.445
0.432463
0.418673
0.404014
0.388724
0.372979
0.35702
0.341357
0.326677
0.313195
0.451283
0.453841
0.454057
0.449853
0.442601
0.432882
0.421358
0.408492
0.394679
0.380156
0.365088
0.349713
0.334574
0.320467
0.307696
0.43108
0.435203
0.436982
0.434204
0.428263
0.419741
0.40931
0.397443
0.384542
0.370848
0.356517
0.341777
0.327202
0.313696
0.301674
0.409406
0.415214
0.418662
0.417411
0.412871
0.405629
0.396367
0.385567
0.373643
0.360837
0.347299
0.333241
0.319264
0.306384
0.295143
0.386361
0.393961
0.399174
0.399544
0.396488
0.390603
0.38258
0.372911
0.36202
0.350157
0.337461
0.324132
0.310788
0.298554
0.288117
0.362051
0.371539
0.378604
0.380677
0.379183
0.374724
0.368003
0.359522
0.349718
0.338848
0.327044
0.314487
0.301803
0.290228
0.280615
0.33659
0.348046
0.357039
0.360892
0.361027
0.358057
0.352695
0.345454
0.336784
0.32695
0.316078
0.30433
0.292335
0.281434
0.272657
0.310098
0.323589
0.334575
0.340274
0.342097
0.340669
0.336715
0.330759
0.323264
0.314506
0.304607
0.293707
0.282425
0.272198
0.264264
0.282701
0.298279
0.311312
0.318911
0.322471
0.322633
0.320129
0.315496
0.309212
0.301564
0.292669
0.282644
0.272093
0.262546
0.25546
0.254533
0.272232
0.287353
0.296898
0.302235
0.304022
0.303002
0.299724
0.294679
0.288167
0.280305
0.271186
0.261389
0.252517
0.24627
0.225732
0.245569
0.262808
0.274331
0.281474
0.284913
0.285403
0.283504
0.279722
0.274371
0.267565
0.25937
0.250331
0.242126
0.23672
0.196441
0.218417
0.237788
0.251311
0.260278
0.265387
0.267403
0.266899
0.264396
0.260221
0.254486
0.247233
0.23897
0.231427
0.226842
0.166809
0.190906
0.21241
0.227939
0.238738
0.245524
0.249074
0.249974
0.24876
0.245775
0.24113
0.23483
0.227334
0.220422
0.216658
0.136989
0.163169
0.186791
0.204323
0.216947
0.225407
0.230489
0.232792
0.23287
0.231082
0.227533
0.222192
0.215462
0.209169
0.206206
0.107137
0.135343
0.161054
0.180568
0.195001
0.205121
0.211723
0.215419
0.216784
0.216197
0.213761
0.209393
0.203411
0.197669
0.195492
0.0774132
0.107568
0.13532
0.156781
0.172993
0.18475
0.19285
0.19792
0.200556
0.201167
0.199852
0.196465
0.191211
0.185955
0.184549
0.0479812
0.0799865
0.109713
0.133071
0.15102
0.164378
0.173947
0.180362
0.184244
0.18604
0.185863
0.183494
0.17897
0.174067
0.173342
0.0190078
0.05274
0.0843516
0.109544
0.129177
0.144089
0.155087
0.162811
0.167901
0.170855
0.171822
0.170513
0.166737
0.162039
0.161848
-0.00933734
0.0259651
0.0593547
0.0863067
0.107558
0.123965
0.136343
0.145334
0.151585
0.155653
0.157758
0.157579
0.154666
0.150067
0.149928
-0.036875
-0.000213027
0.0348356
0.0634678
0.086255
0.104084
0.117785
0.127995
0.135358
0.140476
0.14368
0.144687
0.142793
0.13832
0.137437
-0.0634185
-0.0257005
0.0109072
0.0411358
0.0653573
0.0845217
0.0994808
0.110859
0.119279
0.125375
0.129603
0.131812
0.131176
0.127225
0.124302
-0.0887569
-0.0504461
-0.0123093
0.0194175
0.0449458
0.0653488
0.0814934
0.0939829
0.10341
0.110411
0.115555
0.118892
0.119678
0.116818
0.110867
-0.112673
-0.0744469
-0.034672
-0.00159333
0.025092
0.0466345
0.0638842
0.0774198
0.0878037
0.095648
0.101593
0.105902
0.108085
0.10683
0.101027
-0.134978
-0.0976251
-0.056021
-0.0218328
0.00586128
0.028447
0.0467115
0.0612166
0.0725036
0.0811427
0.0877889
0.0928939
0.0962962
0.0969771
0.0930656
-0.155721
-0.119553
-0.0762313
-0.0412659
-0.0126786
0.0108537
0.0300296
0.0454158
0.0575453
0.0669391
0.0742217
0.079974
0.084354
0.0867526
0.0850802
-0.174903
-0.139791
-0.0953053
-0.0598476
-0.030449
-0.006082
0.0138875
0.0300567
0.0429589
0.053067
0.0609477
0.0672398
0.0723699
0.0760712
0.07613
-0.192415
-0.158071
-0.113362
-0.0774878
-0.0473672
-0.0223064
-0.00167163
0.0151764
0.0287718
0.0395457
0.047995
0.0547533
0.0604435
0.065073
0.0663702
-0.208125
-0.174544
-0.130299
-0.0940512
-0.0633635
-0.0377782
-0.01661
0.000810089
0.0150101
0.0263884
0.0353718
0.0425438
0.0486448
0.0539256
0.0562695
-0.22194
-0.18943
-0.145948
-0.109419
-0.0783952
-0.0524664
-0.0308936
-0.0130098
0.0016988
0.0136072
0.0230793
0.0306222
0.0370292
0.0427826
0.0460969
-0.233811
-0.20279
-0.160187
-0.123578
-0.0924484
-0.0663464
-0.0444928
-0.0262549
-0.011139
0.00121608
0.0111216
0.0189957
0.0256392
0.0317603
0.0359533
-0.243724
-0.214567
-0.172945
-0.136609
-0.10553
-0.0794003
-0.0573843
-0.038902
-0.0234828
-0.0107691
-0.000491193
0.00767506
0.0144991
0.0209165
0.0258914
-0.251701
-0.2247
-0.184247
-0.148521
-0.117703
-0.0916212
-0.0695539
-0.0509343
-0.0353147
-0.0223331
-0.0117448
-0.00332507
0.00361808
0.0102608
0.0159434
-0.257808
-0.233188
-0.194168
-0.159319
-0.128977
-0.103046
-0.0810016
-0.0623419
-0.0466201
-0.0334626
-0.0226259
-0.0139873
-0.00699462
-0.000218914
0.00611742
-0.262168
-0.240099
-0.202804
-0.169035
-0.139327
-0.113693
-0.0917613
-0.0731272
-0.0573878
-0.0441474
-0.0331266
-0.0242975
-0.0173116
-0.0105418
-0.00358877
-0.264966
-0.245566
-0.210277
-0.177725
-0.148749
-0.123539
-0.101845
-0.0833275
-0.0676161
-0.0543768
-0.0432455
-0.0342524
-0.0272813
-0.0207239
-0.0131821
-0.266438
-0.249787
-0.216732
-0.185454
-0.157264
-0.132574
-0.111236
-0.0929413
-0.0773475
-0.064139
-0.0529877
-0.0438694
-0.0368725
-0.0307302
-0.0226889
-0.266887
-0.253049
-0.222322
-0.192292
-0.164907
-0.140809
-0.119926
-0.101954
-0.086564
-0.0734609
-0.0623624
-0.0531811
-0.0461006
-0.0404479
-0.0321782
-0.266619
-0.255721
-0.227177
-0.198295
-0.171715
-0.148274
-0.127929
-0.110361
-0.0952528
-0.082338
-0.0713686
-0.0622188
-0.0550306
-0.0496995
-0.0417653
-0.266021
-0.258008
-0.23136
-0.203498
-0.177725
-0.155006
-0.135271
-0.118174
-0.103413
-0.0907584
-0.0799878
-0.070947
-0.0637205
-0.0583846
-0.0515343
-0.265474
-0.259956
-0.234851
-0.207904
-0.182972
-0.161048
-0.141987
-0.125413
-0.111053
-0.0987161
-0.088202
-0.0793363
-0.0721521
-0.0667895
-0.0611352
-0.265237
-0.261499
-0.237562
-0.211494
-0.187486
-0.166442
-0.148109
-0.1321
-0.118186
-0.106214
-0.0960041
-0.087371
-0.0803141
-0.0750339
-0.0702033
-0.265354
-0.262421
-0.239326
-0.21423
-0.191298
-0.171226
-0.153661
-0.138251
-0.124826
-0.113264
-0.1034
-0.0950493
-0.0881921
-0.083071
-0.0786345
-0.265548
-0.262272
-0.239919
-0.216083
-0.194449
-0.17543
-0.158656
-0.14388
-0.130991
-0.119882
-0.110401
-0.102373
-0.0957599
-0.0908165
-0.0865077
-0.265137
-0.260295
-0.239087
-0.217068
-0.196993
-0.179067
-0.163098
-0.148999
-0.136701
-0.12609
-0.117023
-0.109342
-0.102993
-0.098227
-0.0939654
-0.263088
-0.25561
-0.236692
-0.217287
-0.198971
-0.182127
-0.166984
-0.153626
-0.14198
-0.131906
-0.123277
-0.11596
-0.109883
-0.105309
-0.101129
-0.25844
-0.247628
-0.232909
-0.216937
-0.200377
-0.184571
-0.170322
-0.157795
-0.146856
-0.137351
-0.129177
-0.122237
-0.116445
-0.112091
-0.108069
-0.25122
-0.236784
-0.228557
-0.216222
-0.201132
-0.186374
-0.173155
-0.161553
-0.151361
-0.14244
-0.134736
-0.128191
-0.122701
-0.118605
-0.114814
-0.242335
-0.225266
-0.22489
-0.215107
-0.201141
-0.187589
-0.175568
-0.164957
-0.155522
-0.147191
-0.139971
-0.133842
-0.12868
-0.124876
-0.121372
-0.233065
-0.216372
-0.222158
-0.21329
-0.200436
-0.188372
-0.177679
-0.168058
-0.159361
-0.15162
-0.1449
-0.139213
-0.134405
-0.130921
-0.127743
-0.224586
-0.212018
-0.21949
-0.210551
-0.199261
-0.188961
-0.17959
-0.170887
-0.162895
-0.155748
-0.149544
-0.144322
-0.139894
-0.136756
-0.133941
-0.21754
-0.211686
-0.215519
-0.207071
-0.198045
-0.189573
-0.181353
-0.17346
-0.166148
-0.159602
-0.153924
-0.149183
-0.145159
-0.142398
-0.13999
-0.212189
-0.212554
-0.209515
-0.203501
-0.197256
-0.190289
-0.182947
-0.175789
-0.169153
-0.163212
-0.158058
-0.153806
-0.150208
-0.147857
-0.145921
-0.208288
-0.212406
-0.202252
-0.200975
-0.1971
-0.190986
-0.184336
-0.177909
-0.171954
-0.166604
-0.161958
-0.158195
-0.155043
-0.153139
-0.151754
-0.205486
-0.210495
-0.196738
-0.200388
-0.197203
-0.191457
-0.185535
-0.179883
-0.174593
-0.1698
-0.165632
-0.162349
-0.159661
-0.15824
-0.157502
-0.20345
-0.206956
-0.195699
-0.200624
-0.1968
-0.191655
-0.186654
-0.181778
-0.177094
-0.172806
-0.169079
-0.166264
-0.16406
-0.163153
-0.163159
-0.201809
-0.202767
-0.198122
-0.199011
-0.195565
-0.191791
-0.187803
-0.183625
-0.179468
-0.175624
-0.172293
-0.169927
-0.168227
-0.167867
-0.168706
-0.200322
-0.199403
-0.200108
-0.194629
-0.194071
-0.192136
-0.189006
-0.185418
-0.181715
-0.178247
-0.175257
-0.17332
-0.172151
-0.172373
-0.174115
-0.198989
-0.197396
-0.200086
-0.190482
-0.193591
-0.192654
-0.190189
-0.187169
-0.183844
-0.180662
-0.177947
-0.17641
-0.175806
-0.17666
-0.179367
-0.197772
-0.196459
-0.198091
-0.190809
-0.193754
-0.19307
-0.191394
-0.188922
-0.185855
-0.182842
-0.180322
-0.179156
-0.179163
-0.180709
-0.184444
-0.19668
-0.195942
-0.195695
-0.194163
-0.192574
-0.193329
-0.192792
-0.190736
-0.187743
-0.184746
-0.182326
-0.181497
-0.182176
-0.184512
-0.189349
-0.195736
-0.195437
-0.194401
-0.196132
-0.190652
-0.19408
-0.194416
-0.192588
-0.189483
-0.186313
-0.183882
-0.183366
-0.184796
-0.188047
-0.194088
-0.194875
-0.194876
-0.194161
-0.195727
-0.191832
-0.195304
-0.196122
-0.19449
-0.191039
-0.187448
-0.184883
-0.184673
-0.18697
-0.191307
-0.198677
-0.19402
-0.194252
-0.194225
-0.194984
-0.195687
-0.195929
-0.197862
-0.196456
-0.192336
-0.188011
-0.185199
-0.185335
-0.18864
-0.194271
-0.203133
-0.193121
-0.193596
-0.194139
-0.194874
-0.198089
-0.196627
-0.199876
-0.198404
-0.193208
-0.18781
-0.184673
-0.185257
-0.18976
-0.196925
-0.20747
-0.19218
-0.192902
-0.193817
-0.195127
-0.198124
-0.199291
-0.201651
-0.20009
-0.193422
-0.186612
-0.183152
-0.184361
-0.190268
-0.199244
-0.21172
-0.191264
-0.192199
-0.193344
-0.195132
-0.197741
-0.202389
-0.202628
-0.201311
-0.19259
-0.184168
-0.180498
-0.182577
-0.190136
-0.201208
-0.215902
-0.190495
-0.191592
-0.19285
-0.194845
-0.197526
-0.202571
-0.203503
-0.201602
-0.190221
-0.180298
-0.176648
-0.179846
-0.189318
-0.202832
-0.220068
-0.19004
-0.191245
-0.192538
-0.19455
-0.197138
-0.200904
-0.204269
-0.199535
-0.185876
-0.174983
-0.17159
-0.176166
-0.187847
-0.204124
-0.22428
-0.190057
-0.191325
-0.192657
-0.194605
-0.196738
-0.19914
-0.202292
-0.194761
-0.179583
-0.168387
-0.165405
-0.171582
-0.185822
-0.205201
-0.228611
-0.190633
-0.191956
-0.193351
-0.19528
-0.196935
-0.197851
-0.19751
-0.188555
-0.171787
-0.160892
-0.158306
-0.166435
-0.183467
-0.206206
-0.23321
-0.191718
-0.193031
-0.194603
-0.196578
-0.197911
-0.197391
-0.192911
-0.181257
-0.163937
-0.153059
-0.15078
-0.161352
-0.181208
-0.207477
-0.238205
-0.193139
-0.194367
-0.19607
-0.198225
-0.199393
-0.197827
-0.190149
-0.176141
-0.158038
-0.145858
-0.144132
-0.157529
-0.179494
-0.209668
-0.243825
-0.194659
-0.195702
-0.197414
-0.199612
-0.200716
-0.198733
-0.189204
-0.174079