/*--------------------------------*- C++ -*----------------------------------*\
  =========                 |
  \\      /  F ield         | OpenFOAM: The Open Source CFD Toolbox
   \\    /   O peration     | Website:  https://openfoam.org
    \\  /    A nd           | Version:  7
     \\/     M anipulation  |
\*---------------------------------------------------------------------------*/
FoamFile
{
    version     2.0;
    format      ascii;
    class       surfaceScalarField;
    location    "27.0006";
    object      phi;
}
// * * * * * * * * * * * * * * * * * * * * * * * * * * * * * * * * * * * * * //

dimensions      [0 3 -1 0 0 0 0];

internalField   nonuniform List<scalar> 
37105
(
-1.07543e-05
1.0689e-05
6.53007e-08
-2.51887e-05
1.42185e-05
2.1589e-07
-4.01763e-05
1.46182e-05
3.69399e-07
-5.58369e-05
1.51203e-05
5.40324e-07
-7.22585e-05
1.56894e-05
7.32169e-07
-8.94899e-05
1.62863e-05
9.45108e-07
-0.000107566
1.68974e-05
1.1783e-06
-0.000126495
1.75004e-05
1.42934e-06
-0.000146289
1.80978e-05
1.69543e-06
-0.000166956
1.86946e-05
1.97255e-06
-0.000188521
1.93096e-05
2.25591e-06
-0.000211005
1.99449e-05
2.53871e-06
-0.00023442
2.06017e-05
2.81312e-06
-0.00025879
2.12993e-05
3.07109e-06
2.21188e-05
3.30126e-06
-0.00028421
-1.0592e-05
2.1281e-05
-2.48694e-05
2.84958e-05
-3.97034e-05
2.94522e-05
-5.51951e-05
3.0612e-05
-7.14288e-05
3.19231e-05
-8.84463e-05
3.33039e-05
-0.000106275
3.47264e-05
-0.000124918
3.61429e-05
-0.000144374
3.75541e-05
-0.000164644
3.8964e-05
-0.00018574
4.04057e-05
-0.000207675
4.18802e-05
-0.00023046
4.33868e-05
-0.00025411
4.49495e-05
4.67253e-05
-0.000278717
-1.02703e-05
3.15513e-05
-2.42368e-05
4.24624e-05
-3.87677e-05
4.39831e-05
-5.39277e-05
4.5772e-05
-6.97935e-05
4.77889e-05
-8.63941e-05
4.99045e-05
-0.000103743
5.20757e-05
-0.000121829
5.42287e-05
-0.000140635
5.63596e-05
-0.000160139
5.84686e-05
-0.000180337
6.06028e-05
-0.000201226
6.27699e-05
-0.000222816
6.49763e-05
-0.000245113
6.72463e-05
6.97652e-05
-0.000268153
-9.79472e-06
4.1346e-05
-2.3302e-05
5.59696e-05
-3.73863e-05
5.80674e-05
-5.20614e-05
6.04472e-05
-6.7393e-05
6.31205e-05
-8.3392e-05
6.59035e-05
-0.000100055
6.87384e-05
-0.00011735
7.15239e-05
-0.00013524
7.42498e-05
-0.000153681
7.6909e-05
-0.000172641
7.95635e-05
-0.000192108
8.22363e-05
-0.000212085
8.49532e-05
-0.00023257
8.77317e-05
9.07492e-05
-0.000253554
-9.17572e-06
5.05217e-05
-2.20802e-05
6.88741e-05
-3.55826e-05
7.15697e-05
-4.9633e-05
7.44976e-05
-6.42821e-05
7.77695e-05
-7.95195e-05
8.11409e-05
-9.5321e-05
8.454e-05
-0.000111636
8.78386e-05
-0.000128405
9.10188e-05
-0.00014556
9.40645e-05
-0.00016305
9.70534e-05
-0.000180847
0.000100033
-0.000198956
0.000103062
-0.000217375
0.000106151
0.000109436
-0.000236062
-8.44007e-06
5.89618e-05
-2.05896e-05
8.10237e-05
-3.33845e-05
8.43646e-05
-4.66871e-05
8.78003e-05
-6.05263e-05
9.16086e-05
-7.48691e-05
9.54837e-05
-8.96706e-05
9.93415e-05
-0.000104861
0.000103029
-0.000120362
0.00010652
-0.000136089
0.000109791
-0.000151971
0.000112936
-0.000167973
0.000116034
-0.000184101
0.000119191
-0.000200369
0.000122418
0.000125796
-0.000216729
-7.57015e-06
6.6532e-05
-1.88396e-05
9.22932e-05
-3.08223e-05
9.63473e-05
-4.32732e-05
0.000100251
-5.61973e-05
0.000104533
-6.954e-05
0.000108826
-8.32372e-05
0.000113039
-9.72021e-05
0.000116993
-0.000111344
0.000120662
-0.000125564
0.000124011
-0.000139782
0.000127154
-0.000153955
0.000130207
-0.000168098
0.000133334
-0.000182247
0.000136568
0.000139924
-0.000196375
-6.55987e-06
7.30918e-05
-1.6843e-05
0.000102576
-2.79281e-05
0.000107432
-3.94434e-05
0.000111766
-5.13688e-05
0.000116458
-6.36321e-05
0.00012109
-7.61523e-05
0.000125559
-8.88294e-05
0.000129671
-0.000101563
0.000133395
-0.00011425
0.000136698
-0.000126804
0.000139709
-0.000139179
0.000142582
-0.000151395
0.00014555
-0.000163518
0.00014869
0.00015196
-0.000175554
-5.42702e-06
7.85189e-05
-1.46183e-05
0.000111768
-2.4736e-05
0.00011755
-3.52502e-05
0.000122281
-4.61136e-05
0.000127321
-5.72413e-05
0.000132217
-6.85389e-05
0.000136857
-7.98964e-05
0.000141028
-9.12074e-05
0.000144706
-0.000102369
0.000147859
-0.000113295
0.000150635
-0.000123937
0.000153224
-0.000134314
0.000155927
-0.000144513
0.000158889
0.000162029
-0.000154582
-4.18345e-06
8.27023e-05
-1.21877e-05
0.000119772
-2.12831e-05
0.000126646
-3.07458e-05
0.000131743
-4.05014e-05
0.000137077
-5.04577e-05
0.000142174
-6.05092e-05
0.000146908
-7.05384e-05
0.000151057
-8.04357e-05
0.000154604
-9.01008e-05
0.000157525
-9.94532e-05
0.000159988
-0.000108439
0.000162209
-0.000117065
0.000164553
-0.000125425
0.000167249
0.000170211
-0.000133607
-2.8355e-06
8.55378e-05
-9.57647e-06
0.000126513
-1.76058e-05
0.000134675
-2.59796e-05
0.000140117
-3.45977e-05
0.000145695
-4.33634e-05
0.000150939
-5.21619e-05
0.000155707
-6.08709e-05
0.000159766
-6.93785e-05
0.000163111
-7.75871e-05
0.000165733
-8.54218e-05
0.000167822
-9.28265e-05
0.000169614
-9.97817e-05
0.000171508
-0.000106356
0.000173824
0.000176539
-0.000112684
-1.37607e-06
8.69139e-05
-6.82027e-06
0.000131957
-1.37414e-05
0.000141596
-2.0998e-05
0.000147374
-2.84633e-05
0.00015316
-3.6033e-05
0.000158509
-4.3584e-05
0.000163258
-5.09916e-05
0.000167174
-5.8142e-05
0.000170262
-6.49374e-05
0.000172528
-7.13061e-05
0.000174191
-7.71938e-05
0.000175502
-8.25485e-05
0.000176863
-8.73681e-05
0.000178643
0.000181007
-9.18363e-05
2.0826e-07
8.67056e-05
-3.96239e-06
0.000136128
-9.71728e-06
0.000147351
-1.58442e-05
0.000153501
-2.21551e-05
0.000159471
-2.85336e-05
0.000164888
-3.48507e-05
0.000169575
-4.09823e-05
0.000173305
-4.68117e-05
0.000176091
-5.22376e-05
0.000177954
-5.71837e-05
0.000179137
-6.15999e-05
0.000179918
-6.54212e-05
0.000180684
-6.85281e-05
0.00018175
0.000183546
-7.10668e-05
1.58653e-06
8.51191e-05
-1.05377e-06
0.000138768
-5.5679e-06
0.000151865
-1.05613e-05
0.000158494
-1.57264e-05
0.000164636
-2.09263e-05
0.000170087
-2.60289e-05
0.000174677
-3.09137e-05
0.00017819
-3.54583e-05
0.000180636
-3.95566e-05
0.000182053
-4.31189e-05
0.000182699
-4.60882e-05
0.000182887
-4.843e-05
0.000183026
-4.99354e-05
0.000183255
0.000183851
-5.02411e-05
3.08254e-06
8.20365e-05
1.99687e-06
0.000139854
-1.34785e-06
0.00015521
-5.19434e-06
0.000162341
-9.2296e-06
0.000168672
-1.32671e-05
0.000174125
-1.71783e-05
0.000178588
-2.08482e-05
0.00018186
-2.41419e-05
0.000183929
-2.69502e-05
0.000184861
-2.91682e-05
0.000184917
-3.07022e-05
0.000184421
-3.15355e-05
0.000183859
-3.15739e-05
0.000183294
0.000182112
-2.98343e-05
4.6022e-06
7.74343e-05
5.10385e-06
0.000139352
3.00779e-06
0.000157306
1.76139e-07
0.000165172
-2.72337e-06
0.000171571
-5.61483e-06
0.000177016
-8.3606e-06
0.000181334
-1.08461e-05
0.000184346
-1.292e-05
0.000186003
-1.44688e-05
0.00018641
-1.53781e-05
0.000185827
-1.55113e-05
0.000184554
-1.47729e-05
0.000183121
-1.32521e-05
0.000181773
0.000178995
-1.01359e-05
6.08488e-06
7.13494e-05
8.2104e-06
0.000137227
7.39625e-06
0.00015812
5.70899e-06
0.000166859
3.83507e-06
0.000173445
1.99931e-06
0.000178852
3.19471e-07
0.000183014
-9.97645e-07
0.000185663
-1.87379e-06
0.000186879
-2.18181e-06
0.000186718
-1.79551e-06
0.00018544
-5.83125e-07
0.000183342
1.57769e-06
0.00018096
4.92247e-06
0.000178428
0.000174651
9.26674e-06
7.46921e-06
6.38802e-05
1.12575e-05
0.000133438
1.1753e-05
0.000157624
1.11531e-05
0.000167459
1.03541e-05
0.000174244
9.60709e-06
0.000179599
9.06337e-06
0.000183558
8.84082e-06
0.000185885
9.09575e-06
0.000186625
9.96608e-06
0.000185847
1.15785e-05
0.000183828
1.41351e-05
0.000180786
1.77942e-05
0.000177301
2.23236e-05
0.000173899
0.000168441
2.85339e-05
8.67427e-06
5.5206e-05
1.41594e-05
0.000127953
1.60316e-05
0.000155752
1.65261e-05
0.000166965
1.67533e-05
0.000174017
1.7043e-05
0.00017931
1.75543e-05
0.000183047
1.84213e-05
0.000185018
1.97958e-05
0.00018525
2.18315e-05
0.000183812
2.4652e-05
0.000181008
2.84652e-05
0.000176972
3.36148e-05
0.000172152
3.95606e-05
0.000167953
0.000160686
4.73159e-05
9.58735e-06
4.56186e-05
1.68102e-05
0.00012073
2.01628e-05
0.0001524
2.17808e-05
0.000165347
2.30016e-05
0.000172796
2.42842e-05
0.000178027
2.58134e-05
0.000181517
2.77283e-05
0.000183103
3.01857e-05
0.000182793
3.33676e-05
0.00018063
3.73966e-05
0.000176978
4.23986e-05
0.00017197
4.90612e-05
0.000165489
5.64934e-05
0.000160521
0.00015157
6.56092e-05
1.00596e-05
3.5559e-05
1.90866e-05
0.000111703
2.40571e-05
0.000147429
2.68509e-05
0.000162553
2.9052e-05
0.000170595
3.1288e-05
0.000175791
3.37936e-05
0.000179012
3.67177e-05
0.000180179
4.02166e-05
0.000179294
4.45113e-05
0.000176335
4.97701e-05
0.00017172
5.58775e-05
0.000165863
6.4018e-05
0.000157348
7.3037e-05
0.000151502
0.000141046
8.35611e-05
9.93082e-06
2.56282e-05
2.08604e-05
0.000100774
2.75973e-05
0.000140692
3.1653e-05
0.000158497
3.48462e-05
0.000167402
3.8006e-05
0.000172631
4.14421e-05
0.000175576
4.53328e-05
0.000176289
4.9829e-05
0.000174798
5.51683e-05
0.000170996
6.17079e-05
0.00016518
6.88663e-05
0.000158705
7.83849e-05
0.00014783
8.90244e-05
0.000140862
0.000128845
0.000101225
9.11941e-06
1.65088e-05
2.20059e-05
8.78873e-05
3.06319e-05
0.000132066
3.60808e-05
0.000153048
4.03196e-05
0.000163163
4.43828e-05
0.000168568
4.86964e-05
0.000171262
5.35073e-05
0.000171478
5.89754e-05
0.000169329
6.52284e-05
0.000164743
7.31097e-05
0.000157299
8.13149e-05
0.000150499
9.20515e-05
0.000137093
0.00010428
0.000128634
0.000114511
0.000118613
7.73234e-06
8.77642e-06
2.23727e-05
7.32469e-05
3.29756e-05
0.000121463
4.00089e-05
0.000146015
4.53883e-05
0.000157784
5.03574e-05
0.000163599
5.5497e-05
0.000166122
6.11537e-05
0.000165821
6.75999e-05
0.000162883
7.46295e-05
0.000157713
8.38579e-05
0.00014807
9.32246e-05
0.000141133
0.000105026
0.000125292
0.000118315
0.000115344
9.73961e-05
0.00013543
6.03261e-06
2.74381e-06
2.17728e-05
5.75067e-05
3.44291e-05
0.000108807
4.32848e-05
0.000137159
4.99489e-05
0.000151119
5.58441e-05
0.000157704
6.17758e-05
0.000160191
6.81697e-05
0.000159427
7.56401e-05
0.000155413
8.33141e-05
0.000150039
9.37263e-05
0.000137658
0.000104452
0.000130407
0.000117729
0.000112015
0.000131234
0.000101839
7.76904e-05
0.00015094
4.2696e-06
-1.52579e-06
2.00338e-05
4.17425e-05
3.47982e-05
9.40427e-05
4.5722e-05
0.000126235
5.38429e-05
0.000142999
6.07392e-05
0.000150808
6.74741e-05
0.000153456
7.44391e-05
0.000152462
8.29559e-05
0.000146896
9.12989e-05
0.000141696
0.00010257
0.000126387
0.000114451
0.000118526
0.000130064
9.64016e-05
0.000143804
8.80997e-05
5.59843e-05
0.00016551
2.61937e-06
-4.14516e-06
1.71712e-05
2.71907e-05
3.39162e-05
7.72977e-05
4.70664e-05
0.000113085
5.68704e-05
0.000133195
6.48598e-05
0.000142818
7.25054e-05
0.00014581
7.99317e-05
0.000145036
8.93498e-05
0.000137478
9.85225e-05
0.000132523
0.00011049
0.000114419
0.000122946
0.00010607
0.000140971
7.83766e-05
0.000155832
7.32394e-05
3.24673e-05
0.000179349
1.2736e-06
-5.41876e-06
1.3536e-05
1.49283e-05
3.16573e-05
5.91764e-05
4.69997e-05
9.77428e-05
5.87435e-05
0.000121451
6.80057e-05
0.000133556
7.6669e-05
0.000137147
8.45496e-05
0.000137155
9.45958e-05
0.000127432
0.00010484
0.000122279
0.000117526
0.000101733
0.000130367
9.32293e-05
0.000149722
5.90215e-05
0.000166461
5.65004e-05
7.4167e-06
0.000191512
4.18418e-07
-5.83718e-06
9.7375e-06
5.60917e-06
2.7872e-05
4.10419e-05
4.51781e-05
8.04368e-05
5.91293e-05
0.000107499
6.98158e-05
0.000122869
7.97478e-05
0.000127215
8.82808e-05
0.000128622
9.83454e-05
0.000117367
0.000109734
0.00011089
0.000123346
8.81213e-05
0.000137121
7.94548e-05
0.000155924
4.02182e-05
0.000175566
3.68581e-05
-1.87807e-05
0.000201763
1.8253e-08
-5.85543e-06
6.43562e-06
-8.08196e-07
2.26731e-05
2.48045e-05
4.13235e-05
6.17863e-05
5.76059e-05
9.12171e-05
6.99915e-05
0.000110484
8.1066e-05
0.00011614
9.10161e-05
0.000118672
0.000100859
0.000107524
0.000112733
9.90166e-05
0.000126093
7.47606e-05
0.000143081
6.24675e-05
0.000157901
2.53974e-05
0.000183866
1.08931e-05
-4.0189e-05
0.000205275
-1.24845e-07
-5.73059e-06
3.969e-06
-4.90204e-06
1.69143e-05
1.18592e-05
3.54796e-05
4.3221e-05
5.36893e-05
7.30074e-05
6.80901e-05
9.60831e-05
8.03138e-05
0.000103917
9.14661e-05
0.00010752
0.000101985
9.70056e-05
0.000114654
8.63473e-05
0.000126769
6.26453e-05
0.000146166
4.3071e-05
0.000160519
1.10439e-05
0.000186356
-1.49431e-05
-5.72296e-05
0.000203396
-4.11857e-08
-5.6894e-06
2.58922e-06
-7.53245e-06
1.18237e-05
2.62471e-06
2.83022e-05
2.67425e-05
4.71839e-05
5.41257e-05
6.34771e-05
7.97899e-05
7.68963e-05
9.04974e-05
8.97197e-05
9.46966e-05
9.98137e-05
8.69116e-05
0.000115616
7.05451e-05
0.000124032
5.42287e-05
0.000147173
1.99304e-05
0.000158236
-1.88088e-08
0.000183973
-4.06805e-05
-7.75057e-05
0.000204249
1.75829e-07
-5.86523e-06
2.1142e-06
-9.47082e-06
8.23815e-06
-3.49924e-06
2.11417e-05
1.3839e-05
3.85776e-05
3.66897e-05
5.59394e-05
6.24281e-05
7.00046e-05
7.64322e-05
8.48451e-05
7.98561e-05
9.44037e-05
7.7353e-05
0.000111827
5.31221e-05
0.000120453
4.56025e-05
0.000144891
-4.50724e-06
0.000152099
-7.22739e-06
0.000184192
-7.27736e-05
-8.54561e-05
0.000192143
4.57247e-07
-6.32248e-06
2.11275e-06
-1.11263e-05
6.17281e-06
-7.5593e-06
1.52412e-05
4.77058e-06
2.92367e-05
2.26943e-05
4.58182e-05
4.58466e-05
6.00608e-05
6.21896e-05
7.50852e-05
6.48317e-05
8.64182e-05
6.60199e-05
0.000101534
3.80059e-05
0.0001142
3.29369e-05
0.000133691
-2.39979e-05
0.00014396
-1.74969e-05
0.000175586
-0.0001044
-8.29944e-05
0.000173125
6.85095e-07
-7.00757e-06
2.14195e-06
-1.25832e-05
4.90414e-06
-1.03215e-05
1.07692e-05
-1.09452e-06
2.05791e-05
1.28844e-05
3.41495e-05
3.22762e-05
4.76088e-05
4.87303e-05
6.09547e-05
5.14858e-05
7.32191e-05
5.37556e-05
8.58062e-05
2.54187e-05
9.9735e-05
1.90082e-05
0.000110511
-3.47737e-05
0.000127658
-3.46444e-05
0.000145912
-0.000122653
-0.000108443
0.000171361
7.33789e-07
-7.74136e-06
1.81924e-06
-1.36686e-05
3.54378e-06
-1.2046e-05
6.96178e-06
-4.51252e-06
1.29323e-05
6.91391e-06
2.23003e-05
2.29081e-05
3.33615e-05
3.76691e-05
4.38799e-05
4.09674e-05
5.49372e-05
4.26983e-05
6.55603e-05
1.47956e-05
7.89283e-05
5.64023e-06
8.81499e-05
-4.39953e-05
0.000116713
-6.32076e-05
0.000141558
-0.000147498
-0.000172831
0.000205945
5.19683e-07
-8.26105e-06
9.19025e-07
-1.4068e-05
1.4812e-06
-1.26082e-05
2.88618e-06
-5.9175e-06
5.64778e-06
4.1523e-06
1.09215e-05
1.76345e-05
1.82793e-05
3.03113e-05
2.57359e-05
3.35107e-05
3.40952e-05
3.4339e-05
4.209e-05
6.80078e-06
5.88172e-05
-1.10869e-05
8.15436e-05
-6.67217e-05
0.0001289
-0.000110564
0.000177963
-0.00019656
-0.000238844
0.000243976
2.67259e-08
-8.28777e-06
-5.73453e-07
-1.34678e-05
-1.38683e-06
-1.17948e-05
-1.91211e-06
-5.39222e-06
-1.94311e-06
4.18329e-06
-1.45095e-07
1.58365e-05
2.7881e-06
2.73781e-05
7.10694e-06
2.91919e-05
1.33788e-05
2.80671e-05
2.45649e-05
-4.3853e-06
5.64798e-05
-4.30019e-05
0.000100689
-0.000110931
0.000161328
-0.000171203
0.000209353
-0.000244585
-0.000284046
0.000254554
-6.85845e-07
-7.60193e-06
-2.48563e-06
-1.1668e-05
-4.81218e-06
-9.46826e-06
-7.27852e-06
-2.92588e-06
-9.72373e-06
6.62851e-06
-1.17726e-05
1.78853e-05
-1.25496e-05
2.81551e-05
-1.00579e-05
2.67002e-05
1.94195e-06
1.60673e-05
2.93696e-05
-3.1813e-05
7.93694e-05
-9.30017e-05
0.000133567
-0.000165128
0.00018766
-0.000225297
0.000223528
-0.000280453
-0.000318685
0.000258167
-1.48973e-06
-6.1122e-06
-4.52552e-06
-8.63222e-06
-8.34218e-06
-5.6516e-06
-1.26047e-05
1.3366e-06
-1.71263e-05
1.11501e-05
-2.15512e-05
2.23102e-05
-2.38048e-05
3.04088e-05
-1.74828e-05
2.03782e-05
9.33521e-06
-1.07507e-05
5.53553e-05
-7.7833e-05
0.000111106
-0.000148752
0.000159662
-0.000213685
0.000200195
-0.00026583
0.000230406
-0.000310664
-0.000345498
0.000257219
-2.20426e-06
-3.90794e-06
-6.25248e-06
-4.584e-06
-1.1201e-05
-7.0305e-07
-1.65758e-05
6.71139e-06
-2.19568e-05
1.65311e-05
-2.60005e-05
2.63539e-05
-2.52055e-05
2.96137e-05
-8.00445e-06
3.17719e-06
3.35139e-05
-5.2269e-05
8.58468e-05
-0.000130166
0.000135113
-0.000198018
0.00017466
-0.000253232
0.000206998
-0.000298168
0.000231536
-0.000335201
-0.000365817
0.000251855
-2.65138e-06
-1.25656e-06
-7.2542e-06
1.88276e-08
-1.25937e-05
4.63648e-06
-1.79924e-05
1.211e-05
-2.24256e-05
2.09644e-05
-2.34185e-05
2.73468e-05
-1.55679e-05
2.17631e-05
1.43936e-05
-2.67843e-05
6.2856e-05
-0.000100731
0.000110367
-0.000177677
0.000150994
-0.000238645
0.000183626
-0.000285864
0.000208881
-0.000323423
0.000228413
-0.000354733
-0.00038362
0.000246216
-2.73442e-06
1.47787e-06
-7.31049e-06
4.59489e-06
-1.22894e-05
9.61537e-06
-1.6601e-05
1.64216e-05
-1.8731e-05
2.30944e-05
-1.57957e-05
2.44115e-05
1.47047e-06
4.49699e-06
4.05558e-05
-6.58697e-05
8.73762e-05
-0.000147552
0.000128287
-0.000218588
0.00016141
-0.000271768
0.000187192
-0.000311645
0.000207292
-0.000343523
0.000223998
-0.000371439
-0.000398417
0.000238795
-2.47009e-06
3.94795e-06
-6.53399e-06
8.65879e-06
-1.0556e-05
1.36374e-05
-1.3138e-05
1.90035e-05
-1.23446e-05
2.2301e-05
-5.48717e-06
1.75541e-05
2.09714e-05
-2.19616e-05
6.4251e-05
-0.000109149
0.000106049
-0.00018935
0.000140422
-0.000252961
0.000166779
-0.000298125
0.000187394
-0.00033226
0.00020396
-0.00036009
0.000217838
-0.000385317
-0.000411789
0.00023121
-1.96692e-06
5.91487e-06
-5.20466e-06
1.18965e-05
-7.98442e-06
1.64172e-05
-8.74293e-06
1.9762e-05
-5.68991e-06
1.9248e-05
6.88976e-06
4.97444e-06
4.17717e-05
-5.68435e-05
8.33452e-05
-0.000150723
0.000119643
-0.000225647
0.000147695
-0.000281013
0.000168775
-0.000319205
0.000185351
-0.000348836
0.000198936
-0.000373674
0.000211393
-0.000397775
-0.000423908
0.000223512
-1.36571e-06
7.28058e-06
-3.66417e-06
1.4195e-05
-5.21143e-06
1.79644e-05
-4.32158e-06
1.88722e-05
-4.94666e-08
1.49759e-05
2.00966e-05
-1.51717e-05
6.09209e-05
-9.76678e-05
9.8412e-05
-0.000188214
0.000128656
-0.000255892
0.000151236
-0.000303593
0.000168044
-0.000336014
0.000181584
-0.000362376
0.000193371
-0.000385461
0.000204444
-0.000408849
-0.000434755
0.000215291
-7.96075e-07
8.07665e-06
-2.20436e-06
1.56033e-05
-2.67358e-06
1.84337e-05
-7.60676e-07
1.69593e-05
6.50914e-06
7.70605e-06
3.50243e-05
-4.36868e-05
7.59456e-05
-0.000138589
0.000109187
-0.000221455
0.00013396
-0.000280665
0.000151911
-0.000321544
0.000165518
-0.000349621
0.000176969
-0.000373827
0.000187154
-0.000395646
0.00019725
-0.000418945
-0.00044496
0.000207455
-3.52491e-07
8.42914e-06
-1.03981e-06
1.62906e-05
-6.02749e-07
1.79966e-05
1.537e-06
1.48195e-05
1.45546e-05
-5.31159e-06
5.06488e-05
-7.97809e-05
8.78098e-05
-0.00017575
0.000116215
-0.00024986
0.00013627
-0.000300719
0.000150584
-0.000335857
0.000161766
-0.000360803
0.000171536
-0.000383597
0.000180708
-0.000404818
0.000190052
-0.000428289
-0.000454083
0.000199175
-8.84369e-08
8.51758e-06
-2.37283e-07
1.64394e-05
7.12933e-07
1.70464e-05
3.65942e-06
1.18731e-05
2.43629e-05
-2.60151e-05
6.39261e-05
-0.000119344
9.6573e-05
-0.000208397
0.000120064
-0.000273351
0.000136241
-0.000316897
0.000147782
-0.000347398
0.000157161
-0.000370183
0.000165793
-0.000392229
0.000174075
-0.000413099
0.000182601
-0.000436815
-0.000462631
0.000191149
-1.38043e-08
8.53139e-06
2.26402e-07
1.61992e-05
1.16472e-06
1.61081e-05
7.55336e-06
5.48442e-06
3.67295e-05
-5.51912e-05
7.37974e-05
-0.000156412
0.000102192
-0.000236792
0.000121475
-0.000292635
0.000134508
-0.00032993
0.000143976
-0.000356866
0.000152057
-0.000378264
0.000159696
-0.000399868
0.000167272
-0.000420674
0.000175244
-0.000444788
-0.000470357
0.00018297
-6.85e-08
8.59989e-06
3.4146e-07
1.57893e-05
9.92677e-07
1.54568e-05
1.3513e-05
-7.0359e-06
4.90182e-05
-9.06964e-05
8.14543e-05
-0.000188848
0.000105204
-0.000260541
0.000120925
-0.000308356
0.000131522
-0.000340526
0.000139465
-0.000364809
0.000146547
-0.000385346
0.000153463
-0.000406784
0.000160447
-0.000427658
0.000167709
-0.00045205
-0.000477455
0.000174807
-1.85524e-07
8.78541e-06
2.54383e-07
1.53494e-05
1.63259e-06
1.40786e-05
2.13038e-05
-2.67072e-05
5.83118e-05
-0.000127704
8.6717e-05
-0.000217253
0.000106209
-0.000280033
0.000118953
-0.0003211
0.000127676
-0.000349249
0.000134486
-0.000371619
0.000140828
-0.000391688
0.000147085
-0.000413041
0.000153485
-0.000434058
0.000160214
-0.000458779
-0.000483945
0.000166704
-2.54605e-07
9.04001e-06
-1.41845e-07
1.52366e-05
4.56806e-06
9.36873e-06
3.14604e-05
-5.35995e-05
6.48186e-05
-0.000161063
8.9596e-05
-0.000242031
0.000105645
-0.000296082
0.000115957
-0.000331411
0.000123227
-0.000356519
0.000129189
-0.000377582
0.00013491
-0.000397408
0.000140623
-0.000418754
0.00014654
-0.000439976
0.000152638
-0.000464877
-0.0004898
0.000158493
-3.29993e-07
9.37001e-06
-5.90274e-07
1.54969e-05
9.11053e-06
-3.32074e-07
4.11704e-05
-8.56594e-05
6.98877e-05
-0.00018978
9.05535e-05
-0.000262696
0.000103754
-0.000309282
0.00011222
-0.000339878
0.000118395
-0.000362694
0.000123687
-0.000382874
0.0001289
-0.000402622
0.000134111
-0.000423965
0.000139506
-0.00044537
0.000145056
-0.000470427
-0.000495158
0.000150414
-3.82482e-07
9.75249e-06
-5.63645e-07
1.5678e-05
1.43799e-05
-1.52756e-05
4.8076e-05
-0.000119356
7.32535e-05
-0.000214957
9.02161e-05
-0.000279659
0.000100957
-0.000320023
0.00010797
-0.000346891
0.000113295
-0.000368019
0.000118049
-0.000387628
0.000122792
-0.000407364
0.00012754
-0.000428713
0.00013249
-0.00045032
0.000137477
-0.000475414
-0.000499913
0.000142232
-2.77992e-07
1.00305e-05
7.83133e-07
1.46169e-05
2.14224e-05
-3.59148e-05
5.23209e-05
-0.000150254
7.48197e-05
-0.000237456
8.88535e-05
-0.000293693
9.7518e-05
-0.000328688
0.000103365
-0.000352738
0.00010803
-0.000372684
0.000112322
-0.00039192
0.000116644
-0.000411686
0.000120958
-0.000433028
0.000125426
-0.000454787
0.000129874
-0.000479863
-0.000504214
0.000134175
-2.76846e-07
1.03073e-05
3.45626e-06
1.08838e-05
2.87013e-05
-6.11599e-05
5.56374e-05
-0.00017719
7.48358e-05
-0.000256654
8.6524e-05
-0.000305381
9.362e-05
-0.000335784
9.85487e-05
-0.000357667
0.00010266
-0.000376795
0.000106541
-0.000395801
0.000110451
-0.000415595
0.000114337
-0.000436914
0.000118366
-0.000458816
0.000122311
-0.000483808
-0.000507982
0.000126079
-3.24267e-07
1.06316e-05
6.63301e-06
3.92654e-06
3.47054e-05
-8.92323e-05
5.78942e-05
-0.000200379
7.38184e-05
-0.000272579
8.34646e-05
-0.000315027
8.93612e-05
-0.00034168
9.35843e-05
-0.00036189
9.72328e-05
-0.000380444
0.000100728
-0.000399297
0.000104245
-0.000419111
0.000107723
-0.000440393
0.000111291
-0.000462384
0.000114726
-0.000487243
-0.000511331
0.000118075
-3.32884e-07
1.09645e-05
9.94631e-06
-6.35266e-06
3.86274e-05
-0.000117913
5.90912e-05
-0.000220843
7.21107e-05
-0.000285598
7.99383e-05
-0.000322855
8.48645e-05
-0.000346606
8.8533e-05
-0.000365558
9.17747e-05
-0.000383686
9.49023e-05
-0.000402424
9.80271e-05
-0.000422236
0.000101092
-0.000443459
0.000104223
-0.000465514
0.000107196
-0.000490216
-0.000514225
0.00011009
-3.22123e-07
1.12866e-05
1.37652e-05
-2.04399e-05
4.04393e-05
-0.000144588
5.90451e-05
-0.000239449
6.98645e-05
-0.000296417
7.61507e-05
-0.000329141
8.0238e-05
-0.000350694
8.34271e-05
-0.000368747
8.63036e-05
-0.000386562
8.9074e-05
-0.000405195
9.18145e-05
-0.000424977
9.44816e-05
-0.000446126
9.71672e-05
-0.0004682
9.96668e-05
-0.000492715
-0.000516721
0.000102163
-1.8947e-07
1.14761e-05
1.77857e-05
-3.84151e-05
4.15799e-05
-0.000168382
5.79039e-05
-0.000255773
6.70732e-05
-0.000305587
7.21801e-05
-0.000334248
7.5563e-05
-0.000354077
7.83157e-05
-0.0003715
8.08364e-05
-0.000389083
8.32537e-05
-0.000407612
8.56122e-05
-0.000427335
8.78738e-05
-0.000448387
9.01272e-05
-0.000470453
9.21954e-05
-0.000494784
-0.000518792
9.42667e-05
3.95186e-07
1.10809e-05
2.11669e-05
-5.91868e-05
4.21804e-05
-0.000189395
5.61127e-05
-0.000269705
6.38294e-05
-0.000313303
6.80595e-05
-0.000338478
7.08763e-05
-0.000356893
7.32202e-05
-0.000373844
7.53881e-05
-0.000391251
7.74505e-05
-0.000409675
7.94287e-05
-0.000429313
8.12956e-05
-0.000450254
8.3119e-05
-0.000472277
8.47449e-05
-0.00049641
-0.000520447
8.63992e-05
1.29088e-06
9.79e-06
2.37782e-05
-8.16741e-05
4.22006e-05
-0.000207818
5.3909e-05
-0.000281413
6.02959e-05
-0.00031969
6.38216e-05
-0.000342004
6.61878e-05
-0.000359259
6.81601e-05
-0.000375816
6.99726e-05
-0.000393063
7.16742e-05
-0.000411376
7.32715e-05
-0.000430911
7.4738e-05
-0.000451721
7.6135e-05
-0.000473674
7.73415e-05
-0.000497616
-0.000521674
7.85692e-05
2.6579e-06
7.1321e-06
2.55071e-05
-0.000104523
4.17882e-05
-0.000224099
5.14614e-05
-0.000291087
5.66303e-05
-0.000324859
5.9531e-05
-0.000344905
6.15061e-05
-0.000361235
6.31324e-05
-0.000377443
6.45948e-05
-0.000394525
6.59327e-05
-0.000412714
6.71475e-05
-0.000432125
6.82196e-05
-0.000452793
6.91932e-05
-0.000474647
6.99586e-05
-0.000498382
-0.000522436
7.072e-05
4.48042e-06
2.65168e-06
2.63914e-05
-0.000126434
4.09467e-05
-0.000238654
4.88479e-05
-0.000298988
5.29213e-05
-0.000328933
5.52377e-05
-0.000347221
5.68458e-05
-0.000362843
5.81431e-05
-0.00037874
5.92598e-05
-0.000395642
6.02322e-05
-0.000413687
6.10634e-05
-0.000432957
6.17363e-05
-0.000453466
6.22851e-05
-0.000475196
6.26187e-05
-0.000498715
-0.000522733
6.29159e-05
6.55188e-06
-3.9002e-06
2.63801e-05
-0.000146262
3.95739e-05
-0.000251848
4.61007e-05
-0.000305515
4.92207e-05
-0.000332053
5.09852e-05
-0.000348985
5.22251e-05
-0.000364083
5.31931e-05
-0.000379708
5.39684e-05
-0.000396417
5.45773e-05
-0.000414296
5.50242e-05
-0.000433403
5.52997e-05
-0.000453741
5.54272e-05
-0.000475323
5.53206e-05
-0.000498609
-0.000522553
5.51402e-05
8.80252e-06
-1.27027e-05
2.63495e-05
-0.000163809
3.77722e-05
-0.000263271
4.31747e-05
-0.000310917
4.55284e-05
-0.000334406
4.67897e-05
-0.000350247
4.76586e-05
-0.000364952
4.82933e-05
-0.000380343
4.87268e-05
-0.000396851
4.89729e-05
-0.000414542
4.90353e-05
-0.000433466
4.89081e-05
-0.000453614
4.86114e-05
-0.000475027
4.80779e-05
-0.000498075
-0.000521902
4.74269e-05
1.05537e-05
-2.32565e-05
2.61295e-05
-0.000179385
3.57351e-05
-0.000272876
4.00817e-05
-0.000315264
4.18231e-05
-0.000336148
4.26511e-05
-0.000351075
4.31564e-05
-0.000365457
4.345e-05
-0.000380636
4.35394e-05
-0.00039694
4.34243e-05
-0.000414426
4.31027e-05
-0.000433144
4.25713e-05
-0.000453083
4.18495e-05
-0.000474305
4.08896e-05
-0.000497115
-0.000520774
3.97619e-05
1.16897e-05
-3.49462e-05
2.55321e-05
-0.000193228
3.35075e-05
-0.000280852
3.68849e-05
-0.000318641
3.81063e-05
-0.000337369
3.85611e-05
-0.000351529
3.87205e-05
-0.000365616
3.86721e-05
-0.000380588
3.84144e-05
-0.000396683
3.79376e-05
-0.00041395
3.72339e-05
-0.000432441
3.62956e-05
-0.000452144
3.51397e-05
-0.000473149
3.37536e-05
-0.000495729
-0.00051919
3.21696e-05
1.22316e-05
-4.71778e-05
2.45827e-05
-0.000205579
3.11419e-05
-0.000287411
3.36536e-05
-0.000321153
3.44075e-05
-0.000338123
3.45226e-05
-0.000351645
3.43516e-05
-0.000365445
3.39628e-05
-0.000380199
3.3356e-05
-0.000396076
3.25184e-05
-0.000413112
3.14365e-05
-0.000431359
3.00979e-05
-0.000450806
2.85085e-05
-0.00047156
2.66658e-05
-0.000493886
-0.000517155
2.46305e-05
1.2289e-05
-5.94668e-05
2.33182e-05
-0.000216608
2.86629e-05
-0.000292756
3.04259e-05
-0.000322916
3.07506e-05
-0.000338448
3.05415e-05
-0.000351436
3.00505e-05
-0.000364954
2.93262e-05
-0.000379475
2.83707e-05
-0.00039512
2.71719e-05
-0.000411913
2.57155e-05
-0.000429902
2.39881e-05
-0.000449078
2.1982e-05
-0.000469554
1.96369e-05
-0.000491541
-0.000514663
1.71455e-05
1.20046e-05
-7.14713e-05
2.18186e-05
-0.000226422
2.61142e-05
-0.000297051
2.72286e-05
-0.00032403
2.7155e-05
-0.000338374
2.66281e-05
-0.000350909
2.5821e-05
-0.000364147
2.47643e-05
-0.000378418
2.34613e-05
-0.000393817
2.19026e-05
-0.000410355
2.00736e-05
-0.000428073
1.79666e-05
-0.000446971
1.55798e-05
-0.000467167
1.2724e-05
-0.000488686
-0.000511627
9.68805e-06
1.14845e-05
-8.29558e-05
2.01483e-05
-0.000235086
2.35247e-05
-0.000300427
2.40769e-05
-0.000324583
2.36328e-05
-0.00033793
2.27903e-05
-0.000350066
2.16675e-05
-0.000363024
2.02813e-05
-0.000377032
1.86332e-05
-0.000392169
1.6715e-05
-0.000408436
1.4513e-05
-0.000425871
1.20271e-05
-0.000444485
9.26184e-06
-0.000464401
6.03705e-06
-0.000485461
-0.000507777
2.18647e-06
1.08005e-05
-9.37564e-05
1.83696e-05
-0.000242655
2.09327e-05
-0.000302991
2.09879e-05
-0.000324638
2.01939e-05
-0.000337136
1.90357e-05
-0.000348908
1.7595e-05
-0.000361584
1.58796e-05
-0.000375317
1.38885e-05
-0.000390178
1.16125e-05
-0.00040616
9.03802e-06
-0.000423297
6.17849e-06
-0.000441626
2.94958e-06
-0.000461173
-1.95578e-07
-0.000482316
-0.000503204
-4.7687e-06
9.98001e-06
-0.000103736
1.65279e-05
-0.000249203
1.83678e-05
-0.00030483
1.79756e-05
-0.000324246
1.68447e-05
-0.000336005
1.53691e-05
-0.000347432
1.36075e-05
-0.000359822
1.15617e-05
-0.000373271
9.23036e-06
-0.000387847
6.59587e-06
-0.000403526
3.65265e-06
-0.000420354
3.64293e-07
-0.000438338
-3.14964e-06
-0.000457659
-7.07285e-06
-0.000478392
-0.000498768
-1.15085e-05
9.04336e-06
-0.00011278
1.46698e-05
-0.000254829
1.58588e-05
-0.00030602
1.50529e-05
-0.00032344
1.35894e-05
-0.000334541
1.17941e-05
-0.000345637
9.70794e-06
-0.000357736
7.32665e-06
-0.000370889
4.65401e-06
-0.000385174
1.65741e-06
-0.000400529
-1.62559e-06
-0.000417071
-5.19644e-06
-0.000434767
-9.05479e-06
-0.0004538
-1.35467e-05
-0.0004739
-0.000494111
-1.82035e-05
8.16945e-06
-0.000120949
1.28394e-05
-0.000259499
1.34179e-05
-0.000306598
1.222e-05
-0.000322242
1.04291e-05
-0.000332751
8.3118e-06
-0.00034352
5.89559e-06
-0.00035532
3.1714e-06
-0.000368165
1.1701e-07
-0.00038212
-3.1614e-06
-0.000397251
-6.77743e-06
-0.000413454
-1.06907e-05
-0.000430853
-1.49494e-05
-0.000449542
-1.98361e-05
-0.000469014
-0.000489128
-2.48195e-05
7.31492e-06
-0.000128264
1.10639e-05
-0.000263248
1.10576e-05
-0.000306592
9.47834e-06
-0.000320663
7.3636e-06
-0.000330636
4.91939e-06
-0.000341076
2.1603e-06
-0.000352561
-8.98189e-07
-0.000365107
-4.20757e-06
-0.00037881
-7.86877e-06
-0.00039359
-1.18304e-05
-0.000409493
-1.61032e-05
-0.000426581
-2.07796e-05
-0.000444865
-2.59795e-05
-0.000463814
-0.00048377
-3.13369e-05
6.4752e-06
-0.000134739
9.35402e-06
-0.000266127
8.7834e-06
-0.000306021
6.83141e-06
-0.000318711
4.39011e-06
-0.000328194
1.60217e-06
-0.000338288
-1.4673e-06
-0.000349491
-4.80924e-06
-0.000361765
-8.4791e-06
-0.000375141
-1.24781e-05
-0.000389591
-1.67855e-05
-0.000405185
-2.14293e-05
-0.000421937
-2.65268e-05
-0.000439768
-3.20077e-05
-0.000458333
-0.000478044
-3.77341e-05
5.65895e-06
-0.000140398