/*--------------------------------*- C++ -*----------------------------------*\
  =========                 |
  \\      /  F ield         | OpenFOAM: The Open Source CFD Toolbox
   \\    /   O peration     | Website:  https://openfoam.org
    \\  /    A nd           | Version:  7
     \\/     M anipulation  |
\*---------------------------------------------------------------------------*/
FoamFile
{
    version     2.0;
    format      ascii;
    class       volVectorField;
    location    "27.0006";
    object      U;
}
// * * * * * * * * * * * * * * * * * * * * * * * * * * * * * * * * * * * * * //

dimensions      [0 1 -1 0 0 0 0];

internalField   nonuniform List<vector> 
18750
(
(-0.0362295 0.0225843 -4.90577e-21)
(-0.128091 0.0272303 1.86883e-21)
(-0.227798 0.0250045 2.36648e-20)
(-0.315357 0.0231252 5.8068e-21)
(-0.402265 0.0213417 -1.50159e-20)
(-0.483654 0.0196406 -3.71764e-20)
(-0.562711 0.0179593 3.94922e-20)
(-0.637319 0.0162988 2.65552e-20)
(-0.708976 0.0146548 -2.01462e-20)
(-0.776594 0.0130591 -5.46645e-20)
(-0.841134 0.0115312 2.10185e-19)
(-0.901812 0.0100901 -1.74656e-19)
(-0.95914 0.00874377 1.04627e-19)
(-1.01248 0.0075386 -2.06628e-19)
(-1.06236 0.00655794 4.81043e-20)
(-0.0377778 0.0679566 2.77248e-21)
(-0.129305 0.0831636 6.49372e-21)
(-0.227957 0.0776677 4.3231e-21)
(-0.314512 0.073192 4.05327e-20)
(-0.400392 0.0690322 8.60443e-20)
(-0.480729 0.065132 1.17772e-19)
(-0.558658 0.0612891 -1.02693e-19)
(-0.632045 0.0574824 1.71123e-19)
(-0.702351 0.053677 1.61642e-19)
(-0.768477 0.0499415 -5.30781e-20)
(-0.831381 0.0463118 -2.23127e-19)
(-0.890278 0.0428205 1.07362e-20)
(-0.945646 0.0394663 5.05674e-20)
(-0.996776 0.036361 1.34605e-19)
(-1.04414 0.0337433 -2.0697e-19)
(-0.0408229 0.112247 1.06522e-20)
(-0.131716 0.138172 1.9269e-20)
(-0.228311 0.129587 -6.12573e-20)
(-0.312904 0.122586 5.75337e-21)
(-0.396784 0.116109 -1.59182e-19)
(-0.475079 0.110046 5.41349e-20)
(-0.550827 0.104064 -1.57004e-19)
(-0.621859 0.0981234 -1.75553e-20)
(-0.689566 0.0921609 -1.23637e-19)
(-0.75283 0.086283 3.77482e-19)
(-0.812602 0.0805498 5.05942e-19)
(-0.86811 0.0750258 4.49917e-19)
(-0.919771 0.0697163 2.66121e-19)
(-0.96675 0.064782 1.81209e-19)
(-1.00941 0.0605631 -3.38529e-19)
(-0.0452519 0.154761 -6.52947e-20)
(-0.135249 0.191657 8.08148e-20)
(-0.228844 0.180283 -6.28816e-20)
(-0.310567 0.170879 -1.36638e-19)
(-0.391539 0.162187 2.43231e-19)
(-0.466885 0.154023 -2.29565e-19)
(-0.539503 0.14594 3.47336e-19)
(-0.607187 0.137882 -2.98847e-19)
(-0.671233 0.129764 2.14141e-19)
(-0.730504 0.121729 -5.28796e-19)
(-0.785953 0.113871 -7.66693e-19)
(-0.836843 0.106309 4.26557e-20)
(-0.883543 0.0990747 -1.47793e-19)
(-0.925075 0.0923582 -3.24118e-19)
(-0.961674 0.0865306 1.24225e-18)
(-0.0509003 0.194839 -5.41032e-20)
(-0.13979 0.24304 1.23956e-19)
(-0.229524 0.229301 2.69438e-20)
(-0.30754 0.217676 1.06545e-19)
(-0.384788 0.206914 -1.48669e-19)
(-0.456385 0.196743 6.49744e-20)
(-0.525063 0.186619 8.2726e-19)
(-0.588579 0.176481 1.31346e-19)
(-0.648127 0.166227 2.3615e-19)
(-0.702559 0.156038 -8.4428e-20)
(-0.752838 0.146054 7.09436e-20)
(-0.798303 0.136472 -3.0326e-20)
(-0.839314 0.127375 -8.42004e-19)
(-0.874768 0.118967 -4.74176e-19)
(-0.904759 0.111587 -1.40702e-18)
(-0.0575806 0.231901 1.21677e-19)
(-0.145201 0.291761 4.64865e-20)
(-0.230304 0.276217 -6.03752e-20)
(-0.30386 0.262621 -4.52191e-20)
(-0.376679 0.249981 5.24727e-20)
(-0.443854 0.23793 -6.9743e-19)
(-0.507929 0.225858 -8.88978e-20)
(-0.566645 0.213703 4.47463e-20)
(-0.621091 0.20136 -3.46741e-19)
(-0.670119 0.18905 -4.81656e-19)
(-0.714717 0.176967 3.55229e-19)
(-0.754335 0.165404 -3.54313e-19)
(-0.789385 0.15452 1.10666e-18)
(-0.818691 0.144531 -8.70166e-19)
(-0.842187 0.135699 1.91864e-18)
(-0.0650807 0.265395 -1.13567e-19)
(-0.151303 0.337279 -1.91249e-19)
(-0.231091 0.320662 8.03911e-20)
(-0.299556 0.305408 6.11768e-19)
(-0.367363 0.291123 6.30975e-19)
(-0.429574 0.27736 -2.24822e-19)
(-0.488538 0.263463 1.16354e-19)
(-0.541998 0.249389 7.69075e-20)
(-0.59095 0.235036 7.52536e-19)
(-0.634262 0.220675 1.04964e-18)
(-0.672947 0.206556 -5.12541e-19)
(-0.706601 0.193082 -9.95881e-19)
(-0.735749 0.180509 -1.86317e-18)
(-0.759207 0.169084 3.23836e-19)
(-0.776736 0.158961 -2.34719e-18)
(-0.0731458 0.29475 -1.04431e-19)
(-0.157882 0.379139 -1.22551e-19)
(-0.231769 0.362334 -8.88937e-19)
(-0.294644 0.345786 3.23248e-19)
(-0.356988 0.330125 -3.7573e-19)
(-0.413823 0.314855 2.62687e-19)
(-0.467309 0.299298 2.8751e-19)
(-0.515218 0.283436 -1.25392e-18)
(-0.558465 0.267192 -8.44838e-19)
(-0.595949 0.250888 -1.44224e-18)
(-0.628704 0.234839 -2.39723e-19)
(-0.656485 0.21956 1.05854e-18)
(-0.679978 0.205421 4.17393e-18)
(-0.698063 0.192727 -6.43421e-19)
(-0.710318 0.181519 1.15078e-18)
(-0.0814547 0.319408 5.60183e-19)
(-0.16468 0.416936 2.26315e-19)
(-0.232207 0.401003 9.80216e-19)
(-0.289134 0.383559 -7.24531e-19)
(-0.345684 0.366822 3.50055e-19)
(-0.396854 0.350286 -5.91111e-19)
(-0.444624 0.333269 -1.37629e-18)
(-0.486819 0.315786 1.23335e-18)
(-0.524291 0.297805 1.49903e-19)
(-0.555981 0.279709 2.15802e-18)
(-0.582932 0.261876 -7.09055e-19)
(-0.605049 0.244929 -3.23358e-18)
(-0.6232 0.229364 -1.98539e-18)
(-0.636401 0.215573 2.08722e-19)
(-0.644045 0.203505 -9.73882e-19)
(-0.0896363 0.33891 -4.70083e-19)
(-0.171405 0.450369 -2.66579e-19)
(-0.232272 0.436494 3.49861e-19)
(-0.283029 0.418581 5.44672e-20)
(-0.333566 0.401091 -1.37801e-19)
(-0.378892 0.383567 -1.61165e-19)
(-0.42082 0.365324 6.27256e-19)
(-0.457247 0.346425 -7.5814e-19)
(-0.488974 0.326895 7.51956e-19)
(-0.514999 0.307189 9.52443e-19)
(-0.536356 0.287754 -1.69845e-18)
(-0.553068 0.269305 3.23535e-18)
(-0.56617 0.252462 3.7999e-19)
(-0.57487 0.23774 5.23281e-19)
(-0.578417 0.22503 1.20597e-18)
(-0.0972512 0.352795 8.94542e-19)
(-0.1777 0.479107 -2.93868e-19)
(-0.231811 0.468684 -1.30497e-18)
(-0.276319 0.45075 5.23173e-19)
(-0.320729 0.432853 -3.02908e-19)
(-0.360127 0.414645 3.56811e-19)
(-0.396179 0.395439 2.69379e-18)
(-0.426865 0.375357 1.31394e-18)
(-0.452944 0.354494 8.79705e-19)
(-0.473483 0.333387 -2.96199e-18)
(-0.48949 0.312555 3.26138e-18)
(-0.501058 0.292793 1.20463e-18)
(-0.509339 0.274822 -1.94734e-18)
(-0.513764 0.259302 2.36626e-18)
(-0.513535 0.24612 -8.15784e-20)
(-0.103841 0.36082 1.89988e-19)
(-0.183232 0.503078 4.46295e-20)
(-0.230696 0.49747 -9.30914e-20)
(-0.268995 0.479998 -9.35921e-19)
(-0.30724 0.462062 1.88098e-18)
(-0.340718 0.4435 -9.65621e-19)
(-0.370938 0.423622 -2.86139e-18)
(-0.395972 0.402616 8.94084e-19)
(-0.41654 0.380655 -1.42664e-18)
(-0.431789 0.358371 2.22875e-18)
(-0.442689 0.336363 -4.04477e-18)
(-0.449359 0.315488 3.19993e-19)
(-0.45298 0.296541 1.73988e-18)
(-0.453192 0.280311 -3.66288e-18)
(-0.449344 0.266771 -8.62715e-19)
(-0.108758 0.362425 -5.97113e-19)
(-0.187582 0.522015 1.70889e-19)
(-0.228769 0.522758 5.32024e-19)
(-0.261022 0.506288 -2.58809e-20)
(-0.293158 0.488715 -2.57503e-18)
(-0.320789 0.470138 2.46772e-19)
(-0.345281 0.449883 9.32155e-19)
(-0.364794 0.428226 -2.55663e-18)
(-0.380014 0.405423 1.94346e-18)
(-0.390165 0.382195 -1.79813e-18)
(-0.396175 0.35923 4.94904e-18)
(-0.39816 0.337451 -2.06739e-18)
(-0.397242 0.317679 2.53176e-18)
(-0.393177 0.300793 5.14989e-18)
(-0.385662 0.286904 2.23288e-18)
(-0.111487 0.358023 -2.39767e-19)
(-0.190458 0.536082 -7.14922e-21)
(-0.225989 0.544389 -1.88676e-20)
(-0.252371 0.529636 -6.15924e-20)
(-0.278507 0.512828 -1.26753e-18)
(-0.300448 0.494574 -5.67777e-19)
(-0.319362 0.474255 9.18631e-19)
(-0.333522 0.452242 5.64151e-19)
(-0.343564 0.428852 -3.28477e-18)
(-0.348793 0.404912 -1.85759e-19)
(-0.350088 0.381205 -9.71157e-19)
(-0.347567 0.358721 1.9931e-18)
(-0.342244 0.3383 -2.7957e-18)
(-0.333783 0.320789 -3.9354e-19)
(-0.32235 0.306338 -2.52568e-18)
(-0.111697 0.347813 1.0761e-18)
(-0.191428 0.544798 -9.61087e-19)
(-0.222191 0.562287 -1.30183e-18)
(-0.242958 0.55007 2.32639e-18)
(-0.263336 0.534459 2.05688e-18)
(-0.279777 0.516845 2.652e-18)
(-0.293299 0.496763 1.15853e-19)
(-0.302283 0.474676 1.84373e-18)
(-0.307331 0.450963 2.48956e-18)
(-0.3078 0.426548 3.7488e-18)
(-0.304515 0.4023 -1.74714e-18)
(-0.297604 0.379294 3.69729e-18)
(-0.288016 0.358397 -1.81392e-20)
(-0.275189 0.340316 -1.88496e-18)
(-0.259005 0.325063 -4.70617e-18)
(-0.109177 0.331777 -6.85546e-19)
(-0.190191 0.547889 1.06158e-18)
(-0.217245 0.576466 7.09817e-19)
(-0.23277 0.567692 -2.19944e-18)
(-0.247645 0.55364 -1.02723e-18)
(-0.258859 0.536976 -1.90006e-19)
(-0.267196 0.517443 -1.41337e-18)
(-0.271217 0.49559 -2.43714e-18)
(-0.271436 0.471797 -4.19469e-18)
(-0.267294 0.447132 -1.83569e-18)
(-0.259534 0.422538 2.59583e-18)
(-0.248271 0.399158 -5.44697e-18)
(-0.234551 0.37794 1.92245e-19)
(-0.217689 0.359464 3.4981e-18)
(-0.195521 0.343237 5.05049e-18)
(-0.103753 0.30991 -1.65884e-18)
(-0.186544 0.545231 1.28304e-18)
(-0.210976 0.586871 -2.21278e-18)
(-0.221842 0.582606 -1.07037e-18)
(-0.231514 0.570447 -5.93777e-20)
(-0.237758 0.555031 1.48171e-18)
(-0.241149 0.536337 2.41507e-18)
(-0.240388 0.514938 8.07846e-19)
(-0.23597 0.491323 1.18274e-18)
(-0.227344 0.466639 -3.35366e-18)
(-0.215212 0.441887 9.61665e-20)
(-0.199605 0.418271 -2.62176e-18)
(-0.18166 0.396832 -1.94547e-18)
(-0.161377 0.378042 -5.59962e-18)
(-0.13244 0.36153 -6.818e-20)
(-0.0953689 0.282412 1.45944e-18)
(-0.180384 0.536705 2.32427e-19)
(-0.203295 0.593338 3.40083e-19)
(-0.210142 0.594766 2.64947e-18)
(-0.215014 0.584983 1.12471e-18)
(-0.216567 0.571092 -1.38184e-18)
(-0.215287 0.553499 1.09491e-18)
(-0.209938 0.532763 -6.41793e-19)
(-0.20102 0.509564 -1.29675e-18)
(-0.188033 0.48506 1.47246e-18)
(-0.171622 0.460344 -5.02746e-18)
(-0.151691 0.436639 -2.11095e-19)
(-0.12941 0.41507 -2.88819e-18)
(-0.106006 0.395995 4.47479e-18)
(-0.0703775 0.380161 4.1658e-19)
(-0.0842193 0.249728 -5.61519e-19)
(-0.171717 0.522102 -1.56938e-18)
(-0.194206 0.595605 4.1056e-19)
(-0.197691 0.604107 -3.06291e-18)
(-0.198188 0.597257 -2.09176e-18)
(-0.195354 0.585154 -1.18561e-18)
(-0.189682 0.568873 -2.08694e-18)
(-0.179975 0.549058 2.02892e-18)
(-0.16671 0.526497 2.88158e-18)
(-0.149452 0.502375 5.66689e-18)
(-0.128848 0.477868 -2.61793e-19)
(-0.104642 0.454225 6.47107e-18)
(-0.0777019 0.43255 2.55719e-18)
(-0.0518739 0.413351 2.01753e-18)
(-0.00827824 0.399289 -4.46566e-18)
(-0.070896 0.212544 9.68461e-19)
(-0.160679 0.501071 2.39063e-18)
(-0.183758 0.59324 1.63651e-18)
(-0.18456 0.610484 2.13618e-18)
(-0.181102 0.607261 6.16018e-21)
(-0.174217 0.597211 8.45066e-19)
(-0.164406 0.582446 2.0954e-20)
(-0.150595 0.563786 -1.56911e-18)
(-0.133139 0.542053 2.46936e-18)
(-0.111697 0.518491 -8.66319e-18)
(-0.0869721 0.494384 2.55415e-18)
(-0.0586533 0.470967 -1.69462e-18)
(-0.0264057 0.449305 3.34407e-19)
(0.000728319 0.429934 -2.55606e-18)
(0.0540986 0.418816 -2.89444e-18)
(-0.0565631 0.171829 -1.58076e-18)
(-0.147546 0.473089 2.10264e-18)
(-0.172011 0.5856 -5.22799e-19)
(-0.170834 0.613619 -9.07834e-19)
(-0.163874 0.614942 1.89883e-18)
(-0.153251 0.607272 2.01644e-19)
(-0.139595 0.594195 -5.68207e-19)
(-0.121881 0.576863 -6.68842e-20)
(-0.100442 0.556162 -1.59455e-18)
(-0.0748696 0.533324 4.1577e-18)
(-0.0460048 0.509738 2.56597e-18)
(-0.0140452 0.486804 1.36553e-18)
(0.0246752 0.465202 -1.28849e-19)
(0.0513487 0.445012 3.29268e-18)
(0.11694 0.439414 -2.98362e-19)
(-0.04299 0.129094 4.62863e-19)
(-0.132718 0.437452 -5.00233e-19)
(-0.158998 0.571842 3.94693e-19)
(-0.156592 0.61305 1.68098e-18)
(-0.146617 0.62016 -1.07518e-18)
(-0.132615 0.615282 -7.03975e-19)
(-0.115351 0.604102 -1.32478e-18)
(-0.0939938 0.588247 1.05078e-18)
(-0.0687373 0.568686 -1.10059e-18)
(-0.0391613 0.546708 -1.27677e-18)
(-0.00589231 0.523744 -2.2155e-18)
(0.0287998 0.501545 -1.29174e-18)
(0.0757336 0.480592 4.75125e-18)
(0.0996564 0.457672 -6.55092e-18)
(0.18013 0.460475 -1.76901e-19)
(-0.031801 0.0868749 1.98106e-18)
(-0.11663 0.393375 -7.67127e-19)
(-0.14471 0.551004 -1.99394e-18)
(-0.141887 0.608088 -5.32885e-19)
(-0.129476 0.622589 2.82024e-18)
(-0.112414 0.621165 -5.93026e-20)
(-0.0918874 0.612081 1.37871e-18)
(-0.0670307 0.597809 -7.58174e-19)
(-0.0382115 0.579546 -2.97929e-18)
(-0.00485475 0.558555 6.94595e-18)
(0.033541 0.53612 -5.14185e-18)
(0.0693743 0.514794 1.53335e-18)
(0.127032 0.495705 -6.76426e-18)
(0.145026 0.467242 2.39327e-18)
(0.243594 0.481627 1.97347e-18)
(-0.0230588 0.0486678 -7.05763e-19)
(-0.0995636 0.340294 -2.26871e-18)
(-0.129095 0.522111 1.02598e-18)
(-0.126763 0.597754 1.81627e-19)
(-0.11255 0.621698 -2.53791e-18)
(-0.0928546 0.624667 1.57419e-18)
(-0.069292 0.618085 8.28938e-20)
(-0.0412771 0.605482 -3.87342e-19)
(-0.00887989 0.588454 -3.04775e-18)
(0.027487 0.568686 -3.53263e-19)
(0.0725133 0.546752 4.10209e-18)
(0.107193 0.525795 3.46169e-19)
(0.178982 0.511721 9.80056e-19)
(0.187325 0.472787 2.82638e-18)
(0.305713 0.499784 -7.22361e-18)
(-0.0151344 0.017793 -1.07258e-18)
(-0.0817567 0.278573 3.37448e-20)
(-0.112123 0.48425 -1.30115e-18)
(-0.111244 0.580748 1.05553e-18)
(-0.095982 0.616631 1.43613e-18)
(-0.0740161 0.625484 -1.07922e-18)
(-0.0479067 0.621848 -1.87403e-19)
(-0.0168568 0.611114 -9.09205e-19)
(0.0191636 0.59534 2.27964e-18)
(0.0573352 0.576877 4.38368e-19)
(0.111171 0.555561 -5.94044e-18)
(0.141389 0.532942 1.623e-18)
(0.231811 0.529087 1.01379e-18)
(0.228074 0.478452 -4.56889e-18)
(0.365724 0.511059 1.04088e-18)
(-0.00664512 -0.00384571 2.4267e-19)
(-0.064048 0.210719 6.52253e-19)
(-0.0939863 0.436496 1.21774e-18)
(-0.0953671 0.555472 -1.03077e-18)
(-0.0798533 0.606238 -4.15154e-20)
(-0.0562086 0.622923 2.60954e-18)
(-0.0276874 0.623247 -1.21519e-19)
(0.00548355 0.614514 -4.62811e-21)
(0.0463095 0.599644 3.6976e-18)
(0.0837728 0.582719 -2.12361e-18)
(0.149952 0.563593 1.52871e-18)
(0.171347 0.534364 -4.32185e-18)
(0.283841 0.544385 3.73673e-19)
(0.268891 0.487752 -1.1563e-18)
(0.423939 0.519653 1.99002e-18)
(0.00173899 -0.0162143 -1.81702e-19)
(-0.0475267 0.142713 8.12899e-19)
(-0.0753081 0.378121 -1.08147e-18)
(-0.0792076 0.520118 2.27658e-18)
(-0.0643358 0.588966 -1.91519e-18)
(-0.0395564 0.616137 -1.7159e-18)
(-0.00912134 0.621426 -1.06896e-18)
(0.0255781 0.615647 -2.3122e-18)
(0.0722286 0.601566 -4.50376e-18)
(0.106577 0.584612 6.88687e-19)
(0.188307 0.571886 3.56534e-18)
(0.198095 0.531604 2.86816e-18)
(0.333541 0.551761 4.91152e-19)
(0.30868 0.497481 -2.40908e-18)
(0.480928 0.526315 -1.22061e-18)
(0.00833453 -0.0214518 4.35524e-19)
(-0.0319396 0.0830337 7.62547e-19)
(-0.0567904 0.309255 -3.25515e-18)
(-0.063012 0.47307 -2.25049e-18)
(-0.0495737 0.562862 -6.63822e-20)
(-0.0246829 0.603575 1.80002e-18)
(0.00822579 0.61592 -6.61911e-19)
(0.0418052 0.61329 5.13994e-18)
(0.0976423 0.601109 4.29628e-19)
(0.124548 0.581468 -2.90146e-18)
(0.226001 0.579603 -2.7425e-18)
(0.222008 0.528586 -4.39905e-18)
(0.379894 0.551656 4.85877e-18)
(0.347275 0.502153 3.24215e-18)
(0.534045 0.528033 -1.02068e-20)
(0.0124938 -0.0225671 -1.21285e-18)
(-0.0162204 0.0382774 -2.24582e-18)
(-0.0391207 0.231995 1.62017e-18)
(-0.0472205 0.413193 1.98318e-18)
(-0.0357936 0.525683 1.23326e-18)
(-0.0120585 0.583226 -1.25382e-18)
(0.0234502 0.604694 3.20308e-18)
(0.0550334 0.607494 -4.58256e-18)
(0.120101 0.598627 5.11086e-18)
(0.139411 0.57055 3.29134e-18)
(0.258383 0.583082 -1.02732e-18)
(0.248718 0.527261 -1.44892e-18)
(0.414545 0.54505 -1.94521e-18)
(0.391051 0.505517 -3.89644e-18)
(0.576087 0.51723 4.69318e-18)
(0.0146051 -0.0218027 3.41581e-18)
(-0.00116231 0.009063 2.61995e-18)
(-0.0232479 0.153901 5.94884e-19)
(-0.0326806 0.340758 -3.4846e-20)
(-0.0232919 0.474883 -4.28761e-19)
(-0.00254457 0.552619 -5.03617e-19)
(0.0367063 0.586223 -2.50177e-18)
(0.0624951 0.593182 4.35527e-18)
(0.141597 0.597161 -3.41313e-18)
(0.149941 0.555462 -3.16815e-20)
(0.28106 0.571436 3.31937e-18)
(0.279274 0.529569 2.34657e-18)
(0.43401 0.52415 2.34215e-18)
(0.433693 0.512967 -2.61264e-20)
(0.615063 0.492336 -2.79571e-18)
(0.0155582 -0.0203553 -2.0501e-18)
(0.0113818 -0.0078109 -2.12661e-18)
(-0.00855919 0.0883288 6.60113e-19)
(-0.0201426 0.25945 -1.0677e-18)
(-0.0123315 0.409003 -5.04187e-19)
(0.00305688 0.508075 1.81177e-18)
(0.0463361 0.558881 -4.79165e-19)
(0.0670473 0.569335 -4.47601e-19)
(0.150517 0.583849 -1.37106e-18)
(0.172566 0.549792 -3.18159e-18)
(0.276597 0.54331 1.47967e-18)
(0.328592 0.529235 -1.76118e-18)
(0.420987 0.499087 -2.71702e-18)
(0.516842 0.512543 -1.23409e-18)
(0.570869 0.456495 4.97841e-18)
(0.0164267 -0.0187423 2.31184e-18)
(0.0212532 -0.0164492 -1.81678e-18)
(0.00629535 0.043399 -2.98447e-18)
(-0.00898164 0.178745 3.0529e-19)
(-0.00330441 0.329665 7.1581e-19)
(0.00504343 0.447196 -5.04008e-19)
(0.0494146 0.517528 1.37203e-18)
(0.0692804 0.536529 2.8682e-19)
(0.14898 0.557182 -1.98366e-19)
(0.185896 0.528805 1.0999e-19)
(0.283427 0.532827 -1.53449e-18)
(0.335648 0.486168 2.01055e-19)
(0.456989 0.51008 8.74281e-19)
(0.495377 0.450914 -6.88872e-19)
(0.642924 0.478055 4.6669e-18)
(0.0179819 -0.0173347 4.85489e-19)
(0.0296839 -0.0203374 -1.04269e-18)
(0.0206382 0.0171477 2.90455e-18)
(0.00246152 0.111867 2.24589e-18)
(0.00376278 0.245263 -2.24919e-18)
(0.00377539 0.370416 -1.51402e-19)
(0.0450786 0.460121 -1.03158e-18)
(0.0660667 0.486386 -3.98869e-19)
(0.138059 0.522596 2.83598e-18)
(0.193373 0.485084 1.45003e-18)
(0.271955 0.511893 1.99485e-18)
(0.364655 0.446652 -1.58668e-18)
(0.447394 0.493781 1.07428e-18)
(0.513902 0.402556 -6.17038e-19)
(0.680886 0.487181 -5.95139e-18)
(0.0205057 -0.0164832 3.87722e-19)
(0.0374538 -0.0220809 6.21626e-19)
(0.0328498 0.00290685 -1.59984e-18)
(0.0143466 0.0659486 -1.82319e-18)
(0.00866185 0.169056 -1.67126e-18)
(0.000813862 0.284717 1.43024e-19)
(0.0316959 0.386809 1.2027e-18)
(0.0597834 0.419652 -2.17848e-18)
(0.109235 0.46387 -1.1455e-18)
(0.205319 0.442469 6.26666e-19)
(0.225169 0.442976 -1.82662e-18)
(0.415748 0.433551 1.88917e-19)
(0.364253 0.401621 1.27444e-18)
(0.611866 0.406539 -1.71981e-18)
(0.57486 0.397578 1.39833e-18)
(0.023838 -0.0164249 -8.7263e-19)
(0.0443182 -0.0235589 1.98077e-18)
(0.0417463 -0.00585237 1.30945e-18)
(0.0239677 0.0371201 8.76477e-19)
(0.0109403 0.109589 1.42944e-18)
(-0.00397265 0.20233 -1.44004e-19)
(0.0121768 0.302141 -1.11351e-18)
(0.0444627 0.340804 2.45078e-19)
(0.0755352 0.382231 1.50742e-18)
(0.187226 0.377716 -2.3752e-18)
(0.191654 0.359783 -1.11188e-18)
(0.391953 0.37326 9.90283e-20)
(0.297568 0.290286 -3.60187e-19)
(0.634419 0.374766 2.0428e-18)
(0.422362 0.250954 -1.96994e-18)
(0.0273714 -0.0171123 9.5311e-19)
(0.0491938 -0.0258406 6.37268e-19)
(0.0461444 -0.0137265 -7.52388e-20)
(0.0279908 0.0164571 -5.68609e-19)
(0.00890561 0.0653588 1.26859e-19)
(-0.0132815 0.131548 -1.67532e-18)
(-0.00943873 0.21595 3.67799e-19)
(0.0149093 0.251724 -7.23386e-19)
(0.0441998 0.293925 -7.31385e-19)
(0.138057 0.277126 1.62145e-18)
(0.169111 0.27963 2.35618e-18)
(0.314318 0.265059 1.11094e-18)
(0.306697 0.230516 1.17162e-18)
(0.60221 0.310273 -1.52985e-18)
(0.551458 0.264879 -1.62043e-18)
(0.0301438 -0.0182052 7.89511e-19)
(0.050672 -0.02916 -1.49921e-18)
(0.0447495 -0.0229211 -7.24314e-19)
(0.0242636 -0.00269237 -1.62161e-18)
(-0.000223876 0.029428 7.29211e-19)
(-0.0289686 0.0722452 1.76643e-18)
(-0.0347914 0.134985 -2.01243e-18)
(-0.0242365 0.158821 6.99241e-19)
(0.00680234 0.20077 1.30711e-18)
(0.0815064 0.166908 3.52334e-19)
(0.131626 0.182271 -1.50596e-18)
(0.283356 0.180345 -6.39126e-19)
(0.401757 0.226933 -2.62218e-21)
(0.687694 0.310934 9.01494e-19)
(0.848082 0.391174 3.59936e-18)
(0.0310804 -0.0191776 -1.27771e-18)
(0.0476096 -0.0330573 -1.28135e-18)
(0.036834 -0.0336019 7.17085e-19)
(0.0121651 -0.0228343 2.88161e-18)
(-0.0180725 -0.00399574 -1.87297e-18)
(-0.0518151 0.0196501 5.2489e-19)
(-0.0680047 0.0601007 7.83514e-19)
(-0.0679083 0.0683808 -6.55284e-20)
(-0.0398254 0.103068 1.66217e-19)
(0.033781 0.069519 7.1862e-19)
(0.138836 0.105509 -6.5172e-19)
(0.372384 0.172138 -1.37204e-18)
(0.588801 0.270477 -1.2819e-18)
(0.862812 0.37202 1.07409e-18)
(0.994721 0.439723 3.5233e-19)
(0.0292879 -0.0194497 -3.15315e-19)
(0.0395291 -0.0366264 2.53974e-18)
(0.0226656 -0.0446291 5.33777e-19)
(-0.00732628 -0.043417 7.61148e-19)
(-0.0439489 -0.0366912 6.9433e-19)
(-0.0830183 -0.0279718 6.6483e-19)
(-0.109822 -0.00838375 -2.35495e-19)
(-0.112845 -0.0134823 4.30691e-19)
(-0.0760325 0.0156762 2.10742e-19)
(0.0577478 0.0243849 9.19388e-19)
(0.274965 0.111956 4.14937e-20)
(0.553337 0.224223 9.5109e-19)
(0.788466 0.333481 -8.17064e-19)
(0.972356 0.406138 -8.33615e-19)
(1.06346 0.450439 5.84787e-19)
(0.024327 -0.0185123 1.13798e-18)
(0.0267691 -0.0386851 -1.04253e-18)
(0.0035251 -0.0539223 1.0786e-19)
(-0.0319866 -0.0615959 -1.55192e-18)
(-0.0748206 -0.0650677 -1.29175e-18)
(-0.119313 -0.0670933 2.23504e-18)
(-0.150003 -0.0633853 6.44469e-19)
(-0.133945 -0.0706388 -9.13366e-19)
(-0.0413429 -0.0287337 2.55188e-19)
(0.201437 0.0542089 -2.50413e-18)
(0.482908 0.174925 8.55237e-19)
(0.736342 0.286442 -1.04434e-18)
(0.91346 0.368492 1.29433e-18)
(1.03833 0.419343 -1.33265e-19)
(1.1206 0.459937 -8.49088e-19)
(0.0164308 -0.0160419 -1.77646e-18)
(0.0105929 -0.0379996 -1.80936e-18)
(-0.0181391 -0.0588393 -1.859e-18)
(-0.0578459 -0.0727232 -1.401e-18)
(-0.103467 -0.0821415 9.43212e-19)
(-0.146446 -0.0883539 -3.84408e-18)
(-0.164485 -0.088394 3.50069e-19)
(-0.0960127 -0.0808761 3.51544e-19)
(0.0962087 -0.0033551 1.85271e-19)
(0.405853 0.122892 1.17297e-18)
(0.670755 0.237832 -9.73124e-19)
(0.864924 0.326211 2.30939e-18)
(0.997856 0.387916 -5.03549e-19)
(1.09212 0.430339 -1.01683e-18)
(1.14284 0.455172 5.79047e-19)
(0.00651776 -0.0120556 3.13544e-19)
(-0.00696766 -0.0337746 1.46718e-18)
(-0.0389635 -0.057138 2.09581e-18)
(-0.0791996 -0.0731723 3.44648e-19)
(-0.120865 -0.0827278 1.68581e-18)
(-0.150669 -0.0847069 9.46816e-19)
(-0.139247 -0.0778946 2.9882e-19)
(0.00933201 -0.0422319 -1.50876e-18)
(0.294327 0.0732176 -9.16728e-20)
(0.591581 0.190809 6.4457e-19)
(0.810064 0.284471 2.40653e-18)
(0.960643 0.354765 -2.99378e-19)
(1.05953 0.402559 8.64985e-19)
(1.11796 0.430454 8.35525e-19)
(1.15773 0.44912 1.39707e-18)
(-0.0040779 -0.00698121 5.766e-19)
(-0.0237608 -0.0261132 -1.9308e-18)
(-0.0559669 -0.0487852 -4.17889e-19)
(-0.0918902 -0.0630787 2.19013e-20)
(-0.122821 -0.0678694 -3.14806e-18)
(-0.130621 -0.0612055 8.26516e-19)
(-0.0775891 -0.0487071 -4.27182e-19)
(0.169771 0.0298427 5.06073e-19)
(0.4842 0.149125 1.65818e-18)
(0.741821 0.245322 -5.58666e-19)
(0.918162 0.321487 -1.88595e-18)
(1.0298 0.375307 -2.56628e-19)
(1.09488 0.407533 -2.94994e-19)
(1.13769 0.429455 -6.46775e-19)
(1.16749 0.442767 -1.50096e-18)
(-0.0140091 -0.00153785 1.20348e-19)
(-0.0381795 -0.0161933 5.22576e-19)
(-0.0676277 -0.0356516 -1.35305e-18)
(-0.0952435 -0.0455582 5.69335e-19)
(-0.110806 -0.043461 1.30448e-18)
(-0.0942352 -0.0295906 -5.67716e-19)
(0.018076 -0.00763899 -1.15491e-19)
(0.346843 0.10569 -1.35489e-18)
(0.644535 0.21061 2.76471e-19)
(0.861679 0.289582 -9.57494e-19)
(0.99625 0.349329 9.14069e-19)
(1.07429 0.387217 -7.59036e-19)
(1.12074 0.411032 1.35902e-18)
(1.14841 0.426467 -5.30019e-19)
(1.16869 0.433884 -1.11472e-18)
(-0.0222776 0.00347668 6.1623e-19)
(-0.0493668 -0.00564124 3.85881e-19)
(-0.0740107 -0.0204719 3.4885e-19)
(-0.0908946 -0.0252658 8.63223e-20)
(-0.0892044 -0.0165053 5.95619e-19)
(-0.0473264 -0.00381575 -1.4675e-18)
(0.152431 0.0527745 8.26183e-19)
(0.507941 0.169651 1.956e-18)
(0.777327 0.262303 -1.95605e-19)
(0.95217 0.32435 1.44432e-18)
(1.05099 0.369199 8.72128e-19)
(1.10616 0.395656 1.43713e-19)
(1.135 0.411206 2.91347e-19)
(1.15377 0.422008 5.59944e-19)
(1.17262 0.427605 1.30847e-18)
(-0.0283793 0.0074477 9.37304e-19)
(-0.0572177 0.00399225 1.33702e-18)
(-0.076003 -0.00590658 -1.20672e-18)
(-0.081222 -0.00602658 1.10049e-18)
(-0.0642856 0.00621988 -2.55923e-18)
(0.0161451 0.0130882 6.42026e-19)
(0.315724 0.117592 -2.25765e-19)
(0.652659 0.225458 -1.21641e-18)
(0.882343 0.303496 -2.15505e-18)
(1.0185 0.350386 -8.1362e-19)
(1.08909 0.3836 -2.01316e-18)
(1.12474 0.399595 1.2585e-18)
(1.14402 0.410563 -1.71481e-18)
(1.15826 0.418478 1.18782e-18)
(1.17127 0.420237 8.26784e-19)
(-0.0322891 0.0100521 -2.22046e-18)
(-0.0620921 0.0115622 7.65409e-20)
(-0.0747878 0.00607637 1.60067e-19)
(-0.0685997 0.0102766 3.07007e-19)
(-0.0388415 0.0182146 1.75055e-19)
(0.111439 0.0451471 1.23676e-18)
(0.473557 0.174907 6.88195e-19)
(0.774197 0.27136 -1.93845e-19)
(0.962354 0.335284 9.68216e-19)
(1.06529 0.369809 6.22693e-19)
(1.11327 0.393055 2.88216e-19)
(1.13744 0.402078 -7.12906e-19)
(1.14946 0.40965 2.37155e-18)
(1.15883 0.413896 4.19493e-19)
(1.17124 0.414367 -8.80946e-19)
(-0.0343687 0.0112601 2.04154e-18)
(-0.0646305 0.0164304 -1.46082e-18)
(-0.0713729 0.0144566 4.67662e-19)
(-0.0561993 0.0217152 -4.85299e-20)
(-0.00412213 0.0171515 2.4317e-18)
(0.250481 0.0995965 -1.99103e-19)
(0.614296 0.225555 -8.28496e-19)
(0.872511 0.30889 2.03132e-18)
(1.0216 0.359512 1.90667e-19)
(1.09694 0.383518 8.20224e-19)
(1.12933 0.399592 -1.63878e-18)
(1.14434 0.402851 3.61595e-20)
(1.15155 0.408156 -7.47789e-19)
(1.16006 0.410326 -1.55747e-19)
(1.16979 0.409079 -5.21457e-19)
(-0.0352346 0.0112623 -5.46152e-19)
(-0.0655257 0.0184099 1.5231e-18)
(-0.0666013 0.0196112 9.21001e-19)
(-0.0457826 0.0249543 7.34695e-19)
(0.0548669 0.0215812 -4.04872e-19)
(0.406122 0.15571 -1.60781e-19)
(0.736467 0.268365 1.06782e-18)
(0.949428 0.338192 -8.61412e-19)
(1.06393 0.377078 2.64127e-19)
(1.11785 0.39327 -1.37999e-18)
(1.1383 0.403533 9.51841e-20)
(1.14824 0.403064 2.12367e-19)
(1.15303 0.407227 -3.11821e-19)
(1.15919 0.406421 -1.87287e-18)
(1.16738 0.404122 7.94125e-19)
(-0.0356179 0.0103223 -9.5977e-19)
(-0.065291 0.0178075 -1.20113e-18)
(-0.0619483 0.0223019 6.29852e-19)
(-0.0320791 0.0178912 -8.29263e-20)
(0.155215 0.0578969 -9.84257e-19)
(0.545988 0.205701 -4.17223e-20)
(0.835759 0.304136 -7.5125e-19)
(1.00728 0.361022 -1.49832e-18)
(1.09333 0.389987 -6.14273e-19)
(1.13063 0.399894 5.69813e-19)
(1.14364 0.406093 5.22853e-19)
(1.15002 0.402924 -5.26079e-20)
(1.1524 0.40589 -8.39715e-19)
(1.15838 0.402997 1.54197e-18)
(1.16557 0.400464 4.85777e-19)
(-0.036147 0.00865802 9.43558e-19)
(-0.0643193 0.015687 1.9023e-21)
(-0.0590776 0.0217839 -1.54521e-18)
(-0.00195653 0.00458965 -3.40211e-20)
(0.297223 0.114705 2.3529e-19)
(0.669772 0.249054 4.35883e-19)
(0.915707 0.332951 -7.89718e-19)
(1.0504 0.378265 4.13814e-19)
(1.11305 0.398926 -1.82988e-20)
(1.13831 0.404452 4.63991e-19)
(1.14583 0.407481 -4.17264e-19)
(1.15003 0.402577 -1.17592e-18)
(1.15177 0.405045 -5.80134e-20)
(1.15684 0.399808 -7.47814e-19)
(1.16203 0.396776 -6.52986e-19)
(-0.0371245 0.00653907 3.83628e-19)
(-0.0629483 0.0138162 -7.83794e-19)
(-0.0568649 0.0164208 7.85423e-19)
(0.0572528 0.00762467 -2.49267e-19)
(0.443608 0.167608 -1.35212e-19)
(0.774878 0.285468 -3.93171e-19)
(0.977305 0.355965 6.20706e-19)
(1.08083 0.391256 4.0642e-19)
(1.12563 0.405405 -2.43985e-19)
(1.14203 0.407561 -6.95903e-19)
(1.14638 0.408328 -2.52872e-19)
(1.1494 0.402383 1.20527e-18)
(1.14993 0.403963 7.40247e-19)
(1.1547 0.396764 7.35165e-19)
(1.15941 0.394287 -2.29135e-19)
(-0.0384763 0.00431015 -2.41309e-19)
(-0.0620929 0.0130093 8.65831e-20)
(-0.0487131 0.00564492 -3.24579e-19)
(0.151451 0.0464323 -2.53461e-21)
(0.568486 0.213647 -2.52157e-19)
(0.860416 0.316788 -3.81006e-19)
(1.02451 0.374374 1.35031e-19)
(1.10242 0.400918 -8.05349e-19)
(1.1333 0.409832 7.22055e-19)
(1.1436 0.409727 9.25679e-19)
(1.14569 0.40876 1.19533e-19)
(1.14764 0.402109 -1.04734e-18)
(1.148 0.403126 -1.0249e-18)
(1.1525 0.394248 -7.79344e-19)
(1.15539 0.391864 3.16904e-19)
(-0.0400038 0.00279971 -7.77613e-19)
(-0.0628831 0.0114301 2.13179e-19)
(-0.0241647 -0.00808396 -1.56826e-19)
(0.281136 0.104548 -1.60963e-21)
(0.678901 0.253412 -6.26973e-20)
(0.929705 0.342255 -1.45316e-19)
(1.05968 0.388734 2.71872e-19)
(1.11662 0.408093 -1.5703e-19)
(1.13733 0.413146 -2.07436e-19)
(1.14332 0.411355 -4.01364e-19)
(1.14414 0.409065 -3.56804e-19)
(1.14568 0.402101 -1.64521e-19)
(1.14545 0.402221 6.36299e-19)
(1.14947 0.391806 -2.54276e-20)
(1.15185 0.390217 5.07225e-19)
(-0.0415143 0.00322531 3.23177e-19)
(-0.0644343 0.00735175 5.37427e-19)
(0.0236801 -0.0113788 9.15307e-20)
(0.418764 0.156872 3.32073e-19)
(0.774118 0.286975 7.33177e-19)
(0.983671 0.363215 2.72676e-19)
(1.08505 0.400135 1.00938e-18)
(1.1259 0.413599 5.36226e-19)
(1.13907 0.415593 3.41691e-19)
(1.1422 0.412634 7.87202e-19)
(1.14214 0.409315 2.44708e-19)
(1.14299 0.402067 4.48886e-19)
(1.14263 0.401408 2.23246e-19)
(1.14654 0.389963 1.05642e-19)
(1.14753 0.388798 3.50683e-19)
(-0.0426968 0.00616818 4.50792e-19)
(-0.0637868 0.000806959 -7.65083e-19)
(0.0943112 0.0102237 -1.47772e-19)
(0.536427 0.201186 3.5002e-19)
(0.853282 0.317136 -7.40153e-19)
(1.02589 0.380693 -3.04602e-19)
(1.10315 0.409072 -6.23818e-19)
(1.13126 0.41782 -2.13931e-20)
(1.13906 0.417645 -1.69931e-19)
(1.14017 0.413804 -6.62837e-19)
(1.13954 0.409614 5.05442e-19)
(1.14016 0.402276 3.84672e-20)
(1.13952 0.400674 -2.16821e-20)
(1.14284 0.388251 1.85756e-19)
(1.14321 0.387742 -4.30169e-19)
(-0.0436861 0.0104413 -3.28613e-20)
(-0.0556169 -0.00817498 3.36184e-19)
(0.18959 0.0562491 9.36417e-20)
(0.637518 0.240522 -4.91843e-19)
(0.918132 0.34296 3.28577e-19)
(1.05799 0.395173 1.05665e-19)
(1.11536 0.416299 -2.77809e-19)
(1.13403 0.421334 -1.32338e-19)
(1.13802 0.41945 -4.03907e-19)
(1.13779 0.414915 7.21234e-20)
(1.13677 0.410014 -4.89595e-19)
(1.13685 0.402498 -3.48188e-19)
(1.13603 0.399985 9.35606e-20)
(1.1392 0.38707 9.73781e-20)
(1.13865 0.386968 -1.69483e-19)
(-0.0450314 0.0128761 -1.67316e-19)
(-0.0346254 -0.0159635 -1.06538e-19)
(0.30345 0.109104 2.29009e-19)
(0.725812 0.273751 4.2317e-19)
(0.969814 0.364688 8.24395e-20)
(1.08189 0.407215 -2.27605e-19)
(1.12349 0.422274 2.87861e-19)
(1.13489 0.424343 2.51991e-19)
(1.13613 0.421213 1.31564e-19)
(1.1349 0.416102 2.51942e-20)
(1.13351 0.410532 1.57641e-19)
(1.13335 0.402914 6.99267e-20)
(1.13238 0.39947 -4.9391e-20)
(1.13496 0.386067 -6.23853e-20)
(1.13383 0.386256 5.55252e-20)
(-0.046853 0.0104742 -7.78758e-20)
(0.000667387 -0.0166731 -9.15224e-20)
(0.41977 0.157352 7.53717e-20)
(0.802893 0.30333 -9.97834e-20)
(1.01078 0.382824 -2.14712e-19)
(1.0991 0.417126 1.6421e-20)
(1.12824 0.427388 1.32871e-19)
(1.13441 0.427205 -1.20495e-19)
(1.13372 0.423037 8.00145e-20)
(1.13177 0.417371 1.61861e-19)