# Force coefficients
# liftDir     : (0.000000e+00 1.000000e+00 0.000000e+00)
# dragDir     : (1.000000e+00 0.000000e+00 0.000000e+00)
# pitchAxis   : (0.000000e+00 0.000000e+00 1.000000e+00)
# magUInf     : 1.000000e+00
# lRef        : 1.000000e+00
# Aref        : 1.000000e-01
# CofR        : (0.000000e+00 0.000000e+00 0.000000e+00)
# Time        	Cm            	Cd            	Cl            	Cl(f)         	Cl(r)         
0.005         	8.513482e-12	3.250957e+01	-7.232818e-08	-3.615558e-08	-3.617260e-08
0.01          	-2.004127e-09	5.890199e-01	2.208993e-08	9.040839e-09	1.304909e-08
0.015         	-1.646111e-09	7.986012e-01	1.144695e-08	4.077364e-09	7.369586e-09
0.02          	-2.540624e-09	6.670709e-01	2.473740e-09	-1.303754e-09	3.777494e-09
0.025         	-3.089446e-09	5.989360e-01	7.420429e-08	3.401270e-08	4.019159e-08
0.03          	-3.366241e-09	5.417142e-01	5.095308e-08	2.211030e-08	2.884278e-08
0.035         	-3.425364e-09	4.939392e-01	5.120960e-08	2.217944e-08	2.903017e-08
0.04          	-3.312581e-09	4.540256e-01	4.095024e-08	1.716254e-08	2.378770e-08
0.045         	-3.070088e-09	4.205502e-01	5.070011e-08	2.227997e-08	2.842014e-08
0.05          	-2.738712e-09	3.923111e-01	4.900698e-08	2.176478e-08	2.724220e-08
0.055         	-2.350774e-09	3.683308e-01	5.159258e-08	2.344552e-08	2.814707e-08
0.06          	-1.932611e-09	3.478249e-01	5.311162e-08	2.462320e-08	2.848842e-08
0.065         	-1.503755e-09	3.301620e-01	5.316220e-08	2.507734e-08	2.808485e-08
0.07          	-1.078572e-09	3.148447e-01	5.374181e-08	2.579233e-08	2.794948e-08
0.075         	-6.669933e-10	3.014717e-01	5.469099e-08	2.667850e-08	2.801249e-08
0.08          	-2.757991e-10	2.897153e-01	5.502184e-08	2.723512e-08	2.778672e-08
0.085         	9.134056e-11	2.793132e-01	5.585035e-08	2.801652e-08	2.783384e-08
0.09          	4.322565e-10	2.700556e-01	5.662533e-08	2.874492e-08	2.788041e-08
0.095         	7.461029e-10	2.617650e-01	5.713158e-08	2.931189e-08	2.781969e-08
0.1           	1.032911e-09	2.543064e-01	5.796538e-08	3.001560e-08	2.794978e-08
0.105         	1.293503e-09	2.475622e-01	5.944429e-08	3.101565e-08	2.842864e-08
0.11          	1.528946e-09	2.414321e-01	5.590376e-08	2.948082e-08	2.642293e-08
0.115         	1.740446e-09	2.358393e-01	6.032742e-08	3.190415e-08	2.842326e-08
0.12          	1.929581e-09	2.307217e-01	6.015891e-08	3.200904e-08	2.814987e-08
0.125         	2.097623e-09	2.260132e-01	6.081513e-08	3.250519e-08	2.830994e-08
0.13          	2.246032e-09	2.216682e-01	6.142656e-08	3.295931e-08	2.846725e-08
0.135         	2.376205e-09	2.176528e-01	6.256788e-08	3.366015e-08	2.890774e-08
0.14          	2.489642e-09	2.139256e-01	6.162408e-08	3.330168e-08	2.832240e-08
0.145         	2.587568e-09	2.104571e-01	6.138199e-08	3.327856e-08	2.810343e-08
0.15          	2.671178e-09	2.072207e-01	6.246085e-08	3.390160e-08	2.855925e-08
0.155         	2.741415e-09	2.041975e-01	6.241025e-08	3.394654e-08	2.846371e-08
0.16          	2.799448e-09	2.013650e-01	6.142347e-08	3.351118e-08	2.791229e-08
0.165         	2.846351e-09	1.987085e-01	6.136659e-08	3.352965e-08	2.783695e-08
0.17          	2.883033e-09	1.962065e-01	6.156473e-08	3.366540e-08	2.789933e-08
0.175         	2.910127e-09	1.938539e-01	6.225915e-08	3.403970e-08	2.821945e-08
0.18          	2.928530e-09	1.916323e-01	6.338236e-08	3.461971e-08	2.876265e-08
0.185         	2.938928e-09	1.895373e-01	6.400334e-08	3.494060e-08	2.906274e-08
0.19          	2.942170e-09	1.875549e-01	6.348043e-08	3.468239e-08	2.879805e-08
0.195         	2.938659e-09	1.856742e-01	6.372555e-08	3.480143e-08	2.892411e-08
0.2           	2.929127e-09	1.838955e-01	6.181362e-08	3.383594e-08	2.797769e-08
0.205         	2.913987e-09	1.822055e-01	6.095747e-08	3.339272e-08	2.756475e-08
0.21          	2.893807e-09	1.806021e-01	6.075735e-08	3.327248e-08	2.748487e-08
0.215         	2.868985e-09	1.790780e-01	6.188916e-08	3.381356e-08	2.807559e-08
0.22          	2.839858e-09	1.776245e-01	6.407434e-08	3.487703e-08	2.919731e-08
0.225         	2.806809e-09	1.762433e-01	6.628366e-08	3.594864e-08	3.033502e-08
0.23          	2.770182e-09	1.749272e-01	6.553452e-08	3.553744e-08	2.999708e-08
0.235         	2.730339e-09	1.736709e-01	6.513078e-08	3.529573e-08	2.983505e-08
0.24          	2.687549e-09	1.724751e-01	6.559308e-08	3.548409e-08	3.010899e-08
0.245         	2.641996e-09	1.713330e-01	6.455733e-08	3.492066e-08	2.963667e-08
0.25          	2.594085e-09	1.702391e-01	6.545941e-08	3.532379e-08	3.013562e-08
0.255         	2.544026e-09	1.691968e-01	6.469590e-08	3.489198e-08	2.980393e-08
0.26          	2.492131e-09	1.681995e-01	6.499370e-08	3.498898e-08	3.000472e-08
0.265         	2.438557e-09	1.672484e-01	6.544195e-08	3.515953e-08	3.028242e-08
0.27          	2.383531e-09	1.663330e-01	6.514628e-08	3.495667e-08	3.018961e-08
0.275         	2.327154e-09	1.654609e-01	6.504013e-08	3.484722e-08	3.019291e-08
0.28          	2.269725e-09	1.646285e-01	6.399593e-08	3.426769e-08	2.972824e-08
0.285         	2.211289e-09	1.638271e-01	6.420080e-08	3.431169e-08	2.988911e-08
0.29          	2.151972e-09	1.630605e-01	6.461291e-08	3.445843e-08	3.015449e-08
0.295         	2.091939e-09	1.623289e-01	6.353075e-08	3.385731e-08	2.967344e-08
0.3           	2.031325e-09	1.616260e-01	6.319027e-08	3.362646e-08	2.956381e-08
0.305         	1.970211e-09	1.609532e-01	6.312802e-08	3.353422e-08	2.959380e-08
0.31          	1.908702e-09	1.603071e-01	6.801967e-08	3.591854e-08	3.210113e-08
0.315         	1.846768e-09	1.596903e-01	7.494076e-08	3.931715e-08	3.562361e-08
0.32          	1.784476e-09	1.591020e-01	6.715133e-08	3.536014e-08	3.179119e-08
0.325         	1.722133e-09	1.585335e-01	5.386218e-08	2.865322e-08	2.520896e-08
0.33          	1.659852e-09	1.579898e-01	7.387928e-08	3.859949e-08	3.527979e-08
0.335         	1.597530e-09	1.574692e-01	6.386845e-08	3.353176e-08	3.033670e-08
0.34          	1.535304e-09	1.569716e-01	6.067867e-08	3.187464e-08	2.880403e-08
0.345         	1.473208e-09	1.564903e-01	5.706628e-08	3.000635e-08	2.705993e-08
0.35          	1.411263e-09	1.560319e-01	7.131360e-08	3.706806e-08	3.424554e-08
0.355         	1.349547e-09	1.555931e-01	6.762452e-08	3.516181e-08	3.246271e-08
0.36          	1.288140e-09	1.551731e-01	6.592243e-08	3.424935e-08	3.167307e-08
0.365         	1.227119e-09	1.547698e-01	6.742803e-08	3.494113e-08	3.248690e-08
0.37          	1.166393e-09	1.543849e-01	6.740203e-08	3.486741e-08	3.253462e-08
0.375         	1.106072e-09	1.540177e-01	6.380897e-08	3.301056e-08	3.079841e-08
0.38          	1.046208e-09	1.536659e-01	6.507469e-08	3.358355e-08	3.149113e-08
0.385         	9.867853e-10	1.533279e-01	6.590682e-08	3.394019e-08	3.196662e-08
0.39          	9.278548e-10	1.530056e-01	6.534913e-08	3.360242e-08	3.174671e-08
0.395         	8.694454e-10	1.526969e-01	6.522117e-08	3.348003e-08	3.174114e-08
0.4           	8.115778e-10	1.524034e-01	6.596386e-08	3.379351e-08	3.217035e-08
0.405         	7.542692e-10	1.521207e-01	6.615766e-08	3.383310e-08	3.232456e-08
0.41          	6.975490e-10	1.518504e-01	6.629663e-08	3.384586e-08	3.245076e-08
0.415         	6.414168e-10	1.515936e-01	6.656033e-08	3.392158e-08	3.263875e-08
0.42          	5.858965e-10	1.513507e-01	6.586072e-08	3.351626e-08	3.234446e-08
0.425         	5.310202e-10	1.511169e-01	6.807014e-08	3.456609e-08	3.350405e-08
0.43          	4.767898e-10	1.508948e-01	5.157788e-08	2.626573e-08	2.531215e-08
0.435         	4.232348e-10	1.506837e-01	6.435077e-08	3.259862e-08	3.175215e-08
0.44          	3.703413e-10	1.504832e-01	7.716680e-08	3.895374e-08	3.821306e-08
0.445         	3.180901e-10	1.502927e-01	6.777730e-08	3.420674e-08	3.357056e-08
0.45          	2.665102e-10	1.501127e-01	6.620976e-08	3.337139e-08	3.283837e-08
0.455         	2.156321e-10	1.499426e-01	6.598102e-08	3.320614e-08	3.277488e-08
0.46          	1.654816e-10	1.497816e-01	6.877714e-08	3.455405e-08	3.422309e-08
0.465         	1.159951e-10	1.496256e-01	6.553329e-08	3.288264e-08	3.265065e-08
0.47          	6.721764e-11	1.494786e-01	6.613336e-08	3.313390e-08	3.299946e-08
0.475         	1.913205e-11	1.493423e-01	6.581640e-08	3.292733e-08	3.288907e-08
0.48          	-2.818683e-11	1.492122e-01	5.982235e-08	2.988299e-08	2.993936e-08
0.485         	-7.486865e-11	1.490905e-01	7.257867e-08	3.621447e-08	3.636420e-08
0.49          	-1.207917e-10	1.489762e-01	5.735771e-08	2.855807e-08	2.879965e-08
0.495         	-1.659901e-10	1.488691e-01	6.076669e-08	3.021735e-08	3.054933e-08
0.5           	-2.104608e-10	1.487681e-01	6.328477e-08	3.143192e-08	3.185285e-08
0.505         	-2.542268e-10	1.486742e-01	6.645598e-08	3.297377e-08	3.348222e-08
0.51          	-2.973179e-10	1.485887e-01	6.888386e-08	3.414461e-08	3.473925e-08
0.515         	-3.397492e-10	1.485081e-01	6.796441e-08	3.364246e-08	3.432196e-08
0.52          	-3.814015e-10	1.484347e-01	6.671795e-08	3.297757e-08	3.374038e-08
0.525         	-4.223504e-10	1.483657e-01	6.897861e-08	3.406695e-08	3.491165e-08
0.53          	-4.626171e-10	1.483034e-01	7.050473e-08	3.478975e-08	3.571498e-08
0.535         	-5.022960e-10	1.482430e-01	6.839953e-08	3.369747e-08	3.470206e-08
0.54          	-5.412845e-10	1.481945e-01	6.819477e-08	3.355610e-08	3.463867e-08
0.545         	-5.795683e-10	1.481476e-01	6.801341e-08	3.342714e-08	3.458628e-08
0.55          	-6.171557e-10	1.481049e-01	6.856983e-08	3.366776e-08	3.490207e-08
0.555         	-6.541175e-10	1.480682e-01	6.904123e-08	3.386650e-08	3.517473e-08
0.56          	-6.903954e-10	1.480356e-01	6.912368e-08	3.387144e-08	3.525224e-08
0.565         	-7.259899e-10	1.480073e-01	6.893059e-08	3.373930e-08	3.519128e-08
0.57          	-7.609375e-10	1.479839e-01	6.903891e-08	3.375852e-08	3.528039e-08
0.575         	-7.952330e-10	1.479638e-01	6.914770e-08	3.377862e-08	3.536908e-08
0.58          	-8.288790e-10	1.479502e-01	6.944424e-08	3.389324e-08	3.555100e-08
0.585         	-8.618790e-10	1.479422e-01	6.941240e-08	3.384432e-08	3.556808e-08
0.59          	-8.942079e-10	1.479311e-01	6.903687e-08	3.362423e-08	3.541264e-08
0.595         	-9.259187e-10	1.479277e-01	6.989668e-08	3.402242e-08	3.587426e-08
0.6           	-9.570208e-10	1.479266e-01	6.971093e-08	3.389845e-08	3.581249e-08
0.605         	-9.874962e-10	1.479298e-01	6.944334e-08	3.373417e-08	3.570917e-08
0.61          	-1.017346e-09	1.479370e-01	6.974754e-08	3.385643e-08	3.589112e-08
0.615         	-1.046597e-09	1.479466e-01	7.008725e-08	3.399703e-08	3.609022e-08
0.62          	-1.075260e-09	1.479602e-01	6.994612e-08	3.389780e-08	3.604832e-08
0.625         	1.379347e-09	1.479761e-01	7.819902e-08	4.047886e-08	3.772016e-08
0.63          	3.541646e-09	1.479944e-01	8.381099e-08	4.544714e-08	3.836385e-08
0.635         	5.451524e-09	1.480166e-01	8.700202e-08	4.895253e-08	3.804949e-08
0.64          	7.142655e-09	1.480445e-01	9.042266e-08	5.235398e-08	3.806867e-08
0.645         	8.643058e-09	1.480726e-01	9.260911e-08	5.494761e-08	3.766150e-08
0.65          	9.976012e-09	1.481045e-01	9.565806e-08	5.780504e-08	3.785302e-08
0.655         	1.116176e-08	1.481343e-01	9.569789e-08	5.901071e-08	3.668718e-08
0.66          	1.221747e-08	1.481702e-01	1.019012e-07	6.316805e-08	3.873311e-08
0.665         	1.315784e-08	1.482037e-01	1.021664e-07	6.424103e-08	3.792535e-08
0.67          	1.399564e-08	1.482458e-01	1.060053e-07	6.699827e-08	3.900699e-08
0.675         	1.474197e-08	1.482827e-01	1.068442e-07	6.816406e-08	3.868012e-08
0.68          	1.540635e-08	1.483271e-01	1.099118e-07	7.036226e-08	3.954955e-08
0.685         	1.599729e-08	1.483725e-01	1.111317e-07	7.156312e-08	3.956855e-08
0.69          	1.652215e-08	1.484197e-01	1.132796e-07	7.316195e-08	4.011765e-08
0.695         	1.698745e-08	1.484689e-01	1.151728e-07	7.457384e-08	4.059895e-08
0.7           	1.739895e-08	1.485195e-01	1.150786e-07	7.493827e-08	4.014036e-08
0.705         	1.776170e-08	1.485714e-01	1.205525e-07	7.803793e-08	4.251452e-08
0.71          	1.808035e-08	1.486255e-01	1.199949e-07	7.807778e-08	4.191708e-08
0.715         	1.835897e-08	1.486857e-01	1.226087e-07	7.966334e-08	4.294540e-08
0.72          	1.860126e-08	1.487368e-01	1.221294e-07	7.966594e-08	4.246343e-08
0.725         	1.881039e-08	1.487946e-01	1.257964e-07	8.170858e-08	4.408779e-08
0.73          	1.898937e-08	1.488577e-01	1.270917e-07	8.253524e-08	4.455649e-08
0.735         	1.914091e-08	1.489137e-01	1.257946e-07	8.203822e-08	4.375639e-08
0.74          	1.926724e-08	1.489777e-01	1.320758e-07	8.530512e-08	4.677064e-08
0.745         	1.937074e-08	1.490383e-01	1.278457e-07	8.329356e-08	4.455209e-08
0.75          	1.945323e-08	1.491027e-01	1.321494e-07	8.552792e-08	4.662147e-08
0.755         	1.951664e-08	1.491713e-01	1.354608e-07	8.724704e-08	4.821375e-08
0.76          	1.956270e-08	1.492324e-01	1.326584e-07	8.589189e-08	4.676648e-08
0.765         	1.959269e-08	1.493008e-01	1.360001e-07	8.759275e-08	4.840737e-08
0.77          	1.960834e-08	1.493697e-01	1.376919e-07	8.845428e-08	4.923760e-08
0.775         	1.961081e-08	1.494381e-01	1.384649e-07	8.884324e-08	4.962162e-08
0.78          	1.960095e-08	1.495076e-01	1.385355e-07	8.886870e-08	4.966680e-08
0.785         	1.958000e-08	1.495811e-01	1.416666e-07	9.041330e-08	5.125331e-08
0.79          	1.954896e-08	1.496499e-01	1.410393e-07	9.006861e-08	5.097068e-08
0.795         	1.950891e-08	1.497227e-01	1.434712e-07	9.124449e-08	5.222667e-08
0.8           	1.946048e-08	1.497939e-01	1.424113e-07	9.066613e-08	5.174517e-08
0.805         	1.940479e-08	1.498676e-01	1.466294e-07	9.271949e-08	5.390990e-08
0.81          	1.934218e-08	1.499405e-01	1.462653e-07	9.247481e-08	5.379045e-08
0.815         	1.927307e-08	1.500171e-01	1.479454e-07	9.324579e-08	5.469964e-08
0.82          	1.919823e-08	1.500885e-01	1.474584e-07	9.292741e-08	5.453094e-08
0.825         	1.911830e-08	1.501663e-01	1.499051e-07	9.407087e-08	5.583427e-08
0.83          	1.903369e-08	1.502384e-01	1.500559e-07	9.406166e-08	5.599428e-08
0.835         	1.894486e-08	1.503139e-01	1.518439e-07	9.486680e-08	5.697708e-08
0.84          	1.885206e-08	1.503895e-01	1.521315e-07	9.491782e-08	5.721369e-08
0.845         	1.875581e-08	1.504659e-01	1.538751e-07	9.569335e-08	5.818173e-08
0.85          	1.865645e-08	1.505428e-01	1.545106e-07	9.591176e-08	5.859886e-08
0.855         	1.855444e-08	1.506203e-01	1.546699e-07	9.588937e-08	5.878050e-08
0.86          	1.845013e-08	1.507006e-01	1.577452e-07	9.732275e-08	6.042249e-08
0.865         	1.834346e-08	1.507724e-01	1.554558e-07	9.607137e-08	5.938446e-08
0.87          	1.823497e-08	1.508527e-01	1.598683e-07	9.816911e-08	6.169916e-08
0.875         	1.812474e-08	1.509242e-01	1.572410e-07	9.674522e-08	6.049574e-08
0.88          	1.801311e-08	1.510077e-01	1.625145e-07	9.927038e-08	6.324415e-08
0.885         	1.790031e-08	1.510770e-01	1.585860e-07	9.719333e-08	6.139270e-08
0.89          	1.778657e-08	1.511549e-01	1.623079e-07	9.894050e-08	6.336736e-08
0.895         	1.767193e-08	1.512372e-01	1.641332e-07	9.973854e-08	6.439468e-08
0.9           	1.755682e-08	1.513088e-01	1.603686e-07	9.774113e-08	6.262749e-08
0.905         	1.744126e-08	1.513864e-01	1.639893e-07	9.943593e-08	6.455342e-08
0.91          	1.732532e-08	1.514635e-01	1.667463e-07	1.006984e-07	6.604782e-08
0.915         	1.720891e-08	1.515473e-01	1.660123e-07	1.002151e-07	6.579725e-08
0.92          	1.709250e-08	1.516140e-01	1.641672e-07	9.917608e-08	6.499108e-08
0.925         	1.697609e-08	1.516912e-01	1.665495e-07	1.002508e-07	6.629865e-08
0.93          	1.685985e-08	1.517672e-01	1.681078e-07	1.009137e-07	6.719404e-08
0.935         	1.674378e-08	1.518427e-01	1.687603e-07	1.011239e-07	6.763634e-08
0.94          	1.662803e-08	1.519272e-01	1.723939e-07	1.028250e-07	6.956891e-08
0.945         	1.651266e-08	1.519945e-01	1.688261e-07	1.009257e-07	6.790038e-08
0.95          	1.639775e-08	1.520708e-01	1.714429e-07	1.021192e-07	6.932370e-08
0.955         	1.628336e-08	1.521444e-01	1.720954e-07	1.023311e-07	6.976433e-08
0.96          	1.616955e-08	1.522218e-01	1.730842e-07	1.027116e-07	7.037254e-08
0.965         	1.605641e-08	1.522927e-01	1.739015e-07	1.030071e-07	7.089433e-08
0.97          	1.594391e-08	1.523685e-01	1.743496e-07	1.031187e-07	7.123089e-08
0.975         	1.583217e-08	1.524406e-01	1.758774e-07	1.037708e-07	7.210651e-08
0.98          	1.572120e-08	1.525187e-01	1.754337e-07	1.034381e-07	7.199566e-08
0.985         	1.561106e-08	1.525843e-01	1.771373e-07	1.041797e-07	7.295758e-08
0.99          	1.550172e-08	1.526572e-01	1.777445e-07	1.043740e-07	7.337052e-08
0.995         	1.539322e-08	1.527295e-01	1.788603e-07	1.048233e-07	7.403691e-08
1             	1.528559e-08	1.528018e-01	1.789561e-07	1.047636e-07	7.419247e-08
1.005         	1.517888e-08	1.528725e-01	1.802113e-07	1.052845e-07	7.492675e-08
1.01          	1.507308e-08	1.529421e-01	1.811625e-07	1.056543e-07	7.550820e-08
1.015         	1.496839e-08	1.530122e-01	1.812339e-07	1.055853e-07	7.564855e-08
1.02          	1.486468e-08	1.530809e-01	1.822371e-07	1.059832e-07	7.625386e-08
1.025         	1.476186e-08	1.531512e-01	1.829816e-07	1.062526e-07	7.672892e-08
1.03          	1.472613e-08	1.532189e-01	1.919667e-07	1.107095e-07	8.125721e-08
1.035         	1.467732e-08	1.532860e-01	1.976679e-07	1.135113e-07	8.415663e-08
1.04          	1.461826e-08	1.533526e-01	1.927510e-07	1.109938e-07	8.175725e-08
1.045         	1.455084e-08	1.534184e-01	1.937597e-07	1.114307e-07	8.232900e-08
1.05          	1.447659e-08	1.534855e-01	1.954322e-07	1.121927e-07	8.323949e-08
1.055         	1.439701e-08	1.535498e-01	1.963989e-07	1.125965e-07	8.380245e-08
1.06          	1.431317e-08	1.536143e-01	1.973128e-07	1.129696e-07	8.434325e-08
1.065         	1.422603e-08	1.536791e-01	1.979081e-07	1.131801e-07	8.472802e-08
1.07          	1.413636e-08	1.537490e-01	1.990174e-07	1.136451e-07	8.537236e-08
1.075         	1.404487e-08	1.538035e-01	2.001717e-07	1.141307e-07	8.604099e-08
1.08          	1.395190e-08	1.538654e-01	1.997600e-07	1.138319e-07	8.592809e-08
1.085         	1.385795e-08	1.539274e-01	2.010126e-07	1.143643e-07	8.664837e-08
1.09          	1.376342e-08	1.539890e-01	2.015629e-07	1.145448e-07	8.701802e-08
1.095         	1.366866e-08	1.540505e-01	2.031137e-07	1.152255e-07	8.788820e-08
1.1           	1.357385e-08	1.541101e-01	2.041070e-07	1.156273e-07	8.847965e-08
1.105         	1.347924e-08	1.541682e-01	2.048923e-07	1.159254e-07	8.896692e-08
1.11          	1.338495e-08	1.542268e-01	2.056545e-07	1.162122e-07	8.944228e-08
1.115         	1.329117e-08	1.542897e-01	2.065067e-07	1.165445e-07	8.996220e-08
1.12          	1.319807e-08	1.543497e-01	2.077957e-07	1.170959e-07	9.069976e-08
1.125         	1.310568e-08	1.543928e-01	2.080871e-07	1.171492e-07	9.093787e-08
1.13          	1.301391e-08	1.544549e-01	2.081959e-07	1.171119e-07	9.108405e-08
1.135         	1.292316e-08	1.545061e-01	2.105389e-07	1.181926e-07	9.234632e-08
1.14          	1.283323e-08	1.545597e-01	2.105674e-07	1.181169e-07	9.245046e-08
1.145         	1.274434e-08	1.546149e-01	2.107859e-07	1.181373e-07	9.264863e-08
1.15          	1.265645e-08	1.546654e-01	2.130316e-07	1.191722e-07	9.385933e-08
1.155         	1.256961e-08	1.547169e-01	2.135792e-07	1.193592e-07	9.421999e-08
1.16          	1.248382e-08	1.547683e-01	2.128681e-07	1.189179e-07	9.395026e-08
1.165         	1.239917e-08	1.548190e-01	2.150112e-07	1.199048e-07	9.510642e-08
1.17          	1.231565e-08	1.548732e-01	2.166339e-07	1.206326e-07	9.600130e-08
1.175         	1.223316e-08	1.549168e-01	2.165174e-07	1.204918e-07	9.602553e-08
1.18          	1.215175e-08	1.549652e-01	2.176063e-07	1.209549e-07	9.665140e-08
1.185         	1.207147e-08	1.550116e-01	2.185698e-07	1.213564e-07	9.721344e-08
1.19          	1.199232e-08	1.550586e-01	2.194289e-07	1.217068e-07	9.772211e-08
1.195         	1.191431e-08	1.551036e-01	2.197982e-07	1.218134e-07	9.798480e-08
1.2           	1.183743e-08	1.551503e-01	2.207731e-07	1.222240e-07	9.854911e-08
1.205         	1.176167e-08	1.551923e-01	2.216919e-07	1.226076e-07	9.908429e-08
1.21          	1.168708e-08	1.552357e-01	2.224469e-07	1.229105e-07	9.953639e-08
1.215         	1.161357e-08	1.552802e-01	2.232232e-07	1.232252e-07	9.999806e-08
1.22          	1.154118e-08	1.553258e-01	2.241886e-07	1.236355e-07	1.005531e-07
1.225         	1.146993e-08	1.553610e-01	2.239101e-07	1.234250e-07	1.004851e-07
1.23          	1.139971e-08	1.554029e-01	2.252964e-07	1.240479e-07	1.012485e-07
1.235         	1.133060e-08	1.554425e-01	2.263641e-07	1.245126e-07	1.018514e-07
1.24          	1.126255e-08	1.554830e-01	2.272113e-07	1.248682e-07	1.023431e-07
1.245         	1.119562e-08	1.555181e-01	2.274287e-07	1.249100e-07	1.025187e-07
1.25          	1.112971e-08	1.555580e-01	2.284951e-07	1.253773e-07	1.031179e-07
1.255         	1.106485e-08	1.555909e-01	2.286411e-07	1.253854e-07	1.032557e-07
1.26          	1.100100e-08	1.556267e-01	2.297040e-07	1.258530e-07	1.038510e-07
1.265         	1.093817e-08	1.556622e-01	2.301319e-07	1.260041e-07	1.041278e-07
1.27          	1.087644e-08	1.556972e-01	2.314953e-07	1.266241e-07	1.048712e-07
1.275         	1.081555e-08	1.557314e-01	2.317401e-07	1.266856e-07	1.050545e-07
1.28          	1.075553e-08	1.557643e-01	2.340801e-07	1.277956e-07	1.062845e-07
1.285         	1.069642e-08	1.557927e-01	2.330908e-07	1.272418e-07	1.058490e-07
1.29          	1.063822e-08	1.558252e-01	2.340121e-07	1.276443e-07	1.063678e-07
1.295         	1.058104e-08	1.558576e-01	2.332926e-07	1.272273e-07	1.060653e-07
1.3           	1.052482e-08	1.558846e-01	2.356431e-07	1.283464e-07	1.072967e-07
1.305         	1.046950e-08	1.559141e-01	2.358956e-07	1.284173e-07	1.074783e-07
1.31          	1.041511e-08	1.559437e-01	2.339404e-07	1.273853e-07	1.065551e-07
1.315         	1.036161e-08	1.559782e-01	2.408482e-07	1.307857e-07	1.100625e-07
1.32          	1.030897e-08	1.559926e-01	2.376438e-07	1.291309e-07	1.085129e-07
1.325         	1.025715e-08	1.560189e-01	2.392244e-07	1.298694e-07	1.093551e-07
1.33          	1.020616e-08	1.560456e-01	2.398279e-07	1.301201e-07	1.097078e-07
1.335         	1.015602e-08	1.560705e-01	2.405276e-07	1.304198e-07	1.101078e-07
1.34          	1.010671e-08	1.560899e-01	2.404588e-07	1.303361e-07	1.101227e-07
1.345         	1.005816e-08	1.561188e-01	2.347037e-07	1.274100e-07	1.072937e-07
1.35          	1.001044e-08	1.561416e-01	2.443332e-07	1.321771e-07	1.121562e-07
1.355         	9.963569e-09	1.561646e-01	2.440926e-07	1.320099e-07	1.120827e-07
1.36          	9.917481e-09	1.561888e-01	2.446974e-07	1.322662e-07	1.124312e-07
1.365         	9.872159e-09	1.562066e-01	2.450866e-07	1.324155e-07	1.126712e-07
1.37          	9.827617e-09	1.562242e-01	2.458246e-07	1.327399e-07	1.130847e-07
1.375         	9.783707e-09	1.562405e-01	2.448528e-07	1.322101e-07	1.126427e-07
1.38          	9.740451e-09	1.562587e-01	2.482243e-07	1.338526e-07	1.143717e-07
1.385         	9.697876e-09	1.562772e-01	2.462543e-07	1.328250e-07	1.134293e-07
1.39          	9.656170e-09	1.562939e-01	2.474096e-07	1.333610e-07	1.140487e-07
1.395         	9.615120e-09	1.563049e-01	2.475542e-07	1.333922e-07	1.141620e-07
1.4           	9.574705e-09	1.563269e-01	2.493173e-07	1.342333e-07	1.150839e-07
1.405         	9.534968e-09	1.563416e-01	2.494039e-07	1.342369e-07	1.151670e-07
1.41          	9.495878e-09	1.563558e-01	2.497945e-07	1.343931e-07	1.154014e-07
1.415         	9.457409e-09	1.563696e-01	2.506733e-07	1.347941e-07	1.158792e-07
1.42          	9.419579e-09	1.563834e-01	2.510472e-07	1.349432e-07	1.161040e-07
1.425         	9.382397e-09	1.564000e-01	2.496271e-07	1.341960e-07	1.154312e-07
1.43          	9.345757e-09	1.564054e-01	2.546445e-07	1.366680e-07	1.179765e-07
1.435         	9.309641e-09	1.564110e-01	2.542307e-07	1.364250e-07	1.178057e-07
1.44          	9.274074e-09	1.564215e-01	2.536844e-07	1.361163e-07	1.175681e-07
1.445         	9.239081e-09	1.564325e-01	2.549209e-07	1.366995e-07	1.182214e-07
1.45          	9.204663e-09	1.564443e-01	2.529864e-07	1.356979e-07	1.172886e-07
1.455         	9.170882e-09	1.564488e-01	2.576907e-07	1.380162e-07	1.196745e-07
1.46          	9.137585e-09	1.564565e-01	2.566786e-07	1.374769e-07	1.192017e-07
1.465         	9.104787e-09	1.564638e-01	2.569795e-07	1.375945e-07	1.193850e-07
1.47          	9.072493e-09	1.564705e-01	2.585738e-07	1.383594e-07	1.202144e-07
1.475         	9.040739e-09	1.564769e-01	2.583780e-07	1.382297e-07	1.201482e-07
1.48          	9.009525e-09	1.564816e-01	2.612979e-07	1.396585e-07	1.216394e-07
1.485         	8.978793e-09	1.564865e-01	2.604398e-07	1.391987e-07	1.212411e-07
1.49          	8.948591e-09	1.564903e-01	2.608766e-07	1.393869e-07	1.214897e-07
1.495         	8.918822e-09	1.564937e-01	2.639374e-07	1.408875e-07	1.230499e-07
1.5           	8.889549e-09	1.564980e-01	2.613878e-07	1.395835e-07	1.218044e-07
1.505         	8.860779e-09	1.565022e-01	2.635953e-07	1.406584e-07	1.229369e-07
1.51          	8.832510e-09	1.565054e-01	2.640443e-07	1.408546e-07	1.231896e-07
1.515         	8.804635e-09	1.565131e-01	2.611974e-07	1.394033e-07	1.217940e-07
1.52          	8.777230e-09	1.565071e-01	2.668473e-07	1.422009e-07	1.246464e-07
1.525         	8.750230e-09	1.565034e-01	2.640709e-07	1.407857e-07	1.232852e-07
1.53          	8.723665e-09	1.565056e-01	2.674174e-07	1.424324e-07	1.249851e-07
1.535         	8.697442e-09	1.565079e-01	2.651872e-07	1.412910e-07	1.238961e-07
1.54          	8.671631e-09	1.565119e-01	2.663773e-07	1.418603e-07	1.245170e-07
1.545         	8.646237e-09	1.565185e-01	2.661459e-07	1.417192e-07	1.244267e-07
1.55          	8.621362e-09	1.565374e-01	2.690061e-07	1.431244e-07	1.258817e-07
1.555         	8.596887e-09	1.565512e-01	2.687764e-07	1.429851e-07	1.257913e-07
1.56          	8.572852e-09	1.565368e-01	2.717010e-07	1.444234e-07	1.272777e-07
1.565         	8.549227e-09	1.564800e-01	2.815615e-07	1.493300e-07	1.322315e-07
1.57          	8.525676e-09	1.564692e-01	2.612158e-07	1.391336e-07	1.220822e-07
1.575         	8.502612e-09	1.564743e-01	2.705757e-07	1.437905e-07	1.267852e-07
1.58          	8.479651e-09	1.564795e-01	2.693508e-07	1.431551e-07	1.261958e-07
1.585         	8.457063e-09	1.564275e-01	2.857661e-07	1.513401e-07	1.344260e-07
1.59          	8.434712e-09	1.564240e-01	2.625910e-07	1.397302e-07	1.228608e-07
1.595         	8.412892e-09	1.564223e-01	2.755418e-07	1.461838e-07	1.293580e-07
1.6           	8.391362e-09	1.564250e-01	2.716030e-07	1.441928e-07	1.274101e-07
1.605         	8.370237e-09	1.564422e-01	2.755292e-07	1.461348e-07	1.293943e-07
1.61          	8.349494e-09	1.563868e-01	2.856123e-07	1.511556e-07	1.344566e-07
1.615         	8.328868e-09	1.563625e-01	2.689453e-07	1.428015e-07	1.261438e-07
1.62          	8.308607e-09	1.563564e-01	2.730414e-07	1.448293e-07	1.282121e-07
1.625         	8.288697e-09	1.563497e-01	2.758591e-07	1.462182e-07	1.296408e-07
1.63          	8.269059e-09	1.563441e-01	2.743320e-07	1.454351e-07	1.288970e-07
1.635         	8.249834e-09	1.563401e-01	2.767057e-07	1.466027e-07	1.301030e-07
1.64          	8.230772e-09	1.563420e-01	2.729209e-07	1.446912e-07	1.282297e-07
1.645         	8.211966e-09	1.563358e-01	2.783733e-07	1.473986e-07	1.309747e-07
1.65          	8.193455e-09	1.562805e-01	2.875531e-07	1.519700e-07	1.355831e-07
1.655         	8.175062e-09	1.562502e-01	2.746127e-07	1.454814e-07	1.291313e-07
1.66          	8.156909e-09	1.562371e-01	2.805496e-07	1.484317e-07	1.321179e-07
1.665         	8.138805e-09	1.562261e-01	2.773040e-07	1.467908e-07	1.305132e-07
1.67          	8.121045e-09	1.562147e-01	2.788703e-07	1.475562e-07	1.313141e-07
1.675         	8.103568e-09	1.562028e-01	2.795060e-07	1.478566e-07	1.316494e-07
1.68          	8.086376e-09	1.561908e-01	2.790805e-07	1.476266e-07	1.314539e-07
1.685         	8.069524e-09	1.561788e-01	2.794300e-07	1.477845e-07	1.316455e-07
1.69          	8.052977e-09	1.561615e-01	2.796873e-07	1.478966e-07	1.317907e-07
1.695         	8.036564e-09	1.561803e-01	2.844023e-07	1.502377e-07	1.341646e-07
1.7           	8.020527e-09	1.561241e-01	2.848068e-07	1.504239e-07	1.343829e-07
1.705         	8.004746e-09	1.560751e-01	2.873752e-07	1.516924e-07	1.356829e-07
1.71          	7.989008e-09	1.560590e-01	2.790698e-07	1.475239e-07	1.315459e-07
1.715         	7.973457e-09	1.560427e-01	2.825323e-07	1.492396e-07	1.332927e-07
1.72          	7.958060e-09	1.560255e-01	2.826861e-07	1.493011e-07	1.333850e-07
1.725         	7.942886e-09	1.560072e-01	2.820221e-07	1.489540e-07	1.330682e-07
1.73          	7.928089e-09	1.559896e-01	2.962655e-07	1.560608e-07	1.402047e-07
1.735         	7.913390e-09	1.559727e-01	2.824880e-07	1.491574e-07	1.333306e-07
1.74          	7.898890e-09	1.559541e-01	2.820495e-07	1.489236e-07	1.331258e-07
1.745         	7.884587e-09	1.559351e-01	2.831625e-07	1.494659e-07	1.336967e-07
1.75          	7.870446e-09	1.559172e-01	2.826845e-07	1.492127e-07	1.334718e-07
1.755         	7.856474e-09	1.558988e-01	2.841218e-07	1.499174e-07	1.342044e-07
1.76          	7.842684e-09	1.558842e-01	2.850248e-07	1.503551e-07	1.346697e-07
1.765         	7.828995e-09	1.558721e-01	2.874129e-07	1.515355e-07	1.358775e-07
1.77          	7.815609e-09	1.558159e-01	2.856777e-07	1.506544e-07	1.350232e-07
1.775         	7.802262e-09	1.557653e-01	2.938806e-07	1.547426e-07	1.391381e-07
1.78          	7.789198e-09	1.557396e-01	2.892231e-07	1.524007e-07	1.368223e-07
1.785         	7.776240e-09	1.557182e-01	2.873238e-07	1.514382e-07	1.358857e-07
1.79          	7.763570e-09	1.556960e-01	2.896316e-07	1.525794e-07	1.370522e-07
1.795         	7.751126e-09	1.556726e-01	2.899867e-07	1.527445e-07	1.372422e-07
1.8           	7.738779e-09	1.556482e-01	2.900404e-07	1.527590e-07	1.372814e-07
1.805         	7.726583e-09	1.556224e-01	2.912217e-07	1.533374e-07	1.378843e-07
1.81          	7.714569e-09	1.555943e-01	2.954095e-07	1.554193e-07	1.399902e-07
1.815         	7.702613e-09	1.555509e-01	2.873039e-07	1.513546e-07	1.359494e-07
1.82          	7.690935e-09	1.555508e-01	2.900277e-07	1.527048e-07	1.373229e-07
1.825         	7.679267e-09	1.555101e-01	2.946495e-07	1.550040e-07	1.396455e-07
1.83          	7.667782e-09	1.555091e-01	2.907681e-07	1.530518e-07	1.377163e-07
1.835         	7.656320e-09	1.554813e-01	3.016542e-07	1.584834e-07	1.431708e-07
1.84          	7.644962e-09	1.554513e-01	2.992857e-07	1.572878e-07	1.419979e-07
1.845         	7.633746e-09	1.554268e-01	2.871371e-07	1.512023e-07	1.359348e-07