/*--------------------------------*- C++ -*----------------------------------*\
  =========                 |
  \\      /  F ield         | OpenFOAM: The Open Source CFD Toolbox
   \\    /   O peration     | Website:  https://openfoam.org
    \\  /    A nd           | Version:  7
     \\/     M anipulation  |
\*---------------------------------------------------------------------------*/
FoamFile
{
    version     2.0;
    format      ascii;
    class       volScalarField;
    location    "0.03125";
    object      p;
}
// * * * * * * * * * * * * * * * * * * * * * * * * * * * * * * * * * * * * * //

dimensions      [0 2 -2 0 0 0 0];

internalField   nonuniform List<scalar> 
10000
(
-3.72423e-08
-1.7866e-05
-4.71183e-05
-7.86661e-05
-0.0001071
-0.000128458
-0.000140181
-0.0001412
-0.000131147
-0.000109868
-7.73092e-05
-3.36097e-05
2.0889e-05
8.57638e-05
0.000160648
0.000245279
0.000339444
0.000442935
0.000555559
0.000677144
0.000807518
0.000946487
0.00109387
0.0012495
0.00141323
0.00158488
0.00176422
0.00195104
0.00214516
0.00234636
0.00255443
0.00276912
0.00299018
0.00321738
0.00345046
0.00368917
0.00393323
0.00418235
0.00443625
0.00469465
0.00495725
0.00522375
0.00549383
0.00576715
0.00604341
0.00632228
0.00660343
0.00688652
0.00717119
0.00745707
0.00774381
0.00803103
0.00831838
0.00860547
0.00889192
0.00917734
0.00946133
0.0097435
0.0100235
0.0103008
0.0105752
0.0108463
0.0111136
0.0113767
0.0116354
0.0118892
0.0121378
0.0123809
0.0126182
0.0128492
0.0130738
0.0132914
0.013502
0.013705
0.0139004
0.0140879
0.0142671
0.0144378
0.0145997
0.0147527
0.0148964
0.0150306
0.0151551
0.0152696
0.0153739
0.0154677
0.0155508
0.0156228
0.0156835
0.0157325
0.0157696
0.0157944
0.015807
0.0158074
0.0157963
0.0157749
0.0157458
0.0157132
0.0156837
0.0156659
1.6362e-05
-9.61246e-07
-2.30902e-05
-4.58558e-05
-6.61081e-05
-8.08228e-05
-8.74574e-05
-8.46281e-05
-7.17847e-05
-4.86628e-05
-1.51039e-05
2.89146e-05
8.32636e-05
0.00014771
0.000221997
0.000305896
0.000399202
0.000501722
0.000613291
0.000733756
0.00086295
0.00100069
0.0011468
0.00130112
0.00146348
0.00163369
0.00181156
0.00199687
0.00218943
0.00238903
0.00259545
0.00280844
0.00302776
0.00325318
0.00348445
0.00372131
0.00396347
0.00421064
0.00446257
0.00471897
0.00497954
0.00524398
0.00551196
0.00578317
0.00605729
0.006334
0.00661297
0.00689387
0.00717633
0.00745998
0.00774448
0.00802945
0.00831455
0.00859939
0.00888358
0.00916673
0.00944844
0.00972835
0.0100061
0.0102812
0.0105534
0.0108222
0.0110874
0.0113484
0.011605
0.0118567
0.0121033
0.0123445
0.0125799
0.0128091
0.0130318
0.0132477
0.0134565
0.013658
0.0138518
0.0140377
0.0142153
0.0143846
0.0145451
0.0146967
0.0148391
0.014972
0.0150952
0.0152085
0.0153117
0.0154046
0.0154869
0.0155584
0.0156189
0.0156681
0.0157061
0.0157327
0.015748
0.0157526
0.0157471
0.015733
0.0157125
0.0156888
0.0156657
0.015648
4.50649e-05
2.22229e-05
3.37131e-07
-1.90696e-05
-3.53124e-05
-4.629e-05
-4.98458e-05
-4.46106e-05
-2.98924e-05
-5.39688e-06
2.90026e-05
7.3376e-05
0.000127704
0.000191879
0.000265742
0.000349102
0.000441765
0.000543563
0.000654351
0.000773982
0.000902289
0.00103911
0.00118427
0.00133763
0.001499
0.00166818
0.00184498
0.0020292
0.00222067
0.00241915
0.0026244
0.00283619
0.00305429
0.00327846
0.00350846
0.003744
0.00398482
0.00423062
0.00448116
0.00473614
0.00499528
0.00525826
0.00552475
0.00579445
0.00606704
0.00634221
0.00661963
0.00689895
0.00717982
0.00746187
0.00774475
0.0080281
0.00831157
0.00859477
0.00887731
0.0091588
0.00943886
0.00971712
0.00999319
0.0102667
0.0105373
0.0108046
0.0110682
0.0113277
0.0115828
0.0118332
0.0120785
0.0123184
0.0125525
0.0127806
0.0130022
0.013217
0.0134248
0.0136252
0.0138181
0.014003
0.0141798
0.0143481
0.0145077
0.0146583
0.0147997
0.0149317
0.015054
0.0151664
0.0152688
0.0153609
0.0154426
0.0155138
0.0155741
0.0156237
0.0156623
0.0156902
0.0157074
0.0157146
0.0157126
0.0157024
0.015686
0.0156656
0.0156426
0.0156184
7.93642e-05
4.78195e-05
2.24805e-05
2.68962e-06
-1.24687e-05
-2.16655e-05
-2.34929e-05
-1.68481e-05
-1.01976e-06
2.43254e-05
5.93194e-05
0.000104006
0.000158374
0.000222378
0.000295921
0.000378851
0.000471005
0.000572248
0.00068245
0.000801455
0.000929096
0.00106522
0.0012097
0.00136237
0.00152303
0.00169147
0.00186753
0.00205102
0.00224173
0.00243944
0.00264391
0.00285489
0.00307218
0.00329552
0.00352466
0.00375932
0.00399922
0.0042441
0.00449369
0.00474772
0.00500587
0.00526784
0.0055333
0.00580195
0.00607348
0.00634759
0.00662392
0.00690214
0.00718188
0.0074628
0.00774454
0.00802675
0.00830906
0.00859108
0.00887244
0.00915275
0.00943163
0.00970871
0.00998363
0.010256
0.0105255
0.0107917
0.0110543
0.0113128
0.011567
0.0118165
0.012061
0.0123002
0.0125336
0.012761
0.0129821
0.0131964
0.0134036
0.0136036
0.0137959
0.0139804
0.0141566
0.0143244
0.0144834
0.0146334
0.0147742
0.0149055
0.0150271
0.0151389
0.0152407
0.0153323
0.0154136
0.0154844
0.0155447
0.0155945
0.0156336
0.0156623
0.0156808
0.0156895
0.0156892
0.0156806
0.0156654
0.015645
0.0156187
0.0155857
0.000111447
7.14792e-05
4.18653e-05
2.03763e-05
4.91743e-06
-3.67079e-06
-4.5161e-06
3.05719e-06
1.95953e-05
4.5449e-05
8.07882e-05
0.000125652
0.000180031
0.000243892
0.000317157
0.000399707
0.000491425
0.000592203
0.000701913
0.000820401
0.000947511
0.00108311
0.00122706
0.0013792
0.00153932
0.00170723
0.00188277
0.00206575
0.00225594
0.00245312
0.00265705
0.00286749
0.00308423
0.00330701
0.00353556
0.00376961
0.00400888
0.00425312
0.00450207
0.00475542
0.00501288
0.00527413
0.00553885
0.00580676
0.00607754
0.00635087
0.00662642
0.00690382
0.00718275
0.00746283
0.00774374
0.00802511
0.00830657
0.00858773
0.00886822
0.00914766
0.00942568
0.00970192
0.00997602
0.0102476
0.0105164
0.0107819
0.0110437
0.0113017
0.0115553
0.0118043
0.0120484
0.0122872
0.0125203
0.0127474
0.0129682
0.0131822
0.0133893
0.0135891
0.0137812
0.0139654
0.0141414
0.0143089
0.0144676
0.0146173
0.0147576
0.0148884
0.0150096
0.0151209
0.0152222
0.0153135
0.0153944
0.0154651
0.0155254
0.0155753
0.0156148
0.015644
0.0156633
0.0156729
0.0156735
0.0156655
0.0156502
0.0156286
0.0155982
0.0155566
0.000136566
8.94159e-05
5.58437e-05
3.24233e-05
1.5951e-05
7.1148e-06
6.55003e-06
1.458e-05
3.15271e-05
5.76627e-05
9.31475e-05
0.000138047
0.00019237
0.000256073
0.000329082
0.000411317
0.00050269
0.000603098
0.000712412
0.000830495
0.000957218
0.00109245
0.00123605
0.00138782
0.00154759
0.00171519
0.00189043
0.00207313
0.00226304
0.00245993
0.00266357
0.00287374
0.0030902
0.00331269
0.00354092
0.00377464
0.00401358
0.00425747
0.00450606
0.00475903
0.00501609
0.00527691
0.0055412
0.00580867
0.006079
0.00635187
0.00662693
0.00690384
0.00718226
0.00746184
0.00774223
0.00802307
0.008304
0.00858463
0.00886459
0.0091435
0.00942102
0.00969678
0.00997044
0.0102416
0.01051
0.0107751
0.0110367
0.0112944
0.0115479
0.0117968
0.0120407
0.0122795
0.0125126
0.0127397
0.0129605
0.0131746
0.0133817
0.0135816
0.0137737
0.013958
0.014134
0.0143014
0.01446
0.0146095
0.0147497
0.0148803
0.0150013
0.0151124
0.0152135
0.0153045
0.0153854
0.015456
0.0155163
0.0155664
0.0156061
0.0156358
0.0156555
0.0156656
0.0156664
0.0156583
0.0156422
0.0156187
0.0155843
0.0155354
0.000152704
9.96351e-05
6.25329e-05
3.7191e-05
1.95149e-05
1.00055e-05
9.18657e-06
1.72269e-05
3.42778e-05
6.04923e-05
9.59865e-05
0.000140832
0.000195036
0.000258554
0.000331331
0.000413315
0.00050443
0.000604564
0.000713594
0.000831409
0.0009579
0.00109293
0.00123634
0.00138794
0.00154757
0.00171507
0.00189024
0.00207287
0.00226273
0.00245959
0.00266321
0.00287337
0.00308983
0.00331229
0.00354049
0.00377417
0.00401306
0.00425691
0.00450543
0.00475833
0.00501528
0.00527599
0.00554017
0.00580751
0.00607772
0.00635045
0.00662535
0.00690209
0.00718032
0.00745972
0.00773993
0.00802059
0.00830133
0.00858178
0.00886157
0.00914034
0.00941774
0.00969342
0.00996703
0.0102382
0.0105066
0.0107718
0.0110335
0.0112913
0.011545
0.0117941
0.0120383
0.0122773
0.0125106
0.012738
0.0129591
0.0131735
0.0133809
0.013581
0.0137734
0.0139579
0.0141341
0.0143017
0.0144604
0.0146101
0.0147504
0.0148811
0.0150021
0.0151133
0.0152145
0.0153056
0.0153866
0.0154574
0.0155179
0.0155681
0.0156081
0.015638
0.0156579
0.0156681
0.0156687
0.0156601
0.0156428
0.0156172
0.0155791
0.0155242
0.000158974
0.000101156
6.08947e-05
3.36713e-05
1.47635e-05
4.42969e-06
3.09456e-06
1.08438e-05
2.77367e-05
5.3847e-05
8.92431e-05
0.000133964
0.000188005
0.000251336
0.000323924
0.00040572
0.000496648
0.0005966
0.000705473
0.000823172
0.000949585
0.00108457
0.00122795
0.00137958
0.00153928
0.00170689
0.0018822
0.002065
0.00225504
0.0024521
0.00265596
0.00286638
0.00308308
0.00330579
0.00353423
0.00376815
0.0040073
0.00425139
0.00450015
0.00475325
0.00501041
0.00527133
0.00553572
0.00580327
0.00607368
0.00634659
0.00662166
0.00689856
0.00717696
0.00745652
0.00773689
0.00801771
0.00829861
0.00857924
0.00885923
0.00913823
0.00941591
0.00969191
0.00996588
0.0102374
0.0105062
0.0107719
0.0110341
0.0112924
0.0115466
0.0117962
0.012041
0.0122805
0.0125144
0.0127423
0.0129638
0.0131787
0.0133865
0.013587
0.0137799
0.0139648
0.0141414
0.0143095
0.0144686
0.0146187
0.0147594
0.0148906
0.015012
0.0151236
0.0152252
0.0153167
0.015398
0.0154691
0.0155299
0.0155804
0.0156207
0.0156508
0.0156707
0.0156807
0.015681
0.0156715
0.0156528
0.0156253
0.015584
0.0155245
0.000154711
9.32465e-05
5.03293e-05
2.13181e-05
1.13867e-06
-1.00871e-05
-1.20517e-05
-4.75826e-06
1.18098e-05
3.76848e-05
7.28893e-05
0.000117424
0.000171281
0.000234448
0.000306897
0.000388569
0.000479383
0.000579255
0.000688103
0.000805832
0.000932318
0.00106741
0.00121095
0.00136278
0.00152276
0.00169069
0.00186635
0.00204952
0.00223998
0.00243749
0.00264183
0.00285274
0.00306995
0.00329316
0.00352212
0.00375657
0.00399626
0.00424089
0.00449017
0.0047438
0.00500148
0.00526294
0.00552787
0.00579597
0.0060669
0.00634034
0.00661592
0.00689333
0.00717224
0.00745231
0.00773319
0.00801453
0.00829596
0.00857714
0.00885771
0.00913734
0.00941568
0.00969239
0.00996709
0.0102394
0.010509
0.0107755
0.0110385
0.0112977
0.0115528
0.0118033
0.0120489
0.0122892
0.0125238
0.0127524
0.0129746
0.0131901
0.0133986
0.0135997
0.0137932
0.0139787
0.014156
0.0143247
0.0144845
0.0146353
0.0147767
0.0149086
0.0150308
0.0151431
0.0152454
0.0153376
0.0154195
0.0154911
0.0155524
0.0156033
0.0156438
0.015674
0.0156939
0.0157036
0.0157033
0.0156929
0.0156729
0.0156435
0.0155996
0.0155366
0.000139455
7.53377e-05
3.03369e-05
-2.70413e-07
-2.17036e-05
-3.38647e-05
-3.65282e-05
-2.97709e-05
-1.36155e-05
1.19409e-05
4.6884e-05
9.11975e-05
0.000144877
0.000207915
0.000280272
0.00036188
0.00045267
0.000552579
0.000661534
0.00077943
0.000906129
0.00104149
0.00118536
0.0013376
0.00149805
0.00166649
0.0018427
0.00202645
0.00221755
0.00241574
0.0026208
0.00283244
0.00305038
0.00327436
0.00350411
0.00373938
0.00397989
0.00422535
0.00447547
0.00472994
0.00498848
0.00525081
0.00551663
0.00578562
0.00605743
0.00633174
0.0066082
0.00688648
0.00716627
0.00744722
0.00772899
0.00801121
0.00829355
0.00857566
0.0088572
0.00913784
0.00941722
0.00969501
0.00997083
0.0102443
0.010515
0.0107827
0.0110469
0.0113073
0.0115635
0.0118151
0.0120618
0.0123031
0.0125387
0.0127683
0.0129914
0.0132077
0.013417
0.013619
0.0138133
0.0139997
0.0141778
0.0143474
0.0145082
0.01466
0.0148024
0.0149354
0.0150586
0.0151719
0.0152752
0.0153682
0.015451
0.0155233
0.0155852
0.0156365
0.0156773
0.0157075
0.0157273
0.0157368
0.0157358
0.0157245
0.0157032
0.0156722
0.0156262
0.0155605
0.000113171
4.7126e-05
5.10557e-07
-3.14355e-05
-5.40201e-05
-6.71223e-05
-7.05219e-05
-6.43353e-05
-4.8637e-05
-2.34539e-05
1.11909e-05
5.52833e-05
0.000108814
0.000171757
0.000244064
0.000325679
0.00041655
0.000516621
0.000625808
0.000743995
0.000871049
0.00100684
0.00115123
0.00130407
0.00146516
0.00163429
0.00181123
0.00199579
0.00218774
0.00238684
0.00259282
0.00280541
0.00302434
0.00324934
0.00348016
0.00371652
0.00395814
0.00420473
0.00445598
0.00471162
0.00497136
0.00523492
0.00550198
0.00577221
0.00604527
0.00632082
0.00659853
0.00687808
0.00715913
0.00744135
0.00772438
0.00800789
0.00829153
0.00857496
0.00885786
0.00913989
0.0094207
0.00969993
0.00997721
0.0102522
0.0105244
0.0107936
0.0110592
0.0113211
0.0115788
0.0118318
0.0120798
0.0123224
0.0125593
0.0127899
0.0130142
0.0132316
0.013442
0.0136451
0.0138405
0.014028
0.0142073
0.0143781
0.0145401
0.0146931
0.0148368
0.014971
0.0150955
0.0152101
0.0153145
0.0154087
0.0154924
0.0155656
0.0156281
0.0156799
0.015721
0.0157513
0.015771
0.0157801
0.0157785
0.0157663
0.0157439
0.0157115
0.0156639
0.0155962
7.60864e-05
8.54258e-06
-3.93733e-05
-7.24407e-05
-9.60493e-05
-0.000110043
-0.000114172
-0.000108575
-9.33603e-05
-6.85706e-05
-3.42222e-05
9.67077e-06
6.30796e-05
0.000125962
0.000198277
0.000279987
0.000371049
0.000471396
0.000580931
0.000699538
0.000827099
0.000963493
0.00110857
0.00126217
0.00142407
0.00159407
0.00177195
0.0019575
0.00215051
0.00235071
0.00255783
0.0027716
0.00299176
0.00321803
0.00345017
0.0036879
0.00393091
0.00417892
0.00443163
0.00468878
0.00495006
0.0052152
0.00548385
0.00575568
0.00603036
0.00630754
0.00658689
0.0068681
0.00715082
0.00743471
0.00771943
0.00800463
0.00828998
0.00857515
0.00885981
0.00914362
0.00942623
0.00970726
0.00998634
0.0102631
0.0105371
0.0108081
0.0110755
0.0113392
0.0115985
0.0118532
0.0121028
0.012347
0.0125854
0.0128175
0.0130432
0.013262
0.0134738
0.0136783
0.0138751
0.014064
0.0142448
0.014417
0.0145805
0.014735
0.0148802
0.0150159
0.0151418
0.0152578
0.0153635
0.0154589
0.0155437
0.0156177
0.015681
0.0157333
0.0157747
0.0158053
0.0158249
0.0158336
0.0158315
0.0158186
0.0157952
0.0157617
0.0157127
0.0156435
2.83961e-05
-4.03934e-05
-8.94231e-05
-0.000123472
-0.000147985
-0.000162793
-0.00016763
-0.000162631
-0.000147904
-0.000123492
-8.94136e-05
-4.56969e-05
7.61644e-06
7.04877e-05
0.00014289
0.000224795
0.000316151
0.000416879
0.000526879
0.000646047
0.000774274
0.000911433
0.00105736
0.00121187
0.00137475
0.00154579
0.0017248
0.00191155
0.0021058
0.00230729
0.00251575
0.00273092
0.00295253
0.00318034
0.00341406
0.00365341
0.0038981
0.00414783
0.00440232
0.00466129
0.00492447
0.00519152
0.00546211
0.00573591
0.00601258
0.00629178
0.00657317
0.00685644
0.00714124
0.00742723
0.00771406
0.00800139
0.00828888
0.00857621
0.00886304
0.00914903
0.00943381
0.00971701
0.00999823
0.0102771
0.0105533
0.0108263
0.0110958
0.0113615
0.0116228
0.0118794
0.012131
0.012377
0.0126172
0.0128511
0.0130786
0.0132992
0.0135128
0.013719
0.0139176
0.0141083
0.0142907
0.0144647
0.0146299
0.014786
0.0149329
0.0150702
0.0151977
0.0153151
0.0154222
0.0155188
0.0156047
0.0156797
0.0157438
0.0157967
0.0158385
0.0158693
0.0158889
0.0158974
0.0158949
0.0158814
0.0158572
0.0158228
0.0157727
0.0157022
-2.98335e-05
-9.96992e-05
-0.000149719
-0.00018466
-0.000209994
-0.000225559
-0.000231079
-0.000226661
-0.000212398
-0.000188331
-0.000154496
-0.00011093
-5.76696e-05
5.26305e-06
7.78468e-05
0.000160044
0.000251792
0.000353007
0.000463602
0.00058348
0.000712531
0.000850607
0.000997531
0.0011531
0.00131713
0.0014894
0.00166971
0.00185784
0.00205352
0.00225649
0.0024665
0.00268328
0.0029066
0.00313617
0.00337172
0.00361296
0.0038596
0.00411135
0.00436793
0.00462906
0.00489444
0.00516374
0.00543662
0.00571274
0.00599177
0.00627337
0.0065572
0.00684294
0.00713024
0.00741874
0.00770811
0.00799799
0.00828806
0.00857798
0.00886742
0.00915599
0.00944334
0.00972907
0.0100128
0.0102941
0.0105727
0.0108482
0.0111201
0.011388
0.0116516
0.0119105
0.0121643
0.0124125
0.0126549
0.012891
0.0131207
0.0133435
0.0135593
0.0137676
0.0139683
0.0141611
0.0143456
0.0145215
0.0146886
0.0148466
0.0149952
0.0151342
0.0152633
0.0153822
0.0154908
0.0155886
0.0156757
0.0157517
0.0158165
0.0158701
0.0159125
0.0159435
0.0159632
0.0159717
0.0159689
0.0159549
0.0159301
0.0158949
0.0158439
0.0157723
-9.86165e-05
-0.00016945
-0.000220368
-0.000256144
-0.000282266
-0.000298552
-0.000304716
-0.000300839
-0.000287001
-0.00026325
-0.000229631
-0.000186174
-0.000132896
-6.98133e-05
3.04432e-06
8.5627e-05
0.000177869
0.000279696
0.000391028
0.00051177
0.00064179
0.000780927
0.000928993
0.00108579
0.00125114
0.00142482
0.00160662
0.00179629
0.00199358
0.00219824
0.00241
0.00262864
0.00285388
0.00308546
0.00332309
0.00356649
0.00381535
0.00406941
0.00432839
0.00459199
0.00485989
0.00513176
0.00540725
0.00568603
0.00596777
0.00625214
0.00653879
0.00682738
0.00711757
0.00740901
0.00770133
0.00799421
0.0082873
0.00858025
0.0088727
0.00916429
0.00945461
0.00974327
0.0100299
0.0103141
0.0105954
0.0108736
0.0111482
0.0114188
0.0116851
0.0119465
0.0122029
0.0124537
0.0126986
0.0129374
0.0131697
0.0133951
0.0136135
0.0138244
0.0140276
0.0142228
0.0144095
0.0145877
0.0147569
0.0149169
0.0150674
0.0152081
0.0153389
0.0154593
0.0155693
0.0156684
0.0157566
0.0158337
0.0158995
0.0159539
0.0159968
0.0160282
0.0160482
0.0160567
0.0160538
0.0160394
0.0160141
0.0159782
0.0159263
0.0158537
-0.000178005
-0.000249774
-0.000301541
-0.00033812
-0.000365013
-0.000381991
-0.00038875
-0.000385368
-0.000371921
-0.000348456
-0.000315006
-0.000271586
-0.000218203
-0.00015488
-8.16592e-05
1.40778e-06
9.42631e-05
0.000196842
0.000309063
0.000430813
0.000561945
0.000702285
0.00085165
0.00100985
0.00117669
0.00135196
0.00153542
0.00172683
0.00192593
0.00213247
0.00234623
0.00256694
0.00279435
0.00302819
0.00326815
0.00351396
0.00376534
0.00402201
0.00428368
0.00455003
0.00482075
0.00509548
0.0053739
0.00565568
0.00594047
0.00622795
0.00651778
0.0068096
0.00710307
0.00739782
0.00769352
0.0079898
0.00828633
0.00858273
0.00887863
0.00917364
0.00946734
0.00975934
0.0100492
0.0103367
0.0106212
0.0109025
0.0111802
0.0114539
0.0117231
0.0119876
0.0122469
0.0125008
0.0127487
0.0129906
0.0132259
0.0134544
0.0136757
0.0138896
0.0140956
0.0142935
0.0144828
0.0146634
0.0148349
0.014997
0.0151495
0.0152921
0.0154245
0.0155466
0.015658
0.0157585
0.0158479
0.0159261
0.0159929
0.0160482
0.0160918
0.0161238
0.0161441
0.0161528
0.0161498
0.0161351
0.0161093
0.0160728
0.0160201
0.0159464
-0.000268097
-0.000340841
-0.000393461
-0.000430822
-0.000458456
-0.000476089
-0.000483402
-0.00048048
-0.00046739
-0.00044416
-0.000410804
-0.000367331
-0.000313754
-0.000250103
-0.000176421
-9.27519e-05
8.55424e-07
0.000104334
0.000217588
0.000340487
0.000472871
0.00061457
0.000765402
0.000925181
0.0010937
0.00127074
0.00145605
0.00164938
0.0018505
0.00205917
0.00227514
0.00249818
0.00272801
0.00296434
0.00320691
0.00345542
0.0037096
0.00396916
0.0042338
0.00450319
0.00477701
0.00505492
0.00533657
0.00562165
0.00590983
0.00620076
0.0064941
0.00678949
0.0070866
0.00738505
0.0076845
0.00798458
0.00828495
0.0085852
0.00888496
0.00918379
0.00948129
0.00977705
0.0100707
0.0103617
0.0106499
0.0109348
0.011216
0.0114931
0.0117658
0.0120338
0.0122966
0.0125539
0.0128053
0.0130506
0.0132894
0.0135214
0.0137461
0.0139632
0.0141724
0.0143732
0.0145654
0.0147487
0.0149226
0.015087
0.0152416
0.0153862
0.0155205
0.0156442
0.0157571
0.0158591
0.0159499
0.0160294
0.0160973
0.0161535
0.016198
0.0162306
0.0162513
0.0162601
0.0162571
0.0162422
0.0162159
0.0161788
0.0161252
0.0160504
-0.000369033
-0.000442836
-0.000496341
-0.000534469
-0.000562812
-0.000581071
-0.000588912
-0.000586411
-0.000573623
-0.000550551
-0.000517201
-0.000473585
-0.000419725
-0.00035565
-0.00028139
-0.000196981
-0.000102475
2.04802e-06
0.000116474
0.00024066
0.000374449
0.000517673
0.000670151
0.000831689
0.00100207
0.00118105
0.0013684
0.00156388
0.00176725
0.00197828
0.00219673
0.00242234
0.00265484
0.00289394
0.00313938
0.00339087
0.00364814
0.00391088
0.00417878
0.0044515
0.00472872
0.00501009
0.00529529
0.00558399
0.00587586
0.00617056
0.00646775
0.00676706
0.00706814
0.00737065
0.00767421
0.00797847
0.00828304
0.00858753
0.00889152
0.00919457
0.00949626
0.00979618
0.0100939
0.0103891
0.0106813
0.0109702
0.0112554
0.0115366
0.0118132
0.0120851
0.0123519
0.0126131
0.0128685
0.0131177
0.0133604
0.0135961
0.0138245
0.0140453
0.0142579
0.014462
0.0146573
0.0148434
0.01502
0.0151869
0.0153439
0.0154906
0.0156268
0.0157524
0.0158671
0.0159707
0.016063
0.0161438
0.0162129
0.0162702
0.0163155
0.0163487
0.0163699
0.0163789
0.0163758
0.0163607
0.0163339
0.0162961
0.0162416
0.0161656
-0.000480982
-0.000555937
-0.000610369
-0.000649264
-0.000678302
-0.00069717
-0.000705508
-0.000703372
-0.000690804
-0.000667804
-0.000634372
-0.000590527
-0.000536287
-0.000471669
-0.000396695
-0.000311402
-0.000215855
-0.000110152
5.58222e-06
0.000131205
0.000266561
0.000411484
0.000565786
0.000729258
0.000901676
0.0010828
0.0012724
0.00147024
0.00167611
0.00188975
0.00211092
0.00233937
0.00257481
0.00281696
0.00306556
0.00332034
0.00358098
0.00384719
0.00411863
0.00439497
0.00467588
0.00496103
0.00525008
0.00554273
0.00583862
0.00613743
0.00643878
0.00674234
0.00704775
0.00735466
0.00766269
0.00797147
0.00828061
0.00858968
0.00889826
0.00920589
0.00951216
0.00981664
0.0101189
0.0104186
0.0107154
0.0110088
0.0112985
0.0115842
0.0118653
0.0121417
0.0124129
0.0126786
0.0129383
0.0131919
0.0134388
0.0136786
0.0139111
0.0141356
0.0143519
0.0145595
0.0147582
0.0149474
0.015127
0.0152967
0.0154562
0.0156054
0.0157439
0.0158716
0.0159882
0.0160936
0.0161875
0.0162697
0.0163401
0.0163984
0.0164446
0.0164785
0.0165
0.0165092
0.0165061
0.0164906
0.0164634
0.0164249
0.0163694
0.0162922
-0.000604125
-0.000680319
-0.00073573
-0.000775412
-0.000805141
-0.000824594
-0.000833379
-0.000831536
-0.000819106
-0.00079609
-0.000762495
-0.000718326
-0.000663589
-0.000598294
-0.000522463
-0.000436147
-0.000339427
-0.000232411
-0.000115226
1.19896e-05
0.00014908
0.000295872
0.000452167
0.000617747
0.000792385
0.000975852
0.00116792
0.00136837
0.00157697
0.00179348
0.00201764
0.00224918
0.00248783
0.00273333
0.00298539
0.00324374
0.00350805
0.00377802
0.0040533
0.00433356
0.00461847
0.00490772
0.00520096
0.00549788
0.00579813
0.00610138
0.00640725
0.00671541
0.0070255
0.00733716
0.00765001
0.00796367
0.00827771
0.00859171
0.00890521
0.00921779
0.009529
0.00983844
0.0101457
0.0104504
0.0107522
0.0110506
0.0113453
0.0116359
0.0119221
0.0122034
0.0124796
0.0127501
0.0130147
0.0132729
0.0135244
0.0137687
0.0140054
0.0142341
0.0144544
0.0146658
0.014868
0.0150607
0.0152436
0.0154164
0.0155788
0.0157307
0.0158718
0.0160018
0.0161206
0.0162279
0.0163236
0.0164073
0.016479
0.0165384
0.0165854
0.0166199
0.0166419
0.0166512
0.016648
0.0166322
0.0166045
0.0165653
0.0165089
0.0164303
-0.000738651
-0.000816172
-0.000872616
-0.000913113
-0.000943523
-0.000963515
-0.000972686
-0.000971068
-0.000958702
-0.000935594
-0.000901741
-0.000857134
-0.00080177
-0.000735659
-0.000658839
-0.000571375
-0.000473356
-0.000364892
-0.000246106
-0.000117139
2.18471e-05
0.000170668
0.000329118
0.000496976
0.000674023
0.000860039
0.0010548
0.0012581
0.00146968
0.00168931
0.00191671
0.00215162
0.00239378
0.00264291
0.00289872
0.00316093
0.00342921
0.00370322
0.00398264
0.00426714
0.00455638
0.00485005
0.00514783
0.00544937
0.00575434
0.00606237
0.00637313
0.00668626
0.0070014
0.00731818
0.00763622
0.0079551
0.00827439
0.00859366
0.00891245
0.00923032
0.00954686
0.00986165
0.0101743
0.0104844
0.0107916
0.0110956
0.0113958
0.0116919
0.0119835
0.0122703
0.0125518
0.0128276
0.0130974
0.0133607
0.0136171
0.0138662
0.0141075
0.0143405
0.014565
0.0147805
0.0149867
0.0151832
0.0153697
0.0155459
0.0157117
0.0158667
0.0160106
0.0161433
0.0162644
0.0163739
0.0164714
0.0165567
0.0166297
0.0166902
0.0167381
0.0167732
0.0167955
0.016805
0.0168017
0.0167857
0.0167575
0.0167176
0.0166602
0.0165803
-0.000884764
-0.000963693
-0.00102122
-0.00106254
-0.00109361
-0.0011141
-0.0011236
-0.00112215
-0.00110978
-0.0010865
-0.00105228
-0.00100711
-0.000950984
-0.000883936
-0.000806011
-0.000717281
-0.000617837
-0.000507785
-0.000387251
-0.000256383
-0.000115352
3.56489e-05
0.000196411
0.000366722
0.000546373
0.000735153
0.000932842
0.00113921
0.00135402
0.00157701
0.00180792
0.00204648
0.00229242
0.00254548
0.00280534
0.0030717
0.00334423
0.00362259
0.00390645
0.0041955
0.00448942
0.00478787
0.00509052
0.00539705
0.0057071
0.00602031
0.00633634
0.00665482
0.0069754
0.00729769
0.00762128
0.00794575
0.00827066
0.00859556
0.00892
0.00924356
0.00956581
0.00988637
0.0102048
0.0105208
0.0108339
0.0111438
0.01145
0.011752
0.0120496
0.0123422
0.0126295
0.012911
0.0131863
0.013455
0.0137166
0.0139708
0.0142169
0.0144547
0.0146838
0.0149037
0.0151142
0.0153149
0.0155054
0.0156855
0.0158549
0.0160133
0.0161605
0.016296
0.0164198
0.0165315
0.0166309
0.0167179
0.0167923
0.0168539
0.0169027
0.0169384
0.0169612
0.0169709
0.0169677
0.0169514
0.0169228
0.0168823
0.0168239
0.0167425
-0.00104266
-0.00112307
-0.00118171
-0.00122385
-0.00125558
-0.00127653
-0.00128633
-0.00128499
-0.00127255
-0.00124899
-0.00121428
-0.00116843
-0.00111145
-0.00104335
-0.000964218
-0.000874106
-0.000773107
-0.00066133
-0.00053891
-0.000406003
-0.00026279
-0.000109463
5.37748e-05
0.000226723
0.000409182
0.00060094
0.000801777
0.00101145
0.00122973
0.00145633
0.00169101
0.0019335
0.00218352
0.00244078
0.00270497
0.00297577
0.00325284
0.00353586
0.00382449
0.00411843
0.00441736
0.00472094
0.00502885
0.00534074
0.00565625
0.00597503
0.00629672
0.00662096
0.00694738
0.00727557
0.0076051
0.00793554
0.00826644
0.00859736
0.00892785
0.00925749
0.00958589
0.00991265
0.0102374
0.0105597
0.0108792
0.0111954
0.0115079
0.0118163
0.0121202
0.012419
0.0127125
0.013
0.0132812
0.0135556
0.0138228
0.0140823
0.0143337
0.0145766
0.0148107
0.0150354
0.0152506
0.0154559
0.0156508
0.0158352
0.0160086
0.0161708
0.0163213
0.01646
0.0165866
0.0167007
0.0168022
0.016891
0.0169669
0.0170298
0.0170795
0.017116
0.0171393
0.0171494
0.0171463
0.0171299
0.0171009
0.0170598
0.0170004
0.0169174
-0.00121254
-0.00129451
-0.00135428
-0.00139727
-0.00142965
-0.00145107
-0.00146112
-0.00145983
-0.00144723
-0.00142329
-0.00138801
-0.00134138
-0.00128344
-0.00121421
-0.00113375
-0.00104214
-0.00093946
-0.000825832
-0.000701399
-0.000566326
-0.000420793
-0.000264987
-9.90975e-05
7.66825e-05
0.000262156
0.00045711
0.000661315
0.000874533
0.00109651
0.001327
0.00156572
0.00181242
0.0020668
0.00232855
0.00259736
0.00287288
0.00315481
0.00344279
0.00373654
0.00403572
0.00434002
0.0046491
0.00496263
0.00528026
0.00560163
0.00592638
0.00625415
0.00658455
0.0069172
0.00725168
0.00758754
0.00792433
0.00826161
0.00859894
0.0089359
0.00927207
0.00960707
0.00994049
0.0102719
0.010601
0.0109273
0.0112503
0.0115696
0.0118848
0.0121953
0.0125007
0.0128006
0.0130945
0.013382
0.0136624
0.0139355
0.0142008
0.0144579
0.0147063
0.0149457
0.0151758
0.0153961
0.0156064
0.0158061
0.0159951
0.0161728
0.016339
0.0164933
0.0166353
0.0167648
0.0168816
0.0169855
0.0170762
0.0171538
0.0172181
0.017269
0.0173064
0.0173305
0.017341
0.017338
0.0173216
0.0172922
0.0172504
0.0171898
0.017105
-0.00139463
-0.00147825
-0.00153922
-0.00158306
-0.00161611
-0.00163798
-0.00164825
-0.00164695
-0.00163411
-0.00160972
-0.00157378
-0.0015263
-0.00146731
-0.00139685
-0.00131496
-0.00122173
-0.00111725
-0.00100165
-0.000875086
-0.000737717
-0.000589716
-0.00043126
-0.00026253
-8.37153e-05
0.000104985
0.000303354
0.000511158
0.000728158
0.000954106
0.00118874
0.0014318
0.00168299
0.00194201
0.00220854
0.00248226
0.00276283
0.00304992
0.00334323
0.00364243
0.00394722
0.00425726
0.00457223
0.00489177
0.00521554
0.00554316
0.00587429
0.00620853
0.00654549
0.00688477
0.00722591
0.00756848
0.00791201
0.00825607
0.00860024
0.0089441
0.00928726
0.00962931
0.00996986
0.0103085
0.0106448
0.0109783
0.0113085
0.011635
0.0119573
0.0122749
0.0125873
0.012894
0.0131946
0.0134885
0.0137755
0.0140549
0.0143263
0.0145895
0.0148439
0.0150892
0.015325
0.0155509
0.0157665
0.0159714
0.0161653
0.0163476
0.0165181
0.0166763
0.016822
0.0169547
0.0170744
0.0171808
0.0172739
0.0173534
0.0174193
0.0174716
0.0175102
0.017535
0.0175461
0.0175434
0.0175269
0.0174971
0.0174544
0.0173925
0.0173057
-0.00158919
-0.00167458
-0.00173682
-0.00178157
-0.00181529
-0.0018376
-0.00184805
-0.00184668
-0.00183355
-0.00180864
-0.00177198
-0.00172357
-0.00166344
-0.00159164
-0.00150821
-0.00141325
-0.00130686
-0.00118918
-0.00106036
-0.000920544
-0.000769908
-0.000608615
-0.000436843
-0.000254781
-6.26337e-05
0.00013938
0.000351028
0.000572072
0.000802263
0.00104134
0.00128901
0.00154498
0.00180894
0.00208056
0.0023595
0.00264544
0.00293805
0.00323704
0.00354207
0.00385285
0.00416903
0.00449027
0.00481623
0.00514654
0.00548083
0.00581874
0.00615986
0.00650377
0.00685005
0.00719824
0.00754789
0.00789855
0.00824981
0.00860124
0.00895245
0.00930304
0.00965262
0.0100008
0.0103471
0.010691
0.0110322
0.0113701
0.0117041
0.0120339
0.0123589
0.0126786
0.0129925
0.0133002
0.0136011
0.0138948
0.014181
0.0144591
0.0147288
0.0149897
0.0152413
0.0154833
0.0157151
0.0159365
0.0161469
0.0163459
0.0165331
0.0167081
0.0168706
0.0170201
0.0171565
0.0172794
0.0173887
0.0174842
0.017566
0.0176338
0.0176877
0.0177276
0.0177534
0.0177651
0.0177626
0.0177458
0.0177154
0.0176717
0.0176082
0.0175192
-0.00179658
-0.00188384
-0.00194745
-0.00199315
-0.00202755
-0.00205027
-0.00206088
-0.00205942
-0.00204595
-0.00202047
-0.00198302
-0.00193359
-0.00187223
-0.00179897
-0.00171389
-0.00161709
-0.00150868
-0.0013888
-0.00125757
-0.00111515
-0.000961687
-0.000797355
-0.000622327
-0.000436798
-0.00024097
-3.50626e-05
0.000180693
0.000406061
0.000640784
0.000884586
0.00113717
0.00139823
0.00166743
0.00194444
0.00222894
0.0025206
0.00281911
0.00312415
0.00343542
0.00375258
0.0040753
0.00440323
0.00473601
0.00507328
0.00541467
0.00575976
0.00610815
0.0064594
0.00681307
0.00716869
0.00752582
0.00788403
0.00824289
0.00860202
0.00896103
0.00931951
0.00967706
0.0100332
0.0103876
0.0107397
0.0110889
0.0114348
0.0117769
0.0121145
0.0124473
0.0127747
0.0130963
0.0134114
0.0137198
0.0140209
0.0143143
0.0145996
0.0148763
0.0151441
0.0154024
0.0156509
0.0158891
0.0161165
0.0163327
0.0165372
0.0167296
0.0169094
0.0170764
0.0172301
0.0173704
0.0174968
0.0176094
0.0177078
0.0177921
0.0178621
0.0179177
0.0179589
0.0179857
0.0179978
0.0179954
0.0179783
0.0179471
0.0179022
0.0178369
0.0177455
-0.00201715
-0.00210641
-0.00217145
-0.00221815
-0.00225326
-0.00227641
-0.00228716
-0.00228558
-0.00227172
-0.00224561
-0.00220727