/*--------------------------------*- C++ -*----------------------------------*\
  =========                 |
  \\      /  F ield         | OpenFOAM: The Open Source CFD Toolbox
   \\    /   O peration     | Website:  https://openfoam.org
    \\  /    A nd           | Version:  7
     \\/     M anipulation  |
\*---------------------------------------------------------------------------*/
FoamFile
{
    version     2.0;
    format      ascii;
    class       surfaceScalarField;
    location    "0.03125";
    object      phi;
}
// * * * * * * * * * * * * * * * * * * * * * * * * * * * * * * * * * * * * * //

dimensions      [0 3 -1 0 0 0 0];

internalField   nonuniform List<scalar> 
19800
(
6.67273e-11
-6.65071e-11
4.5692e-11
2.10286e-11
-1.17583e-10
1.63275e-10
-4.06617e-10
2.89029e-10
-7.99803e-10
3.93184e-10
-1.27246e-09
4.72657e-10
-1.80195e-09
5.29479e-10
-2.3696e-09
5.67651e-10
-2.96112e-09
5.9152e-10
-3.56594e-09
6.04815e-10
-4.1765e-09
6.1056e-10
-4.78761e-09
6.11118e-10
-5.39574e-09
6.08119e-10
-5.9985e-09
6.02762e-10
-6.5944e-09
5.959e-10
-7.18242e-09
5.88014e-10
-7.76172e-09
5.79307e-10
-8.33164e-09
5.69913e-10
-8.89158e-09
5.59943e-10
-9.44101e-09
5.49431e-10
-9.9794e-09
5.38384e-10
-1.05062e-08
5.26834e-10
-1.1021e-08
5.1479e-10
-1.15232e-08
5.02218e-10
-1.20123e-08
4.89091e-10
-1.24878e-08
4.75429e-10
-1.2949e-08
4.61273e-10
-1.33957e-08
4.46649e-10
-1.38272e-08
4.31556e-10
-1.42432e-08
4.15978e-10
-1.46431e-08
3.99909e-10
-1.50265e-08
3.83383e-10
-1.53929e-08
3.66449e-10
-1.57421e-08
3.49124e-10
-1.60735e-08
3.31389e-10
-1.63867e-08
3.13247e-10
-1.66814e-08
2.94731e-10
-1.69573e-08
2.75878e-10
-1.7214e-08
2.56699e-10
-1.74512e-08
2.37205e-10
-1.76686e-08
2.17416e-10
-1.7866e-08
1.97356e-10
-1.8043e-08
1.77047e-10
-1.81995e-08
1.56506e-10
-1.83353e-08
1.35758e-10
-1.84501e-08
1.14821e-10
-1.85438e-08
9.37063e-11
-1.86162e-08
7.24247e-11
-1.86672e-08
5.09991e-11
-1.86967e-08
2.94616e-11
-1.87045e-08
7.83755e-12
-1.86907e-08
-1.38605e-11
-1.8655e-08
-3.56224e-11
-1.85976e-08
-5.74324e-11
-1.85183e-08
-7.92647e-11
-1.84173e-08
-1.01088e-10
-1.82944e-08
-1.22874e-10
-1.81498e-08
-1.44601e-10
-1.79835e-08
-1.66247e-10
-1.77957e-08
-1.87784e-10
-1.75865e-08
-2.09189e-10
-1.73561e-08
-2.30438e-10
-1.71046e-08
-2.51503e-10
-1.68323e-08
-2.72354e-10
-1.65393e-08
-2.92966e-10
-1.6226e-08
-3.13314e-10
-1.58926e-08
-3.33374e-10
-1.55395e-08
-3.53119e-10
-1.5167e-08
-3.72523e-10
-1.47754e-08
-3.91559e-10
-1.43652e-08
-4.10193e-10
-1.39368e-08
-4.28388e-10
-1.34907e-08
-4.46119e-10
-1.30273e-08
-4.63367e-10
-1.25472e-08
-4.80101e-10
-1.20509e-08
-4.96292e-10
-1.1539e-08
-5.11924e-10
-1.1012e-08
-5.2699e-10
-1.04706e-08
-5.41476e-10
-9.9152e-09
-5.55364e-10
-9.34656e-09
-5.68642e-10
-8.76526e-09
-5.81302e-10
-8.17194e-09
-5.9332e-10
-7.5673e-09
-6.04638e-10
-6.95215e-09
-6.15146e-10
-6.32749e-09
-6.24658e-10
-5.69463e-09
-6.3286e-10
-5.05539e-09
-6.39232e-10
-4.41244e-09
-6.42953e-10
-3.76965e-09
-6.42798e-10
-3.13262e-09
-6.37032e-10
-2.50934e-09
-6.23285e-10
-1.9109e-09
-5.98441e-10
-1.35227e-09
-5.58629e-10
-8.52887e-10
-4.99383e-10
-4.36644e-10
-4.16245e-10
-1.30342e-10
-3.06301e-10
4.09832e-11
-1.7131e-10
6.78425e-11
-2.68259e-11
6.78781e-11
-2.13362e-11
-4.51768e-11
-2.7511e-10
2.74799e-10
-8.19282e-10
7.07432e-10
-1.64137e-09
1.11111e-09
-2.70205e-09
1.45385e-09
-3.95365e-09
1.72425e-09
-5.34821e-09
1.92404e-09
-6.84371e-09
2.06314e-09
-8.40579e-09
2.1536e-09
-1.00079e-08
2.20693e-09
-1.16303e-08
2.23296e-09
-1.32587e-08
2.23948e-09
-1.48829e-08
2.23232e-09
-1.64958e-08
2.21571e-09
-1.80925e-08
2.1926e-09
-1.96694e-08
2.16485e-09
-2.12236e-08
2.13356e-09
-2.27532e-08
2.09944e-09
-2.42561e-08
2.06291e-09
-2.57309e-08
2.02417e-09
-2.71758e-08
1.98334e-09
-2.85895e-08
1.94053e-09
-2.99705e-08
1.89576e-09
-3.13173e-08
1.84902e-09
-3.26286e-08
1.80033e-09
-3.39028e-08
1.74971e-09
-3.51388e-08
1.69723e-09
-3.63351e-08
1.64296e-09
-3.74905e-08
1.58692e-09
-3.86036e-08
1.52913e-09
-3.96733e-08
1.46962e-09
-4.06984e-08
1.40849e-09
-4.16778e-08
1.34581e-09
-4.26103e-08
1.28164e-09
-4.34949e-08
1.216e-09
-4.43306e-08
1.14896e-09
-4.51165e-08
1.08058e-09
-4.58515e-08
1.01095e-09
-4.6535e-08
9.40134e-10
-4.7166e-08
8.68196e-10
-4.77438e-08
7.95214e-10
-4.82677e-08
7.21258e-10
-4.8737e-08
6.46398e-10
-4.91512e-08
5.70704e-10
-4.95097e-08
4.94251e-10
-4.9812e-08
4.17108e-10
-5.00576e-08
3.39335e-10
-5.02462e-08
2.60998e-10
-5.03774e-08
1.82173e-10
-5.04508e-08
1.02945e-10
-5.04664e-08
2.33924e-11
-5.04238e-08
-5.64178e-11
-5.0323e-08
-1.3642e-10
-5.01639e-08
-2.16539e-10
-4.99465e-08
-2.9669e-10
-4.96708e-08
-3.76785e-10
-4.93369e-08
-4.56734e-10
-4.89451e-08
-5.36449e-10
-4.84955e-08
-6.15835e-10
-4.79885e-08
-6.94798e-10
-4.74244e-08
-7.73245e-10
-4.68037e-08
-8.51093e-10
-4.6127e-08
-9.2825e-10
-4.53947e-08
-1.00462e-09
-4.46076e-08
-1.08011e-09
-4.37663e-08
-1.15462e-09
-4.28716e-08
-1.22804e-09
-4.19244e-08
-1.30029e-09
-4.09257e-08
-1.37126e-09
-3.98764e-08
-1.44085e-09
-3.87776e-08
-1.50897e-09
-3.76305e-08
-1.5755e-09
-3.64363e-08
-1.64035e-09
-3.51962e-08
-1.70343e-09
-3.39117e-08
-1.76465e-09
-3.25841e-08
-1.8239e-09
-3.12149e-08
-1.88111e-09
-2.98057e-08
-1.93621e-09
-2.8358e-08
-1.98915e-09
-2.68735e-08
-2.03986e-09
-2.53539e-08
-2.08827e-09
-2.38009e-08
-2.13427e-09
-2.22165e-08
-2.17771e-09
-2.06029e-08
-2.21828e-09
-1.89625e-08
-2.2555e-09
-1.72986e-08
-2.28855e-09
-1.56153e-08
-2.31613e-09
-1.39183e-08
-2.33622e-09
-1.22155e-08
-2.34578e-09
-1.05179e-08
-2.34046e-09
-8.84065e-09
-2.31425e-09
-7.20474e-09
-2.2592e-09
-5.63781e-09
-2.16537e-09
-4.17538e-09
-2.02105e-09
-2.86093e-09
-1.81383e-09
-1.74422e-09
-1.53295e-09
-8.76307e-10
-1.17423e-09
-2.99125e-10
-7.48553e-10
-2.67004e-11
-2.9932e-10
4.11937e-11
-1.53942e-10
1.08765e-10
-6.99863e-10
8.20714e-10
-1.64826e-09
1.65583e-09
-2.97143e-09
2.43426e-09
-4.6182e-09
3.10062e-09
-6.52743e-09
3.63348e-09
-8.63781e-09
4.03442e-09
-1.08938e-08
4.31911e-09
-1.32487e-08
4.50852e-09
-1.56653e-08
4.62357e-09
-1.81152e-08
4.68277e-09
-2.05769e-08
4.70119e-09
-2.3035e-08
4.69045e-09
-2.54784e-08
4.65908e-09
-2.78989e-08
4.61308e-09
-3.02905e-08
4.55644e-09
-3.26486e-08
4.49173e-09
-3.49697e-08
4.42055e-09
-3.72507e-08
4.3439e-09
-3.94889e-08
4.26233e-09
-4.16817e-08
4.17619e-09
-4.38269e-08
4.08569e-09
-4.59221e-08
3.99095e-09
-4.79651e-08
3.89203e-09
-4.99538e-08
3.78899e-09
-5.1886e-08
3.68192e-09
-5.37597e-08
3.57092e-09
-5.55728e-08
3.45611e-09
-5.73234e-08
3.33755e-09
-5.90096e-08
3.21533e-09
-6.06296e-08
3.08957e-09
-6.21815e-08
2.9604e-09
-6.36637e-08
2.82797e-09
-6.50744e-08
2.6924e-09
-6.64122e-08
2.55379e-09
-6.76755e-08
2.41228e-09
-6.88629e-08
2.26801e-09
-6.99731e-08
2.12114e-09
-7.10048e-08
1.9718e-09
-7.19568e-08
1.82015e-09
-7.28279e-08
1.66634e-09
-7.36171e-08
1.5105e-09
-7.43235e-08
1.35279e-09
-7.49462e-08
1.19335e-09
-7.54842e-08
1.03233e-09
-7.5937e-08
8.69871e-10
-7.63038e-08
7.06118e-10
-7.6584e-08
5.41215e-10
-7.67771e-08
3.75323e-10
-7.68828e-08
2.08603e-10
-7.69006e-08
4.12175e-11
-7.68304e-08
-1.26679e-10
-7.66718e-08
-2.94929e-10
-7.6425e-08
-4.6337e-10
-7.60899e-08
-6.31828e-10
-7.56665e-08
-8.00123e-10
-7.51552e-08
-9.68072e-10
-7.45561e-08
-1.13549e-09
-7.38698e-08
-1.30218e-09
-7.30966e-08
-1.46795e-09
-7.22373e-08
-1.63262e-09
-7.12924e-08
-1.79598e-09
-7.02628e-08
-1.95786e-09
-6.91493e-08
-2.11806e-09
-6.79531e-08
-2.27636e-09
-6.66751e-08
-2.43258e-09
-6.53166e-08
-2.5865e-09
-6.3879e-08
-2.73791e-09
-6.23637e-08
-2.88661e-09
-6.07721e-08
-3.0324e-09
-5.9106e-08
-3.17508e-09
-5.73671e-08
-3.31443e-09
-5.55572e-08
-3.45026e-09
-5.36782e-08
-3.58239e-09
-5.17323e-08
-3.7106e-09
-4.97215e-08
-3.83472e-09
-4.7648e-08
-3.95458e-09
-4.55142e-08
-4.07002e-09
-4.33225e-08
-4.18089e-09
-4.10753e-08
-4.28702e-09
-3.87754e-08
-4.38819e-09
-3.64255e-08
-4.48413e-09
-3.40288e-08
-4.5744e-09
-3.15888e-08
-4.65826e-09
-2.91098e-08
-4.73457e-09
-2.65968e-08
-4.80149e-09
-2.40568e-08
-4.85618e-09
-2.14987e-08
-4.89435e-09
-1.89347e-08
-4.90974e-09
-1.63817e-08
-4.89352e-09
-1.38621e-08
-4.83381e-09
-1.1406e-08
-4.71526e-09
-9.05226e-09
-4.51914e-09
-6.84909e-09
-4.22422e-09
-4.85395e-09
-3.80896e-09
-3.13067e-09
-3.2562e-09
-1.74354e-09
-2.56133e-09
-7.47048e-10
-1.74501e-09
-1.70676e-10
-8.75739e-10
-1.29471e-10
-2.87605e-10
3.96361e-10
-1.11585e-09
1.64895e-09
-2.44423e-09
2.9842e-09
-4.21904e-09
4.20907e-09
-6.37378e-09
5.25535e-09
-8.83675e-09
6.09644e-09
-1.15379e-08
6.73556e-09
-1.44138e-08
7.19501e-09
-1.74105e-08
7.5052e-09
-2.04842e-08
7.69725e-09
-2.36006e-08
7.79921e-09
-2.67337e-08
7.83433e-09
-2.98641e-08
7.82086e-09
-3.29775e-08
7.77241e-09
-3.60631e-08
7.69868e-09
-3.9113e-08
7.60633e-09
-4.2121e-08
7.49977e-09
-4.50823e-08
7.38183e-09
-4.79926e-08
7.25424e-09
-5.08484e-08
7.11808e-09
-5.36462e-08
6.97402e-09
-5.6383e-08
6.82248e-09
-5.90558e-08
6.6637e-09
-6.16616e-08
6.49788e-09
-6.41978e-08
6.32515e-09
-6.66615e-08
6.14567e-09
-6.90502e-08
5.95962e-09
-7.13613e-08
5.76716e-09
-7.35922e-08
5.56844e-09
-7.57405e-08
5.36365e-09
-7.78039e-08
5.15299e-09
-7.97801e-08
4.93666e-09
-8.16671e-08
4.7149e-09
-8.34626e-08
4.4879e-09
-8.51647e-08
4.25588e-09
-8.67715e-08
4.01908e-09
-8.82812e-08
3.77774e-09
-8.96922e-08
3.5321e-09
-9.10028e-08
3.2824e-09
-9.22115e-08
3.02887e-09
-9.33169e-08
2.77177e-09
-9.43178e-08
2.51134e-09
-9.52128e-08
2.24782e-09
-9.60009e-08
1.98145e-09
-9.6681e-08
1.71248e-09
-9.72523e-08
1.44115e-09
-9.77139e-08
1.16769e-09
-9.8065e-08
8.92361e-10
-9.83051e-08
6.15429e-10
-9.84337e-08
3.37161e-10
-9.84503e-08
5.78227e-11
-9.83546e-08
-2.22321e-10
-9.81466e-08
-5.02997e-10
-9.7826e-08
-7.83926e-10
-9.7393e-08
-1.06482e-09
-9.68478e-08
-1.34538e-09
-9.61905e-08
-1.62531e-09
-9.54217e-08
-1.9043e-09
-9.45418e-08
-2.18204e-09
-9.35516e-08
-2.45821e-09
-9.24517e-08
-2.73249e-09
-9.12431e-08
-3.00456e-09
-8.99269e-08
-3.27412e-09
-8.85041e-08
-3.54082e-09
-8.69761e-08
-3.80433e-09
-8.53444e-08
-4.06433e-09
-8.36104e-08
-4.32046e-09
-8.1776e-08
-4.57239e-09
-7.98428e-08
-4.81978e-09
-7.78129e-08
-5.0623e-09
-7.56884e-08
-5.29961e-09
-7.34714e-08
-5.53138e-09
-7.11644e-08
-5.75729e-09
-6.87698e-08
-5.97702e-09
-6.62901e-08
-6.19026e-09
-6.37281e-08
-6.39669e-09
-6.10867e-08
-6.59603e-09
-5.83687e-08
-6.78799e-09
-5.55773e-08
-6.97229e-09
-5.27157e-08
-7.14859e-09
-4.97875e-08
-7.31649e-09
-4.67962e-08
-7.47541e-09
-4.37461e-08
-7.62451e-09
-4.06418e-08
-7.76249e-09
-3.74891e-08
-7.8873e-09
-3.42948e-08
-7.99578e-09
-3.10679e-08
-8.08313e-09
-2.782e-08
-8.14227e-09
-2.45667e-08
-8.16303e-09
-2.13288e-08
-8.13136e-09
-1.8134e-08
-8.02858e-09
-1.50183e-08
-7.83098e-09
-1.20273e-08
-7.51015e-09
-9.217e-09
-7.03454e-09
-6.65303e-09
-6.37295e-09
-4.40822e-09
-5.50104e-09
-2.55753e-09
-4.41201e-09
-1.17084e-09
-3.13168e-09
-3.04732e-10
-1.74186e-09
-4.34198e-10
-3.9631e-10
7.92667e-10
-1.46901e-09
2.72164e-09
-3.12847e-09
4.64366e-09
-5.29261e-09
6.37319e-09
-7.87737e-09
7.84011e-09
-1.08004e-08
9.01952e-09
-1.39849e-08
9.91998e-09
-1.7362e-08
1.05721e-08
-2.08734e-08
1.10166e-08
-2.44714e-08
1.12952e-08
-2.81181e-08
1.14459e-08
-3.17844e-08
1.15007e-08
-3.54483e-08
1.14848e-08
-3.90933e-08
1.14173e-08
-4.27067e-08
1.13121e-08
-4.62792e-08
1.11788e-08
-4.98033e-08
1.10239e-08
-5.3273e-08
1.08515e-08
-5.66832e-08
1.06645e-08
-6.00295e-08
1.04644e-08
-6.33079e-08
1.02524e-08
-6.65145e-08
1.00291e-08
-6.96459e-08
9.79505e-09
-7.26985e-08
9.5505e-09
-7.56691e-08
9.29576e-09
-7.85545e-08
9.03107e-09
-8.13516e-08
8.75669e-09
-8.40573e-08
8.47286e-09
-8.66687e-08
8.17985e-09
-8.9183e-08
7.87793e-09
-9.15974e-08
7.56742e-09
-9.39094e-08
7.24863e-09
-9.61163e-08
6.92185e-09
-9.82159e-08
6.58743e-09
-1.00206e-07
6.24568e-09
-1.02084e-07
5.89697e-09
-1.03847e-07
5.54164e-09
-1.05495e-07
5.18004e-09
-1.07026e-07
4.81253e-09
-1.08436e-07
4.43946e-09
-1.09726e-07
4.06119e-09
-1.10892e-07
3.67806e-09
-1.11935e-07
3.29045e-09
-1.12852e-07
2.89871e-09
-1.13643e-07
2.5032e-09
-1.14306e-07
2.10426e-09
-1.14841e-07
1.70226e-09
-1.15246e-07
1.29759e-09
-1.15521e-07
8.90616e-10
-1.15666e-07
4.81741e-10
-1.15679e-07
7.13515e-11
-1.15561e-07
-3.40156e-10
-1.15312e-07
-7.52375e-10
-1.14931e-07
-1.16489e-09
-1.14418e-07
-1.57728e-09
-1.13775e-07
-1.98912e-09
-1.13e-07
-2.39996e-09
-1.12095e-07
-2.80936e-09
-1.1106e-07
-3.21687e-09
-1.09896e-07
-3.62202e-09
-1.08604e-07
-4.02436e-09
-1.07186e-07
-4.42342e-09
-1.05641e-07
-4.81872e-09
-1.03972e-07
-5.20979e-09
-1.0218e-07
-5.59614e-09
-1.00267e-07
-5.97729e-09
-9.8235e-08
-6.35274e-09
-9.60854e-08
-6.722e-09
-9.38206e-08
-7.08459e-09
-9.14429e-08
-7.44001e-09
-8.89547e-08
-7.78777e-09
-8.63587e-08
-8.12741e-09
-8.36575e-08
-8.45844e-09
-8.08542e-08
-8.7804e-09
-7.79516e-08
-9.09283e-09
-7.4953e-08
-9.39528e-09
-7.18617e-08
-9.68732e-09
-6.86812e-08
-9.9685e-09
-6.54152e-08
-1.02383e-08
-6.20674e-08
-1.04963e-08
-5.86421e-08
-1.07418e-08
-5.51437e-08
-1.09738e-08
-5.15773e-08
-1.1191e-08
-4.79484e-08
-1.13914e-08
-4.42639e-08
-1.15718e-08
-4.0532e-08
-1.17277e-08
-3.67633e-08
-1.18519e-08
-3.29713e-08
-1.19342e-08
-2.9174e-08
-1.19603e-08
-2.5395e-08
-1.19104e-08
-2.1665e-08
-1.17585e-08
-1.80237e-08
-1.14722e-08
-1.4521e-08
-1.10129e-08
-1.12173e-08
-1.03382e-08
-8.18389e-09
-9.40635e-09
-5.50068e-09
-8.18427e-09
-3.25323e-09
-6.65948e-09
-1.5288e-09
-4.8561e-09
-4.13894e-10
-2.85675e-09
-8.48095e-10
-4.78711e-10
1.27137e-09
-1.74839e-09
3.99132e-09
-3.68098e-09
6.57624e-09
-6.16755e-09
8.85975e-09
-9.10677e-09
1.07793e-08
-1.24056e-08
1.23183e-08
-1.59804e-08
1.34948e-08
-1.97585e-08
1.43503e-08
-2.36785e-08
1.49366e-08
-2.76901e-08
1.53068e-08
-3.17535e-08
1.55093e-08
-3.58378e-08
1.55849e-08
-3.99191e-08
1.55662e-08
-4.39797e-08
1.54779e-08
-4.80056e-08
1.53381e-08
-5.19865e-08
1.51596e-08
-5.59138e-08
1.49512e-08
-5.97807e-08
1.47184e-08
-6.35815e-08
1.44652e-08
-6.7311e-08
1.41939e-08
-7.09647e-08
1.39061e-08
-7.45384e-08
1.36027e-08
-7.80278e-08
1.32845e-08
-8.14293e-08
1.2952e-08
-8.4739e-08
1.26055e-08
-8.79534e-08
1.22455e-08
-9.1069e-08
1.18723e-08
-9.40824e-08
1.14863e-08
-9.69904e-08
1.10878e-08
-9.97898e-08
1.06773e-08
-1.02478e-07
1.02552e-08
-1.05051e-07
9.82189e-09
-1.07507e-07
9.37779e-09
-1.09843e-07
8.92336e-09
-1.12056e-07
8.45907e-09
-1.14144e-07
7.9854e-09
-1.16106e-07
7.50281e-09
-1.17937e-07
7.01178e-09
-1.19638e-07
6.51279e-09
-1.21205e-07
6.00633e-09
-1.22636e-07
5.49286e-09
-1.23931e-07
4.97289e-09
-1.25087e-07
4.44689e-09
-1.26104e-07
3.91536e-09
-1.2698e-07
3.37876e-09
-1.27713e-07
2.8376e-09
-1.28303e-07
2.29237e-09
-1.28749e-07
1.74359e-09
-1.2905e-07
1.19176e-09
-1.29206e-07
6.37436e-10
-1.29216e-07
8.11298e-11
-1.29079e-07
-4.76615e-10
-1.28796e-07
-1.03524e-09
-1.28367e-07
-1.5942e-09
-1.27792e-07
-2.1529e-09
-1.2707e-07
-2.71078e-09
-1.26203e-07
-3.26723e-09
-1.2519e-07
-3.82166e-09
-1.24034e-07
-4.37347e-09
-1.22734e-07
-4.92204e-09
-1.21291e-07
-5.46674e-09
-1.19708e-07
-6.00695e-09
-1.17984e-07
-6.54203e-09
-1.16123e-07
-7.07132e-09
-1.14125e-07
-7.59419e-09
-1.11992e-07
-8.10997e-09
-1.09727e-07
-8.61802e-09
-1.07331e-07
-9.11766e-09
-1.04808e-07
-9.60824e-09
-1.02159e-07
-1.00891e-08
-9.93867e-08
-1.05596e-08
-9.6495e-08
-1.10191e-08
-9.34866e-08
-1.14669e-08
-9.03645e-08
-1.19024e-08
-8.71323e-08
-1.23251e-08
-8.37934e-08
-1.27342e-08
-8.03516e-08
-1.31291e-08
-7.68107e-08
-1.35094e-08
-7.31749e-08
-1.38741e-08
-6.94486e-08
-1.42227e-08
-6.56363e-08
-1.4554e-08
-6.17433e-08
-1.48668e-08
-5.77751e-08
-1.51592e-08
-5.37381e-08
-1.54283e-08
-4.964e-08
-1.56699e-08
-4.54901e-08
-1.58776e-08
-4.12999e-08
-1.6042e-08
-3.70845e-08
-1.61497e-08
-3.28631e-08
-1.61817e-08
-2.8661e-08
-1.61124e-08
-2.45111e-08
-1.59085e-08
-2.0455e-08
-1.55284e-08
-1.65451e-08
-1.49229e-08
-1.28451e-08
-1.40382e-08
-9.43062e-09
-1.28208e-08
-6.38808e-09
-1.12268e-08
-3.81368e-09
-9.23389e-09
-1.81205e-09
-6.85773e-09
-4.97039e-10
-4.17175e-09
-1.34514e-09
-5.39043e-10
1.81041e-09
-1.96086e-09
5.41312e-09
-4.10969e-09
8.72508e-09
-6.85451e-09
1.16046e-08
-1.00786e-08
1.40034e-08
-1.36786e-08
1.59183e-08
-1.75647e-08
1.73809e-08
-2.16602e-08
1.84458e-08
-2.59014e-08
1.91777e-08
-3.02364e-08
1.96418e-08
-3.46241e-08
1.9897e-08
-3.90326e-08
1.99933e-08
-4.34371e-08
1.99707e-08
-4.78188e-08
1.98596e-08
-5.21632e-08
1.96825e-08
-5.64591e-08
1.94555e-08
-6.06974e-08
1.91894e-08
-6.48706e-08
1.88917e-08
-6.89726e-08
1.85671e-08
-7.29976e-08
1.8219e-08
-7.69407e-08
1.78492e-08
-8.07972e-08
1.74592e-08
-8.45626e-08
1.705e-08
-8.82328e-08
1.66222e-08
-9.18037e-08
1.61764e-08
-9.52714e-08
1.57132e-08
-9.86322e-08
1.52331e-08
-1.01882e-07
1.47365e-08
-1.05019e-07
1.42239e-08
-1.08037e-07
1.3696e-08
-1.10935e-07
1.31531e-08
-1.13709e-07
1.25959e-08
-1.16356e-07
1.20249e-08
-1.18874e-07
1.14408e-08
-1.21259e-07
1.0844e-08
-1.23508e-07
1.02353e-08
-1.25621e-07
9.61517e-09
-1.27593e-07
8.9843e-09
-1.29424e-07
8.34328e-09
-1.3111e-07
7.69272e-09
-1.32651e-07
7.03326e-09
-1.34043e-07
6.36551e-09
-1.35286e-07
5.6901e-09
-1.36379e-07
5.00766e-09
-1.37319e-07
4.3188e-09
-1.38105e-07
3.62417e-09
-1.38737e-07
2.92439e-09
-1.39214e-07
2.22015e-09
-1.39534e-07
1.5121e-09
-1.39698e-07
8.00913e-10
-1.39704e-07
8.72736e-11
-1.39552e-07
-6.28123e-10
-1.39243e-07
-1.34457e-09
-1.38776e-07
-2.06134e-09
-1.38151e-07
-2.77772e-09
-1.37369e-07
-3.49295e-09
-1.3643e-07
-4.20628e-09
-1.35335e-07
-4.91696e-09
-1.34084e-07
-5.62421e-09
-1.32679e-07
-6.32725e-09
-1.3112e-07
-7.02528e-09
-1.2941e-07
-7.7175e-09
-1.27549e-07
-8.40309e-09
-1.25539e-07
-9.08124e-09
-1.23382e-07
-9.75111e-09
-1.2108e-07
-1.04119e-08
-1.18635e-07
-1.10627e-08
-1.1605e-07
-1.17027e-08
-1.13327e-07
-1.23311e-08
-1.10469e-07
-1.29471e-08
-1.07479e-07
-1.35498e-08
-1.0436e-07
-1.41383e-08
-1.01115e-07
-1.47119e-08
-9.77476e-08
-1.52697e-08
-9.42617e-08
-1.5811e-08
-9.06609e-08
-1.63349e-08
-8.69494e-08
-1.68407e-08
-8.31313e-08
-1.73274e-08
-7.92111e-08
-1.77943e-08
-7.51936e-08
-1.82402e-08
-7.10837e-08
-1.86638e-08
-6.68872e-08
-1.90634e-08
-6.261e-08
-1.94364e-08
-5.82592e-08
-1.97791e-08
-5.3843e-08
-2.00861e-08
-4.93713e-08
-2.03493e-08
-4.48566e-08
-2.05568e-08
-4.03144e-08
-2.06918e-08
-3.57652e-08
-2.07309e-08
-3.12351e-08
-2.06425e-08
-2.67579e-08
-2.03857e-08
-2.23768e-08
-1.99095e-08
-1.81458e-08
-1.91539e-08
-1.41312e-08
-1.80528e-08
-1.04123e-08
-1.65397e-08
-7.08205e-09
-1.45571e-08
-4.24667e-09
-1.20693e-08
-2.02641e-09
-9.07798e-09
-5.57593e-10
-5.64057e-09
-1.90272e-09
-5.82175e-10
2.39259e-09
-2.11792e-09
6.94886e-09
-4.43315e-09
1.10403e-08
-7.37976e-09
1.45512e-08
-1.08282e-08
1.74518e-08
-1.46661e-08
1.97562e-08
-1.87976e-08
2.15124e-08
-2.31425e-08
2.27907e-08
-2.76348e-08
2.367e-08
-3.22213e-08
2.42284e-08
-3.68602e-08
2.45359e-08
-4.15188e-08
2.46519e-08
-4.6172e-08
2.46238e-08
-5.08004e-08
2.4488e-08
-5.53891e-08
2.42713e-08
-5.99264e-08
2.39928e-08
-6.44028e-08
2.36658e-08
-6.88105e-08
2.32994e-08
-7.31429e-08
2.28995e-08
-7.7394e-08
2.24701e-08
-8.15584e-08
2.20136e-08
-8.56312e-08
2.1532e-08
-8.96077e-08
2.10264e-08
-9.34833e-08
2.04978e-08
-9.72538e-08
1.99469e-08
-1.00915e-07
1.93745e-08
-1.04463e-07
1.87811e-08
-1.07894e-07
1.81675e-08
-1.11204e-07
1.75342e-08
-1.1439e-07
1.68819e-08
-1.17449e-07
1.62113e-08
-1.20376e-07
1.5523e-08
-1.23169e-07
1.48179e-08
-1.25824e-07
1.40965e-08
-1.2834e-07
1.33597e-08
-1.30713e-07
1.26081e-08
-1.3294e-07
1.18426e-08
-1.3502e-07
1.10639e-08
-1.36949e-07
1.02728e-08
-1.38727e-07
9.46999e-09
-1.4035e-07
8.65626e-09
-1.41817e-07
7.8324e-09
-1.43126e-07
6.99917e-09
-1.44275e-07
6.15734e-09
-1.45264e-07
5.30768e-09
-1.46091e-07
4.45099e-09
-1.46755e-07
3.58807e-09
-1.47254e-07
2.71972e-09
-1.47589e-07
1.84677e-09
-1.47758e-07
9.70051e-10
-1.47761e-07
9.03943e-11
-1.47598e-07
-7.91338e-10
-1.47268e-07
-1.67427e-09
-1.46772e-07
-2.55753e-09
-1.4611e-07
-3.44022e-09
-1.45281e-07
-4.32141e-09
-1.44287e-07
-5.2002e-09
-1.43129e-07
-6.07565e-09
-1.41806e-07
-6.94682e-09
-1.4032e-07
-7.81274e-09
-1.38673e-07
-8.67245e-09
-1.36866e-07
-9.52495e-09
-1.349e-07
-1.03693e-08
-1.32777e-07
-1.12043e-08
-1.30498e-07
-1.20292e-08
-1.28067e-07
-1.28429e-08
-1.25486e-07
-1.36442e-08
-1.22756e-07
-1.44323e-08
-1.19881e-07
-1.52061e-08
-1.16864e-07
-1.59645e-08
-1.13707e-07
-1.67066e-08
-1.10414e-07
-1.74312e-08
-1.06989e-07
-1.81374e-08
-1.03434e-07
-1.88242e-08
-9.97545e-08
-1.94907e-08
-9.59537e-08
-2.01357e-08
-9.20361e-08
-2.07583e-08
-8.80062e-08
-2.13574e-08
-8.38687e-08
-2.19319e-08
-7.96286e-08
-2.24803e-08
-7.52913e-08
-2.30011e-08
-7.08627e-08
-2.3492e-08
-6.63493e-08
-2.39498e-08
-6.17584e-08
-2.437e-08
-5.70987e-08
-2.47458e-08
-5.23805e-08
-2.50674e-08
-4.76166e-08
-2.53206e-08
-4.28233e-08
-2.54851e-08
-3.80213e-08
-2.5533e-08
-3.32373e-08
-2.54265e-08
-2.85059e-08
-2.51171e-08
-2.3871e-08
-2.45443e-08
-1.93881e-08
-2.36368e-08
-1.51257e-08
-2.23152e-08
-1.11669e-08
-2.04985e-08
-7.61038e-09
-1.81135e-08
-4.57161e-09
-1.5108e-08
-2.18384e-09
-1.14658e-08
-6.00397e-10
-7.22401e-09
-2.50312e-09
-6.12292e-10
3.00488e-09
-2.23185e-09
8.56841e-09
-4.67274e-09
1.34812e-08
-7.77462e-09
1.7653e-08
-1.13976e-08
2.10748e-08
-1.54218e-08
2.37803e-08
-1.97459e-08
2.58366e-08
-2.42863e-08
2.73311e-08
-2.8975e-08
2.83587e-08
-3.37576e-08
2.9011e-08
-3.85915e-08
2.93698e-08
-4.34436e-08
2.95041e-08
-4.82887e-08
2.94689e-08
-5.3107e-08
2.93063e-08
-5.78834e-08
2.90477e-08
-6.2606e-08
2.87153e-08
-6.7265e-08
2.83248e-08
-7.18524e-08
2.78868e-08
-7.63612e-08
2.74084e-08
-8.07853e-08
2.68942e-08
-8.51191e-08
2.63474e-08
-8.93574e-08
2.57703e-08
-9.34953e-08
2.51642e-08
-9.7528e-08
2.45305e-08
-1.01451e-07
2.38701e-08
-1.0526e-07
2.31837e-08
-1.08952e-07
2.24723e-08
-1.12521e-07
2.17366e-08
-1.15964e-07
2.09774e-08
-1.19278e-07
2.01955e-08
-1.22458e-07
1.93918e-08
-1.25502e-07
1.8567e-08
-1.28406e-07
1.7722e-08
-1.31167e-07
1.68577e-08
-1.33783e-07
1.5975e-08
-1.36249e-07
1.50747e-08
-1.38565e-07
1.41579e-08
-1.40726e-07
1.32253e-08
-1.42731e-07
1.22779e-08
-1.44578e-07
1.13165e-08
-1.46264e-07
1.03423e-08
-1.47787e-07
9.35592e-09
-1.49146e-07
8.35845e-09
-1.5034e-07
7.35078e-09
-1.51366e-07
6.33384e-09
-1.52224e-07
5.30858e-09
-1.52911e-07
4.27595e-09
-1.53429e-07
3.23693e-09
-1.53774e-07
2.1925e-09
-1.53948e-07
1.14365e-09
-1.53949e-07
9.13749e-11
-1.53777e-07
-9.63292e-10
-1.53432e-07
-2.01931e-09
-1.52914e-07
-3.07564e-09
-1.52223e-07
-4.1312e-09
-1.51359e-07
-5.18491e-09
-1.50324e-07
-6.23568e-09
-1.49117e-07
-7.2824e-09
-1.4774e-07
-8.32395e-09
-1.46194e-07
-9.35918e-09
-1.44479e-07
-1.03869e-08
-1.42598e-07
-1.1406e-08
-1.40552e-07
-1.24153e-08
-1.38343e-07
-1.34135e-08
-1.35973e-07
-1.43996e-08
-1.33443e-07
-1.53721e-08
-1.30757e-07
-1.633e-08
-1.27918e-07
-1.72721e-08
-1.24927e-07
-1.8197e-08
-1.21788e-07
-1.91035e-08
-1.18504e-07
-1.99905e-08
-1.15078e-07
-2.08567e-08
-1.11515e-07
-2.17009e-08
-1.07817e-07
-2.25219e-08
-1.03989e-07
-2.33185e-08
-1.00036e-07
-2.40894e-08
-9.59605e-08
-2.48335e-08
-9.17685e-08
-2.55495e-08
-8.74645e-08
-2.62358e-08
-8.30539e-08
-2.68909e-08
-7.85422e-08
-2.75128e-08
-7.39357e-08
-2.80986e-08
-6.92409e-08
-2.86446e-08
-6.44656e-08
-2.91453e-08
-5.96187e-08
-2.95928e-08
-5.47107e-08
-2.99755e-08
-4.97547e-08
-3.02766e-08
-4.47671e-08
-3.04727e-08
-3.9769e-08
-3.0531e-08
-3.47875e-08
-3.0408e-08
-2.98575e-08
-3.00471e-08
-2.50238e-08
-2.93781e-08
-2.0343e-08
-2.83176e-08
-1.58859e-08
-2.67723e-08
-1.1739e-08
-2.46454e-08
-8.00648e-09
-2.18461e-08
-4.81146e-09
-1.83031e-08
-2.29749e-09
-1.39797e-08
-6.30168e-10
-8.89133e-09
-3.13329e-09
-6.33199e-10
3.63808e-09
-2.31398e-09
1.02492e-08
-4.84925e-09
1.60165e-08
-8.07007e-09
2.08739e-08
-1.18287e-08
2.48335e-08
-1.59989e-08
2.79505e-08
-2.04749e-08
3.03126e-08
-2.51698e-08
3.2026e-08
-3.00135e-08
3.32024e-08
-3.49506e-08
3.39481e-08
-3.99379e-08
3.43571e-08
-4.49419e-08
3.45081e-08
-4.99369e-08
3.44639e-08
-5.49034e-08
3.42728e-08
-5.9826e-08
3.39703e-08
-6.46926e-08
3.35819e-08
-6.94934e-08
3.31257e-08
-7.42202e-08
3.26136e-08
-7.88659e-08
3.2054e-08
-8.34241e-08
3.14524e-08
-8.78891e-08
3.08124e-08
-9.22555e-08
3.01367e-08
-9.65183e-08
2.9427e-08
-1.00673e-07
2.86848e-08
-1.04714e-07
2.79113e-08
-1.08637e-07
2.71074e-08
-1.12439e-07
2.62742e-08
-1.16115e-07
2.54126e-08
-1.19661e-07
2.45235e-08
-1.23074e-07
2.3608e-08
-1.26349e-07
2.26669e-08
-1.29483e-07
2.17013e-08
-1.32473e-07
2.07121e-08
-1.35316e-07
1.97005e-08
-1.38008e-07
1.86674e-08
-1.40548e-07
1.76139e-08
-1.42931e-07
1.6541e-08
-1.45155e-07
1.54498e-08
-1.47219e-07
1.43413e-08
-1.49119e-07
1.32167e-08
-1.50854e-07
1.2077e-08
-1.52421e-07
1.09234e-08
-1.53819e-07
9.75673e-09
-1.55047e-07
8.57827e-09
-1.56102e-07
7.38907e-09
-1.56984e-07
6.19024e-09
-1.57691e-07
4.98289e-09
-1.58222e-07
3.76817e-09
-1.58577e-07
2.5472e-09
-1.58754e-07
1.32116e-09
-1.58754e-07
9.12115e-11
-1.58576e-07
-1.14145e-09
-1.58219e-07
-2.37562e-09
-1.57685e-07
-3.61007e-09
-1.56973e-07
-4.84356e-09
-1.56083e-07
-6.07483e-09
-1.55016e-07
-7.30261e-09
-1.53773e-07
-8.52561e-09
-1.52354e-07
-9.74252e-09
-1.50761e-07
-1.0952e-08
-1.48995e-07
-1.21527e-08
-1.47058e-07
-1.33433e-08
-1.44951e-07
-1.45225e-08
-1.42676e-07
-1.56887e-08
-1.40235e-07
-1.68406e-08
-1.3763e-07
-1.79768e-08
-1.34864e-07
-1.90959e-08
-1.3194e-07
-2.01965e-08
-1.2886e-07
-2.12771e-08
-1.25627e-07
-2.23363e-08
-1.22245e-07
-2.33726e-08
-1.18717e-07
-2.43846e-08
-1.15047e-07
-2.5371e-08
-1.11239e-07
-2.63302e-08
-1.07296e-07
-2.72609e-08
-1.03224e-07
-2.81617e-08
-9.90263e-08
-2.9031e-08
-9.47084e-08
-2.98674e-08
-9.02752e-08
-3.0669e-08
-8.5732e-08
-3.14341e-08
-8.10847e-08
-3.21601e-08
-7.63396e-08
-3.28437e-08
-7.15035e-08
-3.34807e-08
-6.65842e-08
-3.40646e-08
-6.15908e-08
-3.45862e-08
-5.65341e-08
-3.50322e-08
-5.14272e-08
-3.53835e-08
-4.62868e-08
-3.56131e-08
-4.1134e-08
-3.56838e-08
-3.59961e-08
-3.55458e-08
-3.09086e-08
-3.51346e-08
-2.5917e-08
-3.43697e-08
-2.10791e-08
-3.31554e-08
-1.64678e-08
-3.13836e-08
-1.21729e-08
-2.89403e-08
-8.30317e-09
-2.57158e-08
-4.98823e-09
-2.1618e-08
-2.37943e-09
-1.65885e-08
-6.50886e-10
-1.06199e-08
-3.78418e-09
-6.47998e-10
4.28607e-09
-2.37399e-09
1.19752e-08
-4.9809e-09
1.86234e-08
-8.29379e-09
2.41867e-08
-1.21591e-08
2.86988e-08
-1.64455e-08
3.22369e-08
-2.10431e-08
3.49102e-08
-2.58624e-08
3.68452e-08
-3.08313e-08
3.81713e-08
-3.58932e-08
3.901e-08
-4.10041e-08
3.9468e-08
-4.61302e-08
3.96342e-08
-5.12459e-08
3.95795e-08
-5.63311e-08
3.9358e-08
-6.13707e-08
3.90098e-08
-6.63523e-08
3.85636e-08
-7.12663e-08
3.80396e-08
-7.61042e-08
3.74515e-08
-8.08588e-08
3.68087e-08
-8.55237e-08
3.61173e-08
-9.00931e-08
3.53818e-08
-9.45614e-08
3.4605e-08
-9.89235e-08
3.37891e-08
-1.03174e-07
3.29357e-08
-1.07309e-07
3.20462e-08
-1.11324e-07
3.11219e-08
-1.15214e-07
3.01639e-08
-1.18974e-07
2.91733e-08
-1.22602e-07
2.81512e-08
-1.26093e-07
2.70988e-08
-1.29443e-07
2.60171e-08
-1.32649e-07
2.49073e-08
-1.35707e-07
2.37705e-08
-1.38615e-07
2.2608e-08
-1.41369e-07
2.1421e-08
-1.43965e-07
2.02106e-08
-1.46402e-07
1.8978e-08
-1.48677e-07
1.77245e-08
-1.50787e-07
1.64514e-08
-1.5273e-07
1.51597e-08
-1.54504e-07
1.38508e-08
-1.56107e-07
1.2526e-08
-1.57536e-07
1.11863e-08
-1.58791e-07
9.83321e-09
-1.5987e-07
8.46785e-09
-1.60771e-07
7.09153e-09
-1.61494e-07
5.70554e-09
-1.62037e-07
4.31116e-09
-1.62399e-07
2.90971e-09
-1.62581e-07
1.50251e-09
-1.6258e-07
9.09128e-11
-1.62398e-07
-1.32372e-09
-1.62034e-07
-2.74002e-09
-1.61487e-07
-4.15658e-09
-1.60759e-07
-5.57198e-09
-1.59849e-07
-6.98479e-09
-1.58758e-07
-8.39355e-09
-1.57487e-07
-9.7968e-09
-1.56036e-07
-1.1193e-08
-1.54407e-07
-1.25807e-08
-1.52602e-07
-1.39584e-08
-1.50621e-07
-1.53244e-08
-1.48466e-07
-1.66772e-08
-1.46139e-07
-1.80153e-08
-1.43643e-07
-1.9337e-08
-1.40979e-07
-2.06407e-08
-1.3815e-07
-2.19248e-08
-1.35159e-07
-2.31876e-08
-1.32009e-07
-2.44276e-08
-1.28702e-07
-2.5643e-08
-1.25242e-07
-2.68322e-08
-1.21633e-07
-2.79936e-08
-1.17879e-07
-2.91256e-08
-1.13982e-07
-3.02265e-08
-1.09949e-07
-3.12946e-08
-1.05782e-07
-3.23283e-08
-1.01487e-07
-3.3326e-08
-9.70686e-08
-3.42857e-08
-9.25321e-08
-3.52056e-08
-8.78828e-08
-3.60834e-08
-8.31268e-08
-3.69161e-08
-7.82703e-08
-3.77001e-08
-7.33206e-08
-3.84304e-08
-6.82854e-08
-3.90998e-08
-6.31738e-08
-3.96977e-08
-5.79969e-08
-4.02092e-08
-5.27677e-08
-4.06126e-08
-4.75032e-08
-4.08777e-08
-4.22245e-08
-4.09625e-08
-3.69592e-08
-4.08111e-08
-3.17433e-08
-4.03505e-08
-2.66229e-08
-3.94901e-08
-2.16574e-08
-3.8121e-08
-1.69214e-08
-3.61196e-08
-1.25077e-08
-3.3354e-08
-8.52937e-09
-2.96941e-08
-5.12095e-09
-2.50264e-08
-2.43974e-09
-1.92697e-08
-6.65668e-10
-1.23939e-08
-4.44984e-09
-6.58941e-10
4.94501e-09
-2.4196e-09
1.37358e-08
-5.08262e-09
2.12864e-08
-8.4689e-09
2.7573e-08
-1.24205e-08
3.26504e-08
-1.68019e-08
3.66183e-08
-2.15002e-08
3.96084e-08
-2.64228e-08
4.17679e-08
-3.14962e-08
4.32447e-08
-3.66625e-08
4.41762e-08
-4.18769e-08
4.46824e-08
-4.71053e-08
4.48627e-08
-5.23217e-08
4.47959e-08
-5.75061e-08
4.45425e-08
-6.26432e-08
4.41469e-08
-6.77208e-08
4.36411e-08
-7.27288e-08
4.30476e-08
-7.76589e-08
4.23817e-08
-8.2504e-08
4.16537e-08
-8.72574e-08
4.08707e-08
-9.19132e-08
4.00376e-08
-9.64659e-08
3.91577e-08
-1.0091e-07
3.82333e-08
-1.05241e-07
3.72665e-08
-1.09454e-07
3.62588e-08
-1.13543e-07
3.52117e-08
-1.17506e-07
3.41264e-08
-1.21337e-07
3.30042e-08
-1.25032e-07
3.18465e-08
-1.28588e-07
3.06544e-08
-1.32e-07
2.94294e-08
-1.35265e-07
2.81726e-08
-1.3838e-07
2.68854e-08
-1.41341e-07
2.55692e-08
-1.44146e-07
2.42253e-08
-1.4679e-07
2.28551e-08
-1.49272e-07
2.14599e-08
-1.51589e-07
2.00411e-08
-1.53737e-07
1.86002e-08
-1.55716e-07
1.71384e-08
-1.57522e-07
1.56572e-08
-1.59155e-07
1.41581e-08
-1.60611e-07
1.26423e-08
-1.61889e-07
1.11114e-08
-1.62988e-07
9.56672e-09
-1.63906e-07
8.00973e-09
-1.64642e-07
6.44189e-09
-1.65196e-07
4.86465e-09
-1.65565e-07
3.2795e-09
-1.65751e-07
1.68792e-09
-1.65751e-07
9.14381e-11
-1.65567e-07
-1.50842e-09
-1.65197e-07
-3.1101e-09
-1.64641e-07
-4.71203e-09
-1.63901e-07
-6.31261e-09
-1.62975e-07
-7.91023e-09
-1.61865e-07
-9.50326e-09
-1.60572e-07
-1.109e-08
-1.59096e-07
-1.26689e-08
-1.57439e-07
-1.42381e-08
-1.55601e-07
-1.57959e-08
-1.53585e-07
-1.73406e-08
-1.51392e-07
-1.88704e-08
-1.49024e-07
-2.03836e-08
-1.46483e-07
-2.18783e-08
-1.43771e-07
-2.33527e-08