/*--------------------------------*- C++ -*----------------------------------*\
  =========                 |
  \\      /  F ield         | OpenFOAM: The Open Source CFD Toolbox
   \\    /   O peration     | Website:  https://openfoam.org
    \\  /    A nd           | Version:  7
     \\/     M anipulation  |
\*---------------------------------------------------------------------------*/
FoamFile
{
    version     2.0;
    format      ascii;
    class       volVectorField;
    location    "0.03125";
    object      U;
}
// * * * * * * * * * * * * * * * * * * * * * * * * * * * * * * * * * * * * * //

dimensions      [0 1 -1 0 0 0 0];

internalField   nonuniform List<vector> 
10000
(
(4.08296e-06 -4.99022e-06 0)
(8.20672e-06 -2.18097e-06 0)
(-1.07837e-06 3.63292e-06 0)
(-2.36853e-05 8.42456e-06 0)
(-5.8341e-05 1.21942e-05 0)
(-0.000102078 1.48977e-05 0)
(-0.000152618 1.674e-05 0)
(-0.00020784 1.79441e-05 0)
(-0.000266087 1.86768e-05 0)
(-0.000326115 1.90533e-05 0)
(-0.000387026 1.91789e-05 0)
(-0.000448207 1.91388e-05 0)
(-0.000509239 1.89893e-05 0)
(-0.000569836 1.87776e-05 0)
(-0.000629805 1.85412e-05 0)
(-0.000689026 1.82906e-05 0)
(-0.000747414 1.80174e-05 0)
(-0.000804893 1.77195e-05 0)
(-0.000861399 1.74034e-05 0)
(-0.000916879 1.70733e-05 0)
(-0.000971282 1.6732e-05 0)
(-0.00102456 1.63798e-05 0)
(-0.00107666 1.60137e-05 0)
(-0.00112752 1.56289e-05 0)
(-0.00117709 1.52236e-05 0)
(-0.00122533 1.48005e-05 0)
(-0.00127218 1.4364e-05 0)
(-0.00131759 1.39162e-05 0)
(-0.00136151 1.34556e-05 0)
(-0.00140389 1.29786e-05 0)
(-0.0014447 1.24829e-05 0)
(-0.00148387 1.19707e-05 0)
(-0.00152138 1.14469e-05 0)
(-0.00155716 1.09135e-05 0)
(-0.0015912 1.0368e-05 0)
(-0.00162344 9.80807e-06 0)
(-0.00165385 9.23469e-06 0)
(-0.00168238 8.6499e-06 0)
(-0.00170902 8.0548e-06 0)
(-0.00173372 7.44986e-06 0)
(-0.00175646 6.83594e-06 0)
(-0.0017772 6.21384e-06 0)
(-0.00179593 5.58353e-06 0)
(-0.00181261 4.94517e-06 0)
(-0.00182723 4.30002e-06 0)
(-0.00183976 3.64949e-06 0)
(-0.00185019 2.99404e-06 0)
(-0.0018585 2.33327e-06 0)
(-0.00186467 1.6672e-06 0)
(-0.0018687 9.96965e-07 0)
(-0.00187057 3.24029e-07 0)
(-0.00187027 -3.50924e-07 0)
(-0.00186779 -1.02798e-06 0)
(-0.00186314 -1.70715e-06 0)
(-0.0018563 -2.38784e-06 0)
(-0.00184729 -3.06893e-06 0)
(-0.00183609 -3.74936e-06 0)
(-0.00182271 -4.42837e-06 0)
(-0.00180717 -5.10516e-06 0)
(-0.00178946 -5.77881e-06 0)
(-0.00176961 -6.44877e-06 0)
(-0.00174762 -7.11469e-06 0)
(-0.00172352 -7.77583e-06 0)
(-0.00169733 -8.43109e-06 0)
(-0.00166906 -9.07937e-06 0)
(-0.00163873 -9.71976e-06 0)
(-0.00160639 -1.03513e-05 0)
(-0.00157206 -1.09731e-05 0)
(-0.00153577 -1.15846e-05 0)
(-0.00149756 -1.21854e-05 0)
(-0.00145746 -1.2774e-05 0)
(-0.00141552 -1.33489e-05 0)
(-0.00137179 -1.3909e-05 0)
(-0.0013263 -1.44536e-05 0)
(-0.00127911 -1.49813e-05 0)
(-0.00123028 -1.54909e-05 0)
(-0.00117986 -1.59819e-05 0)
(-0.0011279 -1.64546e-05 0)
(-0.00107446 -1.69092e-05 0)
(-0.0010196 -1.73454e-05 0)
(-0.000963388 -1.77634e-05 0)
(-0.000905875 -1.81642e-05 0)
(-0.000847128 -1.8548e-05 0)
(-0.000787211 -1.8914e-05 0)
(-0.000726198 -1.92601e-05 0)
(-0.000664179 -1.95823e-05 0)
(-0.000601262 -1.98727e-05 0)
(-0.000537602 -2.01164e-05 0)
(-0.000473414 -2.02874e-05 0)
(-0.000409015 -2.03451e-05 0)
(-0.000344866 -2.02299e-05 0)
(-0.000281635 -1.98578e-05 0)
(-0.00022026 -1.91127e-05 0)
(-0.000162035 -1.78397e-05 0)
(-0.00010868 -1.5846e-05 0)
(-6.23887e-05 -1.29173e-05 0)
(-2.57789e-05 -8.87668e-06 0)
(-1.59886e-06 -3.73169e-06 0)
(8.17419e-06 1.84249e-06 0)
(4.6575e-06 4.65433e-06 0)
(1.78437e-06 -8.26456e-06 0)
(-8.48053e-06 7.88926e-06 0)
(-4.79108e-05 3.34919e-05 0)
(-0.000116898 5.70756e-05 0)
(-0.00021211 7.68239e-05 0)
(-0.000328853 9.20914e-05 0)
(-0.00046219 0.00010314 0)
(-0.000607596 0.00011067 0)
(-0.000761207 0.000115454 0)
(-0.000919967 0.00011819 0)
(-0.0010816 0.000119444 0)
(-0.00124442 0.000119658 0)
(-0.00140726 0.000119151 0)
(-0.00156926 0.000118165 0)
(-0.00172985 0.000116863 0)
(-0.0018886 0.000115342 0)
(-0.00204522 0.000113653 0)
(-0.00219946 0.000111822 0)
(-0.00235113 0.000109871 0)
(-0.00250005 0.000107808 0)
(-0.00264607 0.000105638 0)
(-0.00278905 0.000103367 0)
(-0.00292882 0.000100998 0)
(-0.00306524 9.85249e-05 0)
(-0.00319818 9.59446e-05 0)
(-0.00332748 9.32593e-05 0)
(-0.00345303 9.04751e-05 0)
(-0.00357468 8.75977e-05 0)
(-0.00369229 8.46287e-05 0)
(-0.00380574 8.15657e-05 0)
(-0.00391492 7.84084e-05 0)
(-0.00401969 7.51618e-05 0)
(-0.00411994 7.18334e-05 0)
(-0.00421556 6.84269e-05 0)
(-0.00430644 6.49419e-05 0)
(-0.00439248 6.13797e-05 0)
(-0.00447358 5.77447e-05 0)
(-0.00454965 5.40422e-05 0)
(-0.00462059 5.02756e-05 0)
(-0.00468633 4.64485e-05 0)
(-0.00474679 4.2565e-05 0)
(-0.00480189 3.86294e-05 0)
(-0.00485156 3.46448e-05 0)
(-0.00489576 3.0615e-05 0)
(-0.0049344 2.65444e-05 0)
(-0.00496745 2.24371e-05 0)
(-0.00499486 1.82959e-05 0)
(-0.00501657 1.41235e-05 0)
(-0.00503257 9.92375e-06 0)
(-0.00504281 5.7019e-06 0)
(-0.00504727 1.46261e-06 0)
(-0.00504592 -2.7908e-06 0)
(-0.00503875 -7.05555e-06 0)
(-0.00502576 -1.13283e-05 0)
(-0.00500693 -1.56044e-05 0)
(-0.00498227 -1.98788e-05 0)
(-0.00495179 -2.41464e-05 0)
(-0.0049155 -2.84026e-05 0)
(-0.00487342 -3.26427e-05 0)
(-0.00482558 -3.68612e-05 0)
(-0.00477202 -4.10534e-05 0)
(-0.00471277 -4.5215e-05 0)
(-0.00464789 -4.93411e-05 0)
(-0.00457742 -5.34263e-05 0)
(-0.00450144 -5.74652e-05 0)
(-0.00442 -6.14528e-05 0)
(-0.00433318 -6.53835e-05 0)
(-0.00424106 -6.92519e-05 0)
(-0.00414374 -7.30529e-05 0)
(-0.00404131 -7.67813e-05 0)
(-0.00393389 -8.04309e-05 0)
(-0.00382156 -8.39956e-05 0)
(-0.00370447 -8.74701e-05 0)
(-0.00358272 -9.08493e-05 0)
(-0.00345646 -9.41275e-05 0)
(-0.00332581 -9.72992e-05 0)
(-0.00319093 -0.000100361 0)
(-0.00305197 -0.00010331 0)
(-0.00290909 -0.000106144 0)
(-0.00276244 -0.00010886 0)
(-0.0026122 -0.000111455 0)
(-0.00245852 -0.000113928 0)
(-0.0023016 -0.00011627 0)
(-0.00214164 -0.000118471 0)
(-0.00197887 -0.000120505 0)
(-0.00181357 -0.000122334 0)
(-0.00164609 -0.000123892 0)
(-0.00147692 -0.000125075 0)
(-0.0013067 -0.000125719 0)
(-0.00113637 -0.000125585 0)
(-0.000967196 -0.000124336 0)
(-0.000800966 -0.000121518 0)
(-0.000640078 -0.000116545 0)
(-0.000487679 -0.000108704 0)
(-0.000347736 -9.72041e-05 0)
(-0.000224996 -8.13006e-05 0)
(-0.000124653 -6.06047e-05 0)
(-5.15808e-05 -3.56657e-05 0)
(-9.36703e-06 -9.40086e-06 0)
(1.84952e-06 8.17655e-06 0)
(-3.01831e-06 1.58111e-07 0)
(-3.28803e-05 4.77564e-05 0)
(-0.00010755 0.000108101 0)
(-0.000222424 0.000164842 0)
(-0.000372424 0.00021334 0)
(-0.000551699 0.000251928 0)
(-0.00075409 0.000280691 0)
(-0.00097364 0.000300889 0)
(-0.0012052 0.00031416 0)
(-0.00144457 0.000322089 0)
(-0.0016885 0.000326059 0)
(-0.00193451 0.000327174 0)
(-0.00218083 0.00032627 0)
(-0.00242614 0.000323953 0)
(-0.0026695 0.000320649 0)
(-0.00291023 0.000316638 0)
(-0.00314782 0.000312093 0)
(-0.00338187 0.000307121 0)
(-0.00361204 0.000301785 0)
(-0.00383806 0.00029612 0)
(-0.00405967 0.000290142 0)
(-0.00427663 0.000283867 0)
(-0.00448871 0.000277303 0)
(-0.00469567 0.000270454 0)
(-0.0048973 0.000263319 0)
(-0.0050934 0.000255902 0)
(-0.00528375 0.000248212 0)
(-0.00546814 0.000240257 0)
(-0.00564637 0.000232044 0)
(-0.00581826 0.000223576 0)
(-0.00598361 0.000214861 0)
(-0.00614225 0.000205907 0)
(-0.00629399 0.000196726 0)
(-0.00643868 0.000187327 0)
(-0.00657614 0.000177716 0)
(-0.00670623 0.0001679 0)
(-0.0068288 0.00015789 0)
(-0.00694372 0.000147699 0)
(-0.00705084 0.000137335 0)
(-0.00715005 0.000126809 0)
(-0.00724123 0.000116131 0)
(-0.00732427 0.000105311 0)
(-0.00739908 9.43599e-05 0)
(-0.00746555 8.32869e-05 0)
(-0.0075236 7.21031e-05 0)
(-0.00757316 6.08189e-05 0)
(-0.00761415 4.94433e-05 0)
(-0.00764651 3.79858e-05 0)
(-0.00767019 2.64573e-05 0)
(-0.00768515 1.487e-05 0)
(-0.00769133 3.23572e-06 0)
(-0.00768871 -8.43535e-06 0)
(-0.00767727 -2.01332e-05 0)
(-0.007657 -3.18469e-05 0)
(-0.0076279 -4.35645e-05 0)
(-0.00758998 -5.52733e-05 0)
(-0.00754324 -6.69604e-05 0)
(-0.00748771 -7.86127e-05 0)
(-0.00742343 -9.02164e-05 0)
(-0.00735044 -0.000101758 0)
(-0.0072688 -0.000113223 0)
(-0.00717856 -0.000124599 0)
(-0.00707982 -0.000135873 0)
(-0.00697265 -0.00014703 0)
(-0.00685714 -0.000158057 0)
(-0.0067334 -0.000168938 0)
(-0.00660154 -0.00017966 0)
(-0.0064617 -0.000190207 0)
(-0.00631402 -0.000200566 0)
(-0.00615863 -0.000210721 0)
(-0.00599571 -0.00022066 0)
(-0.00582542 -0.000230366 0)
(-0.00564793 -0.000239827 0)
(-0.00546344 -0.000249029 0)
(-0.00527214 -0.000257958 0)
(-0.00507425 -0.000266602 0)
(-0.00486998 -0.000274949 0)
(-0.00465955 -0.000282991 0)
(-0.00444322 -0.000290717 0)
(-0.00422121 -0.000298118 0)
(-0.00399379 -0.000305182 0)
(-0.00376123 -0.000311891 0)
(-0.00352382 -0.000318218 0)
(-0.00328189 -0.000324116 0)
(-0.00303583 -0.000329509 0)
(-0.00278608 -0.000334273 0)
(-0.00253324 -0.000338213 0)
(-0.00227808 -0.000341031 0)
(-0.00202163 -0.000342283 0)
(-0.00176531 -0.000341341 0)
(-0.00151104 -0.000337342 0)
(-0.00126143 -0.000329163 0)
(-0.00101989 -0.00031541 0)
(-0.000790756 -0.000294472 0)
(-0.000579359 -0.000264686 0)
(-0.000391878 -0.000224676 0)
(-0.000234839 -0.000174029 0)
(-0.0001142 -0.000114392 0)
(-3.55406e-05 -5.1604e-05 0)
(-3.70049e-06 -1.57217e-06 0)
(-8.14835e-06 2.28439e-05 0)
(-5.72954e-05 0.000117318 0)
(-0.000165731 0.000223342 0)
(-0.000322967 0.000321746 0)
(-0.000521241 0.000406147 0)
(-0.000753872 0.00047391 0)
(-0.00101373 0.000525182 0)
(-0.00129401 0.000561818 0)
(-0.00158883 0.000586362 0)
(-0.0018933 0.000601404 0)
(-0.00220354 0.000609266 0)
(-0.00251657 0.000611848 0)
(-0.00283016 0.000610627 0)
(-0.00314265 0.000606692 0)
(-0.00345282 0.000600813 0)
(-0.00375976 0.00059351 0)
(-0.00406279 0.000585126 0)
(-0.00436137 0.000575884 0)
(-0.00465505 0.000565914 0)
(-0.00494344 0.000555292 0)
(-0.0052262 0.000544063 0)
(-0.00550301 0.000532257 0)
(-0.00577355 0.000519894 0)
(-0.00603755 0.000506985 0)
(-0.00629472 0.000493541 0)
(-0.00654479 0.000479572 0)
(-0.00678748 0.00046509 0)
(-0.00702252 0.000450109 0)
(-0.00724968 0.000434639 0)
(-0.0074687 0.000418694 0)
(-0.00767934 0.000402289 0)
(-0.00788138 0.000385443 0)
(-0.00807459 0.000368172 0)
(-0.00825876 0.000350492 0)
(-0.00843369 0.000332417 0)
(-0.00859918 0.000313966 0)
(-0.00875505 0.000295159 0)
(-0.00890112 0.000276014 0)
(-0.00903724 0.000256551 0)
(-0.00916324 0.000236788 0)
(-0.00927898 0.000216745 0)
(-0.00938432 0.000196438 0)
(-0.00947915 0.000175889 0)
(-0.00956333 0.000155115 0)
(-0.00963677 0.000134137 0)
(-0.00969936 0.000112973 0)
(-0.00975102 9.16399e-05 0)
(-0.00979167 7.01585e-05 0)
(-0.00982125 4.85496e-05 0)
(-0.00983969 2.68343e-05 0)
(-0.00984696 5.03355e-06 0)
(-0.00984301 -1.68324e-05 0)
(-0.00982782 -3.8743e-05 0)
(-0.00980139 -6.06768e-05 0)
(-0.00976371 -8.2611e-05 0)
(-0.0097148 -0.000104523 0)
(-0.00965466 -0.000126388 0)
(-0.00958335 -0.000148183 0)
(-0.0095009 -0.000169882 0)
(-0.00940737 -0.00019146 0)
(-0.00930285 -0.000212892 0)
(-0.0091874 -0.000234153 0)
(-0.00906113 -0.000255219 0)
(-0.00892415 -0.000276062 0)
(-0.00877658 -0.000296658 0)
(-0.00861856 -0.000316978 0)
(-0.00845023 -0.000336997 0)
(-0.00827177 -0.000356688 0)
(-0.00808334 -0.000376024 0)
(-0.00788514 -0.000394978 0)
(-0.00767736 -0.000413526 0)
(-0.00746023 -0.00043164 0)
(-0.00723398 -0.000449296 0)
(-0.00699883 -0.000466469 0)
(-0.00675505 -0.000483134 0)
(-0.0065029 -0.000499269 0)
(-0.00624266 -0.000514851 0)
(-0.00597461 -0.000529861 0)
(-0.00569907 -0.000544276 0)
(-0.00541634 -0.000558074 0)
(-0.00512676 -0.000571224 0)
(-0.00483068 -0.000583687 0)
(-0.00452851 -0.000595399 0)
(-0.00422066 -0.000606263 0)
(-0.00390766 -0.000616122 0)
(-0.00359012 -0.000624734 0)
(-0.00326881 -0.000631725 0)
(-0.00294474 -0.000636534 0)
(-0.00261924 -0.000638354 0)
(-0.0022941 -0.000636055 0)
(-0.0019717 -0.000628128 0)
(-0.00165518 -0.000612635 0)
(-0.0013486 -0.000587239 0)
(-0.00105703 -0.000549316 0)
(-0.0007866 -0.000496251 0)
(-0.000544352 -0.000426005 0)
(-0.000337696 -0.000338085 0)
(-0.000173614 -0.000234979 0)
(-6.03261e-05 -0.000124541 0)
(-8.78778e-06 -2.56394e-05 0)
(-1.2121e-05 5.74019e-05 0)
(-7.7648e-05 0.000213365 0)
(-0.000215587 0.000374099 0)
(-0.000409595 0.00052043 0)
(-0.000649191 0.000645143 0)
(-0.000926536 0.000745515 0)
(-0.00123372 0.000822033 0)
(-0.00156337 0.000877277 0)
(-0.00190911 0.000914764 0)
(-0.00226562 0.000938123 0)
(-0.00262867 0.000950644 0)
(-0.00299494 0.000955084 0)
(-0.00336192 0.000953616 0)
(-0.00372772 0.000947871 0)
(-0.0040909 0.000939012 0)
(-0.00445041 0.000927845 0)
(-0.00480541 0.000914912 0)
(-0.00515523 0.000900561 0)
(-0.00549934 0.000885013 0)
(-0.00583727 0.000868405 0)
(-0.0061686 0.000850823 0)
(-0.00649294 0.000832318 0)
(-0.00680992 0.000812924 0)
(-0.0071192 0.000792663 0)
(-0.00742045 0.000771557 0)
(-0.00771333 0.00074963 0)
(-0.00799753 0.000726901 0)
(-0.00827274 0.000703391 0)
(-0.00853866 0.000679116 0)
(-0.00879502 0.0006541 0)
(-0.00904152 0.000628369 0)
(-0.0092779 0.00060195 0)
(-0.00950391 0.000574868 0)
(-0.00971929 0.000547149 0)
(-0.00992381 0.00051882 0)
(-0.0101173 0.000489909 0)
(-0.0102994 0.000460447 0)
(-0.01047 0.000430463 0)
(-0.010629 0.000399985 0)
(-0.0107761 0.000369044 0)
(-0.0109111 0.000337667 0)
(-0.0110339 0.000305886 0)
(-0.0111444 0.000273729 0)
(-0.0112425 0.000241228 0)
(-0.0113279 0.00020841 0)
(-0.0114006 0.000175305 0)
(-0.0114605 0.000141944 0)
(-0.0115075 0.000108356 0)
(-0.0115416 7.45754e-05 0)
(-0.0115626 4.06338e-05 0)
(-0.0115705 6.56359e-06 0)
(-0.0115653 -2.76028e-05 0)
(-0.0115469 -6.18319e-05 0)
(-0.0115154 -9.60893e-05 0)
(-0.0114707 -0.00013034 0)
(-0.0114129 -0.000164548 0)
(-0.011342 -0.000198677 0)
(-0.011258 -0.00023269 0)
(-0.0111609 -0.000266547 0)
(-0.011051 -0.00030021 0)
(-0.0109282 -0.000333642 0)
(-0.0107926 -0.000366803 0)
(-0.0106444 -0.000399654 0)
(-0.0104837 -0.000432154 0)
(-0.0103106 -0.000464263 0)
(-0.0101253 -0.00049594 0)
(-0.00992803 -0.000527144 0)
(-0.00971888 -0.000557833 0)
(-0.00949811 -0.000587967 0)
(-0.00926592 -0.000617506 0)
(-0.00902257 -0.000646408 0)
(-0.00876829 -0.000674635 0)
(-0.00850337 -0.000702146 0)
(-0.00822807 -0.000728905 0)
(-0.00794269 -0.000754873 0)
(-0.00764755 -0.000780013 0)
(-0.00734298 -0.00080429 0)
(-0.0070293 -0.00082767 0)
(-0.00670688 -0.000850115 0)
(-0.00637609 -0.000871582 0)
(-0.00603734 -0.000892019 0)
(-0.00569104 -0.000911351 0)
(-0.00533767 -0.000929474 0)
(-0.00497775 -0.00094622 0)
(-0.0046119 -0.000961336 0)
(-0.00424085 -0.000974434 0)
(-0.00386553 -0.000984927 0)
(-0.00348711 -0.000991957 0)
(-0.00310714 -0.0009943 0)
(-0.00272767 -0.000990274 0)
(-0.00235136 -0.000977656 0)
(-0.0019817 -0.000953643 0)
(-0.00162314 -0.0009149 0)
(-0.00128118 -0.000857742 0)
(-0.000962443 -0.000778551 0)
(-0.000674592 -0.000674512 0)
(-0.000425813 -0.000544759 0)
(-0.000224228 -0.00039197 0)
(-8.09066e-05 -0.000224651 0)
(-1.27667e-05 -6.20351e-05 0)
(-1.49996e-05 0.000101605 0)
(-9.33868e-05 0.000331505 0)
(-0.000255436 0.000555088 0)
(-0.00047995 0.000754572 0)
(-0.000753747 0.000923135 0)
(-0.00106779 0.00105856 0)
(-0.00141342 0.00116209 0)
(-0.00178274 0.00123726 0)
(-0.00216902 0.00128866 0)
(-0.00256671 0.00132102 0)
(-0.00297133 0.00133863 0)
(-0.00337938 0.00134514 0)
(-0.00378816 0.00134343 0)
(-0.00419564 0.00133568 0)
(-0.00460027 0.00132351 0)
(-0.00500084 0.00130801 0)
(-0.00539643 0.00128996 0)
(-0.00578629 0.00126983 0)
(-0.00616981 0.00124796 0)
(-0.00654645 0.00122455 0)
(-0.00691572 0.00119973 0)
(-0.00727719 0.00117359 0)
(-0.00763044 0.00114617 0)
(-0.00797508 0.00111752 0)
(-0.00831073 0.00108767 0)
(-0.00863702 0.00105665 0)
(-0.0089536 0.0010245 0)
(-0.00926013 0.000991251 0)
(-0.00955628 0.000956923 0)
(-0.00984173 0.000921554 0)
(-0.0101162 0.000885181 0)
(-0.0103793 0.000847839 0)
(-0.0106308 0.000809567 0)
(-0.0108705 0.0007704 0)
(-0.011098 0.000730379 0)
(-0.0113131 0.000689545 0)
(-0.0115157 0.00064794 0)
(-0.0117054 0.000605604 0)
(-0.011882 0.000562579 0)
(-0.0120454 0.000518905 0)
(-0.0121954 0.000474624 0)
(-0.0123318 0.000429777 0)
(-0.0124544 0.000384408 0)
(-0.0125631 0.000338559 0)
(-0.0126577 0.00029227 0)
(-0.0127382 0.000245583 0)
(-0.0128044 0.000198541 0)
(-0.0128562 0.000151189 0)
(-0.0128936 0.000103571 0)
(-0.0129164 5.57337e-05 0)
(-0.0129247 7.72201e-06 0)
(-0.0129184 -4.04176e-05 0)
(-0.0128974 -8.86375e-05 0)
(-0.0128618 -0.000136889 0)
(-0.0128115 -0.000185123 0)
(-0.0127467 -0.000233289 0)
(-0.0126672 -0.000281336 0)
(-0.0125732 -0.000329211 0)
(-0.0124648 -0.000376861 0)
(-0.0123419 -0.000424234 0)
(-0.0122047 -0.000471275 0)
(-0.0120534 -0.000517931 0)
(-0.011888 -0.000564145 0)
(-0.0117088 -0.000609861 0)
(-0.0115157 -0.000655023 0)
(-0.0113092 -0.000699574 0)
(-0.0110892 -0.000743457 0)
(-0.0108561 -0.000786615 0)
(-0.0106101 -0.00082899 0)
(-0.0103514 -0.000870525 0)
(-0.0100803 -0.000911166 0)
(-0.00979701 -0.000950855 0)
(-0.00950192 -0.000989538 0)
(-0.00919531 -0.00102716 0)
(-0.00887751 -0.00106367 0)
(-0.00854886 -0.00109901 0)
(-0.00820974 -0.00113314 0)
(-0.0078605 -0.001166 0)
(-0.00750157 -0.00119752 0)
(-0.00713336 -0.00122766 0)
(-0.00675631 -0.00125632 0)
(-0.00637092 -0.0012834 0)
(-0.00597771 -0.00130873 0)
(-0.00557727 -0.00133207 0)
(-0.00517032 -0.00135306 0)
(-0.00475766 -0.00137114 0)
(-0.00434034 -0.0013855 0)
(-0.00391964 -0.00139495 0)
(-0.00349725 -0.00139784 0)
(-0.00307537 -0.00139189 0)
(-0.00265686 -0.00137415 0)
(-0.0022454 -0.00134092 0)
(-0.00184566 -0.00128783 0)
(-0.00146343 -0.00121007 0)
(-0.00110569 -0.00110293 0)
(-0.000780619 -0.000962617 0)
(-0.000497171 -0.000787494 0)
(-0.00026467 -0.000579702 0)
(-9.68547e-05 -0.00034724 0)
(-1.56569e-05 -0.000108058 0)
(-1.70392e-05 0.000152907 0)
(-0.000105094 0.000467071 0)
(-0.000286042 0.000760445 0)
(-0.000534872 0.00101761 0)
(-0.000836159 0.00123291 0)
(-0.0011797 0.00140522 0)
(-0.00155608 0.00153695 0)
(-0.00195691 0.00163283 0)
(-0.00237518 0.00169867 0)
(-0.00280513 0.00174035 0)
(-0.00324216 0.00176324 0)
(-0.00368266 0.00177185 0)
(-0.00412384 0.00176981 0)
(-0.00456356 0.00175989 0)
(-0.00500018 0.00174411 0)
(-0.00543244 0.00172391 0)
(-0.00585935 0.00170027 0)
(-0.00628009 0.00167385 0)
(-0.006694 0.00164508 0)
(-0.00710048 0.00161423 0)
(-0.007499 0.00158148 0)
(-0.00788909 0.00154695 0)
(-0.00827029 0.00151073 0)
(-0.00864218 0.00147287 0)
(-0.00900434 0.00143342 0)
(-0.00935636 0.00139244 0)
(-0.00969788 0.00134995 0)
(-0.0100285 0.001306 0)
(-0.0103479 0.00126064 0)
(-0.0106557 0.00121391 0)
(-0.0109516 0.00116586 0)
(-0.0112353 0.00111654 0)
(-0.0115064 0.001066 0)
(-0.0117647 0.00101428 0)
(-0.0120099 0.000961444 0)
(-0.0122417 0.000907543 0)
(-0.0124599 0.000852631 0)
(-0.0126642 0.000796762 0)
(-0.0128544 0.000739992 0)
(-0.0130303 0.000682372 0)
(-0.0131917 0.000623959 0)
(-0.0133384 0.000564808 0)
(-0.0134702 0.000504976 0)
(-0.013587 0.000444517 0)
(-0.0136887 0.000383487 0)
(-0.013775 0.000321939 0)
(-0.013846 0.000259933 0)
(-0.0139014 0.000197526 0)
(-0.0139413 0.000134778 0)
(-0.0139655 7.1748e-05 0)
(-0.013974 8.49677e-06 0)
(-0.0139667 -5.49143e-05 0)
(-0.0139437 -0.000118422 0)
(-0.0139049 -0.000181963 0)
(-0.0138503 -0.000245472 0)
(-0.0137799 -0.000308884 0)
(-0.0136938 -0.000372129 0)
(-0.0135921 -0.000435142 0)
(-0.0134748 -0.000497853 0)
(-0.0133419 -0.000560192 0)
(-0.0131937 -0.00062209 0)
(-0.0130302 -0.000683475 0)
(-0.0128516 -0.000744274 0)
(-0.012658 -0.000804415 0)
(-0.0124496 -0.000863822 0)
(-0.0122266 -0.000922423 0)
(-0.0119892 -0.000980143 0)
(-0.0117377 -0.00103691 0)
(-0.0114722 -0.00109264 0)
(-0.0111931 -0.00114727 0)
(-0.0109006 -0.00120072 0)
(-0.0105951 -0.00125292 0)
(-0.0102768 -0.00130379 0)
(-0.00994609 -0.00135327 0)
(-0.00960334 -0.00140128 0)
(-0.00924891 -0.00144775 0)
(-0.0088832 -0.00149262 0)
(-0.00850661 -0.00153581 0)
(-0.00811958 -0.00157723 0)
(-0.00772258 -0.00161681 0)
(-0.00731608 -0.00165442 0)
(-0.00690062 -0.00168991 0)
(-0.00647677 -0.00172306 0)
(-0.00604519 -0.00175355 0)
(-0.00560662 -0.00178088 0)
(-0.00516196 -0.00180435 0)
(-0.0047123 -0.00182288 0)
(-0.00425901 -0.00183496 0)
(-0.00380388 -0.00183848 0)
(-0.00334917 -0.00183059 0)
(-0.00289787 -0.00180755 0)
(-0.00245376 -0.00176476 0)
(-0.00202166 -0.00169678 0)
(-0.00160756 -0.00159763 0)
(-0.00121874 -0.00146134 0)
(-0.000863867 -0.0012829 0)
(-0.000552657 -0.0010595 0)
(-0.000295588 -0.00079212 0)
(-0.000108657 -0.000487423 0)
(-1.76561e-05 -0.000161202 0)
(-1.84394e-05 0.000209318 0)
(-0.000113581 0.000615764 0)
(-0.000308884 0.000984758 0)
(-0.000576575 0.00130346 0)
(-0.000899458 0.0015679 0)
(-0.00126629 0.00177854 0)
(-0.00166695 0.0019393 0)
(-0.0020926 0.00205637 0)
(-0.00253593 0.0021369 0)
(-0.00299104 0.00218802 0)
(-0.00345323 0.00221617 0)
(-0.00391881 0.00222682 0)
(-0.00438494 0.00222432 0)
(-0.00484944 0.00221202 0)
(-0.00531062 0.00219239 0)
(-0.00576718 0.00216718 0)
(-0.00621807 0.0021376 0)
(-0.00666246 0.00210447 0)
(-0.00709962 0.00206834 0)
(-0.00752893 0.00202955 0)
(-0.00794983 0.00198835 0)
(-0.00836181 0.00194487 0)
(-0.00876439 0.00189925 0)
(-0.0091571 0.00185155 0)
(-0.00953951 0.00180184 0)
(-0.0099112 0.0017502 0)
(-0.0102718 0.00169666 0)
(-0.0106208 0.00164129 0)
(-0.010958 0.00158414 0)
(-0.0112829 0.00152528 0)
(-0.0115951 0.00146476 0)
(-0.0118945 0.00140264 0)
(-0.0121806 0.00133899 0)
(-0.0124531 0.00127388 0)
(-0.0127117 0.00120736 0)
(-0.0129562 0.00113952 0)
(-0.0131863 0.00107041 0)
(-0.0134017 0.0010001 0)
(-0.0136022 0.000928669 0)
(-0.0137876 0.000856176 0)
(-0.0139577 0.000782693 0)
(-0.0141122 0.000708291 0)
(-0.014251 0.000633039 0)
(-0.014374 0.000557008 0)
(-0.014481 0.000480265 0)
(-0.0145718 0.000402882 0)
(-0.0146463 0.000324931 0)
(-0.0147045 0.000246487 0)
(-0.0147463 0.000167622 0)
(-0.0147715 8.84124e-05 0)
(-0.0147801 8.93324e-06 0)
(-0.0147721 -7.07376e-05 0)
(-0.0147474 -0.000150521 0)
(-0.0147061 -0.000230337 0)
(-0.0146482 -0.000310104 0)
(-0.0145736 -0.00038974 0)
(-0.0144825 -0.000469161 0)
(-0.0143749 -0.000548281 0)
(-0.0142508 -0.000627016 0)
(-0.0141103 -0.00070528 0)
(-0.0139537 -0.000782984 0)
(-0.0137809 -0.000860039 0)
(-0.0135922 -0.000936354 0)
(-0.0133877 -0.00101184 0)
(-0.0131676 -0.0010864 0)
(-0.012932 -0.00115995 0)
(-0.0126814 -0.00123239 0)
(-0.0124157 -0.00130362 0)
(-0.0121354 -0.00137357 0)
(-0.0118407 -0.00144213 0)
(-0.011532 -0.00150921 0)
(-0.0112094 -0.00157471 0)
(-0.0108734 -0.00163856 0)
(-0.0105243 -0.00170065 0)
(-0.0101625 -0.00176089 0)
(-0.00978835 -0.00181921 0)
(-0.00940232 -0.00187549 0)
(-0.00900484 -0.00192966 0)
(-0.00859634 -0.00198161 0)
(-0.00817734 -0.00203122 0)
(-0.00774833 -0.00207833 0)
(-0.00730989 -0.00212275 0)
(-0.00686261 -0.0021642 0)
(-0.0064072 -0.00220225 0)
(-0.00594444 -0.00223631 0)
(-0.00547527 -0.00226548 0)
(-0.00500081 -0.00228845 0)
(-0.0045225 -0.00230338 0)
(-0.00404216 -0.00230768 0)
(-0.00356211 -0.0022979 0)
(-0.00308537 -0.00226957 0)
(-0.00261583 -0.00221712 0)
(-0.00215841 -0.002134 0)
(-0.00171925 -0.00201296 0)
(-0.00130592 -0.00184666 0)
(-0.000927562 -0.00162861 0)
(-0.000594593 -0.00135449 0)
(-0.000318521 -0.00102364 0)
(-0.000117126 -0.000640853 0)
(-1.8994e-05 -0.000219429 0)
(-1.93536e-05 0.000269279 0)
(-0.000119608 0.000774144 0)
(-0.000325603 0.00122344 0)
(-0.000607685 0.0016069 0)
(-0.000947291 0.00192256 0)
(-0.00133232 0.00217278 0)
(-0.00175203 0.00236324 0)
(-0.00219715 0.0025018 0)
(-0.00266013 0.00259713 0)
(-0.00313488 0.00265767 0)
(-0.00361664 0.00269102 0)
(-0.00410166 0.00270357 0)
(-0.00458707 0.00270044 0)
(-0.00507066 0.00268557 0)
(-0.00555072 0.00266186 0)
(-0.00602594 0.00263137 0)
(-0.00649523 0.00259556 0)
(-0.00695774 0.0025554 0)
(-0.00741271 0.00251155 0)
(-0.0078595 0.00246445 0)
(-0.00829753 0.00241437 0)
(-0.00872626 0.00236151 0)
(-0.00914519 0.00230602 0)
(-0.00955383 0.002248 0)
(-0.00995172 0.00218753 0)
(-0.0103384 0.0021247 0)
(-0.0107136 0.00205957 0)
(-0.0110767 0.00199221 0)
(-0.0114274 0.00192269 0)
(-0.0117653 0.0018511 0)
(-0.0120901 0.0017775 0)
(-0.0124014 0.00170197 0)
(-0.0126989 0.00162459 0)
(-0.0129823 0.00154543 0)
(-0.0132512 0.00146458 0)
(-0.0135053 0.00138212 0)
(-0.0137445 0.00129813 0)
(-0.0139684 0.0012127 0)
(-0.0141767 0.0011259 0)
(-0.0143694 0.00103783 0)
(-0.0145461 0.00094856 0)
(-0.0147066 0.000858186 0)
(-0.0148508 0.000766789 0)
(-0.0149784 0.000674452 0)
(-0.0150894 0.000581261 0)
(-0.0151837 0.000487302 0)
(-0.015261 0.000392665 0)
(-0.0153212 0.000297437 0)
(-0.0153644 0.000201708 0)
(-0.0153904 0.000105569 0)
(-0.0153991 9.1127e-06 0)
(-0.0153906 -8.7567e-05 0)
(-0.0153647 -0.000184374 0)
(-0.0153216 -0.000281213 0)
(-0.0152611 -0.000377983 0)
(-0.0151834 -0.000474587 0)
(-0.0150884 -0.000570922 0)
(-0.0149763 -0.000666887 0)
(-0.0148471 -0.00076238 0)
(-0.0147009 -0.000857296 0)
(-0.0145378 -0.000951527 0)
(-0.014358 -0.00104497 0)
(-0.0141616 -0.00113751 0)
(-0.0139488 -0.00122904 0)
(-0.0137197 -0.00131944 0)
(-0.0134747 -0.00140862 0)
(-0.0132139 -0.00149645 0)
(-0.0129375 -0.00158283 0)
(-0.0126459 -0.00166764 0)
(-0.0123394 -0.00175076 0)
(-0.0120181 -0.0018321 0)
(-0.0116826 -0.00191153 0)
(-0.011333 -0.00198894 0)
(-0.0109699 -0.00206422 0)
(-0.0105935 -0.00213726 0)
(-0.0102043 -0.00220796 0)
(-0.00980276 -0.00227619 0)
(-0.00938928 -0.00234185 0)
(-0.00896435 -0.00240479 0)
(-0.00852849 -0.00246488 0)
(-0.00808223 -0.00252193 0)
(-0.00762617 -0.00257568 0)
(-0.00716093 -0.00262579 0)
(-0.00668722 -0.00267176 0)
(-0.00620587 -0.00271285 0)
(-0.00571784 -0.002748 0)
(-0.00522428 -0.00277566 0)
(-0.00472664 -0.00279363 0)
(-0.00422677 -0.00279889 0)
(-0.00372703 -0.00278737 0)
(-0.00323048 -0.00275383 0)
(-0.00274104 -0.00269173 0)
(-0.00226374 -0.00259335 0)
(-0.00180488 -0.00245009 0)
(-0.00137231 -0.00225307 0)
(-0.000975587 -0.00199415 0)
(-0.000625775 -0.0016672 0)
(-0.00033524 -0.0012696 0)
(-0.0001231 -0.000804021 0)
(-1.98723e-05 -0.000281203 0)
(-1.99401e-05 0.000331708 0)
(-0.000123846 0.000939608 0)
(-0.000337773 0.00147289 0)
(-0.000630769 0.0019238 0)
(-0.000983282 0.00229248 0)
(-0.00138253 0.00258335 0)
(-0.00181723 0.00280412 0)
(-0.00227773 0.00296444 0)
(-0.00275622 0.00307462 0)
(-0.00324648 0.00314453 0)
(-0.00374365 0.00318295 0)
(-0.00424393 0.00319725 0)
(-0.00474444 0.00319332 0)
(-0.00524294 0.00317568 0)
(-0.00573773 0.00314767 0)
(-0.00622745 0.00311169 0)
(-0.00671105 0.0030694 0)
(-0.00718761 0.00302195 0)
(-0.0076564 0.00297011 0)
(-0.00811674 0.00291438 0)
(-0.00856804 0.00285511 0)
(-0.00900974 0.00279253 0)
(-0.00944132 0.00272682 0)
(-0.00986229 0.0026581 0)
(-0.0102722 0.00258648 0)
(-0.0106705 0.00251204 0)
(-0.0110569 0.0024349 0)
(-0.0114309 0.00235512 0)
(-0.0117921 0.00227279 0)
(-0.0121401 0.00218801 0)
(-0.0124746 0.00210087 0)
(-0.0127951 0.00201144 0)
(-0.0131014 0.00191983 0)
(-0.0133932 0.00182613 0)
(-0.01367 0.00173044 0)
(-0.0139316 0.00163285 0)
(-0.0141778 0.00153346 0)
(-0.0144082 0.00143237 0)
(-0.0146227 0.00132968 0)
(-0.0148209 0.00122549 0)
(-0.0150027 0.0011199 0)
(-0.0151679 0.001013 0)
(-0.0153162 0.000904904 0)
(-0.0154476 0.000795704 0)
(-0.0155617 0.000685504 0)
(-0.0156586 0.000574407 0)
(-0.0157381 0.000462516 0)
(-0.0158 0.000349936 0)
(-0.0158443 0.000236774 0)
(-0.0158709 0.000123137 0)
(-0.0158798 9.13342e-06 0)
(-0.0158709 -0.000105125 0)
(-0.0158442 -0.000219527 0)
(-0.0157996 -0.000333957 0)
(-0.0157373 -0.000448299 0)
(-0.0156572 -0.000562438 0)
(-0.0155593 -0.000676255 0)
(-0.0154438 -0.000789629 0)
(-0.0153107 -0.00090244 0)
(-0.0151601 -0.00101456 0)
(-0.0149921 -0.00112588 0)
(-0.0148069 -0.00123625 0)
(-0.0146046 -0.00134556 0)
(-0.0143855 -0.00145367 0)
(-0.0141496 -0.00156046 0)
(-0.0138973 -0.0016658 0)
(-0.0136287 -0.00176955 0)
(-0.0133441 -0.00187157 0)
(-0.0130438 -0.00197175 0)
(-0.0127281 -0.00206994 0)
(-0.0123972 -0.00216602 0)
(-0.0120517 -0.00225984 0)
(-0.0116917 -0.00235128 0)
(-0.0113176 -0.00244021 0)
(-0.01093 -0.00252649 0)
(-0.0105291 -0.00260999 0)
(-0.0101155 -0.00269058 0)
(-0.00968965 -0.00276812 0)
(-0.00925197 -0.00284244 0)
(-0.00880301 -0.00291338 0)
(-0.00834334 -0.00298069 0)
(-0.00787356 -0.00304409 0)
(-0.00739431 -0.00310317 0)
(-0.00690634 -0.00315733 0)
(-0.00641047 -0.00320572 0)
(-0.00590767 -0.00324709 0)
(-0.00539913 -0.00327966 0)
(-0.0048863 -0.00330088 0)
(-0.00437105 -0.00330729 0)
(-0.00385575 -0.00329419 0)
(-0.00334349 -0.00325556 0)
(-0.00283825 -0.00318385 0)
(-0.00234516 -0.00307014 0)
(-0.00187067 -0.00290437 0)
(-0.00142289 -0.00267602 0)
(-0.00101177 -0.00237509 0)
(-0.000648926 -0.00199346 0)
(-0.000347408 -0.00152639 0)
(-0.00012731 -0.00097427 0)
(-2.04471e-05 -0.00034543 0)
(-2.03228e-05 0.000395883 0)
(-0.000126872 0.00111026 0)
(-0.000346745 0.00173046 0)
(-0.000648101 0.00225103 0)
(-0.00101069 0.00267427 0)
(-0.0014212 0.0030068 0)
(-0.00186788 0.00325843 0)
(-0.00234074 0.00344078 0)
(-0.00283174 0.00356588 0)
(-0.00333452 0.0036451 0)
(-0.00384412 0.00368847 0)
(-0.0043567 0.00370437 0)
(-0.00486934 0.00369946 0)
(-0.00537981 0.00367887 0)
(-0.00588639 0.00364638 0)
(-0.00638773 0.00360469 0)
(-0.00688273 0.00355572 0)
(-0.00737051 0.00350077 0)
(-0.0078503 0.00344069 0)
(-0.00832143 0.0033761 0)
(-0.00878328 0.00330737 0)
(-0.0092353 0.0032348 0)
(-0.00967694 0.00315858 0)
(-0.0101077 0.00307887 0)
(-0.0105271 0.00299578 0)
(-0.0109347 0.00290944 0)
(-0.01133 0.00281994 0)
(-0.0117126 0.0027274 0)
(-0.0120822 0.00263192 0)
(-0.0124382 0.00253359 0)
(-0.0127803 0.00243253 0)
(-0.0131082 0.00232883 0)
(-0.0134215 0.00222262 0)
(-0.0137199 0.00211399 0)
(-0.014003 0.00200306 0)
(-0.0142706 0.00188994 0)
(-0.0145224 0.00177475 0)
(-0.014758 0.0016576 0)
(-0.0149773 0.0015386 0)
(-0.01518 0.00141787 0)
(-0.0153659 0.00129553 0)
(-0.0155348 0.00117169 0)
(-0.0156864 0.00104646 0)
(-0.0158207 0.000919965 0)
(-0.0159374 0.000792323 0)
(-0.0160365 0.000663651 0)
(-0.0161177 0.000534069 0)
(-0.016181 0.0004037 0)
(-0.0162263 0.000272665 0)
(-0.0162535 0.000141088 0)
(-0.0162626 9.09708e-06 0)
(-0.0162534 -0.000123182 0)
(-0.0162261 -0.000255619 0)
(-0.0161806 -0.000388083 0)
(-0.0161168 -0.00052044 0)
(-0.0160349 -0.000652555 0)
(-0.0159348 -0.000784294 0)