/*--------------------------------*- C++ -*----------------------------------*\
  =========                 |
  \\      /  F ield         | OpenFOAM: The Open Source CFD Toolbox
   \\    /   O peration     | Website:  https://openfoam.org
    \\  /    A nd           | Version:  7
     \\/     M anipulation  |
\*---------------------------------------------------------------------------*/
FoamFile
{
    version     2.0;
    format      ascii;
    class       surfaceScalarField;
    location    "6.9993";
    object      phi;
}
// * * * * * * * * * * * * * * * * * * * * * * * * * * * * * * * * * * * * * //

dimensions      [0 3 -1 0 0 0 0];

internalField   nonuniform List<scalar> 
37105
(
-1.70753e-05
1.70753e-05
-3.73787e-11
-3.85961e-05
2.15208e-05
2.75909e-11
-6.09625e-05
2.23662e-05
1.66814e-10
-8.45787e-05
2.36159e-05
3.10851e-10
-0.000109383
2.48042e-05
4.34816e-10
-0.000135247
2.58628e-05
5.19222e-10
-0.000161934
2.66871e-05
5.56684e-10
-0.000189176
2.72414e-05
5.51827e-10
-0.000216721
2.75441e-05
5.19795e-10
-0.000244384
2.76628e-05
4.82014e-10
-0.000272071
2.76861e-05
4.59371e-10
-0.000299676
2.76052e-05
4.6585e-10
-0.000326941
2.72645e-05
5.0578e-10
-0.000353393
2.64509e-05
5.74095e-10
2.51737e-05
6.5696e-10
-0.000378567
-1.67394e-05
3.38147e-05
-3.7924e-05
4.27054e-05
-5.993e-05
4.43722e-05
-8.31281e-05
4.6814e-05
-0.000107448
4.91243e-05
-0.000132747
5.11621e-05
-0.000158784
5.27236e-05
-0.000185284
5.37415e-05
-0.000211994
5.42538e-05
-0.000238721
5.43897e-05
-0.000265359
5.43251e-05
-0.00029182
5.40659e-05
-0.000317907
5.33511e-05
-0.000343214
5.17584e-05
4.9218e-05
-0.000367259
-1.60793e-05
4.98939e-05
-3.66061e-05
6.32322e-05
-5.79123e-05
6.56785e-05
-8.03087e-05
6.92104e-05
-0.000103714
7.25295e-05
-0.000127967
7.54148e-05
-0.000152817
7.75738e-05
-0.000177989
7.8914e-05
-0.000203231
7.94956e-05
-0.000228342
7.95003e-05
-0.000253205
7.91882e-05
-0.000277759
7.86197e-05
-0.000301918
7.75101e-05
-0.000325388
7.52288e-05
7.14243e-05
-0.000347594
-1.51197e-05
6.50136e-05
-3.46913e-05
8.28038e-05
-5.49927e-05
8.59799e-05
-7.62586e-05
9.04763e-05
-9.83969e-05
9.46678e-05
-0.000121228
9.82456e-05
-0.000144498
0.000100844
-0.000167938
0.000102354
-0.000191303
0.00010286
-0.000214388
0.000102586
-0.000237073
0.000101874
-0.000259339
0.000100885
-0.000281239
9.94101e-05
-0.000302635
9.66245e-05
9.16497e-05
-0.00032286
-1.39049e-05
7.89186e-05
-3.22386e-05
0.000101137
-5.12694e-05
0.000105011
-7.11348e-05
0.000110342
-9.1731e-05
0.000115264
-0.000112864
0.000119379
-0.000134285
0.000122266
-0.000155734
0.000123803
-0.000176978
0.000124104
-0.000197821
0.000123429
-0.00021816
0.000122213
-0.000238045
0.00012077
-0.000257703
0.000119068
-0.00027724
0.000116162
0.000110439
-0.00029603
-1.2482e-05
9.14006e-05
-2.93072e-05
0.000117963
-4.68489e-05
0.000122552
-6.51048e-05
0.000128598
-8.39561e-05
0.000134115
-0.0001032
0.000138622
-0.000122597
0.000141663
-0.000141902
0.000143107
-0.000160901
0.000143103
-0.000179432
0.000141959
-0.000197449
0.000140231
-0.000215107
0.000138428
-0.000232808
0.000136769
-0.000250924
0.000134278
0.000128489
-0.000268974
-1.08002e-05
0.000102201
-2.59385e-05
0.000133101
-4.184e-05
0.000138454
-5.83364e-05
0.000145094
-7.53016e-05
0.00015108
-9.25332e-05
0.000155854
-0.000109808
0.000158938
-0.000126897
0.000160197
-0.000143621
0.000159826
-0.000159871
0.00015821
-0.000175687
0.000156046
-0.000191318
0.00015406
-0.000207269
0.000152719
-0.000224061
0.00015107
0.000145733
-0.000241305
-8.90653e-06
0.000111107
-2.21899e-05
0.000146384
-3.635e-05
0.000152614
-5.09891e-05
0.000159733
-6.59788e-05
0.00016607
-8.11277e-05
0.000171003
-9.62322e-05
0.000174042
-0.000111085
0.00017505
-0.000125542
0.000174283
-0.000139556
0.000172224
-0.000153244
0.000169733
-0.000166915
0.000167731
-0.000181059
0.000166864
-0.000196142
0.000166153
0.000161379
-0.000211788
-6.83664e-06
0.000117944
-1.81297e-05
0.000157677
-3.04896e-05
0.000164974
-4.32106e-05
0.000172454
-5.61762e-05
0.000179036
-6.92148e-05
0.000184041
-8.21409e-05
0.000186969
-9.47688e-05
0.000187678
-0.000106986
0.0001865
-0.000118795
0.000184033
-0.000130365
0.000181303
-0.000142002
0.000179368
-0.00015408
0.000178943
-0.000166836
0.000178909
0.000174592
-0.000180049
-4.60509e-06
0.000122549
-1.38283e-05
0.000166901
-2.436e-05
0.000175506
-3.51333e-05
0.000183227
-4.60639e-05
0.000189966
-5.6998e-05
0.000194975
-6.77624e-05
0.000197733
-7.81879e-05
0.000198103
-8.8182e-05
0.000196494
-9.77706e-05
0.000193622
-0.000107136
0.000190668
-0.000116539
0.000188771
-0.000126213
0.000188617
-0.000136116
0.000188812
0.00018472
-0.000146244
-2.20459e-06
0.000124754
-9.38034e-06
0.000174076
-1.80563e-05
0.000184182
-2.6874e-05
0.000192045
-3.57907e-05
0.000198883
-4.46524e-05
0.000203837
-5.32906e-05
0.000206371
-6.15484e-05
0.000206361
-6.93361e-05
0.000204282
-7.66754e-05
0.000200962
-8.37266e-05
0.000197719
-9.0708e-05
0.000195752
-9.77137e-05
0.000195623
-0.000104417
0.000195515
0.000190846
-0.000110544
3.85304e-07
0.000124368
-4.8811e-06
0.000179343
-1.16403e-05
0.000190941
-1.85328e-05
0.000198938
-2.54916e-05
0.000205842
-3.23356e-05
0.000210681
-3.88993e-05
0.000212935
-4.50319e-05
0.000212494
-5.06318e-05
0.000209882
-5.56951e-05
0.000206025
-6.03193e-05
0.000202343
-6.46393e-05
0.000200072
-6.86905e-05
0.000199674
-7.21079e-05
0.000198933
0.00019267
-7.39321e-05
2.55965e-06
0.000121809
-4.80056e-07
0.000182382
-5.1633e-06
0.000195624
-1.02124e-05
0.000203987
-1.52878e-05
0.000210917
-2.01835e-05
0.000215577
-2.47394e-05
0.000217491
-2.88061e-05
0.000216561
-3.2254e-05
0.000213329
-3.50355e-05
0.000208806
-3.71757e-05
0.000204484
-3.87013e-05
0.000201598
-3.96389e-05
0.000200611
-3.98667e-05
0.000199161
0.000190917
-3.81136e-05
4.9353e-06
0.000116873
4.36006e-06
0.000182958
1.30958e-06
0.000198674
-2.03063e-06
0.000207327
-5.29885e-06
0.000214185
-8.32949e-06
0.000218608
-1.09653e-05
0.000220127
-1.30337e-05
0.000218629
-1.43815e-05
0.000214677
-1.49019e-05
0.000209327
-1.45496e-05
0.000204131
-1.32641e-05
0.000200313
-1.10188e-05
0.000198366
-7.83064e-06
0.000195973
0.00018702
-3.93358e-06
7.35715e-06
0.000109516
9.09029e-06
0.000181225
7.89278e-06
0.000199872
6.16309e-06
0.000209057
4.50619e-06
0.000215842
3.15627e-06
0.000219957
2.28473e-06
0.000220998
2.12533e-06
0.000218788
2.8228e-06
0.00021398
4.47081e-06
0.000207679
7.20022e-06
0.000201402
1.1187e-05
0.000196326
1.66438e-05
0.000192909
2.34328e-05
0.000189183
0.000179004
3.14492e-05
9.72623e-06
9.979e-05
1.37548e-05
0.000177196
1.43067e-05
0.00019932
1.4157e-05
0.000209206
1.41028e-05
0.000215896
1.43837e-05
0.000219677
1.51855e-05
0.000220196
1.67047e-05
0.000217269
1.91579e-05
0.000211527
2.27796e-05
0.000204057
2.76907e-05
0.000196491
3.42876e-05
0.000189729
4.29927e-05
0.000184204
5.30927e-05
0.000179083
0.000167695
6.4402e-05
1.19594e-05
8.78306e-05
1.82843e-05
0.000170871
2.0553e-05
0.000197051
2.18781e-05
0.000207881
2.32747e-05
0.0002145
2.50268e-05
0.000217925
2.73335e-05
0.000217889
3.0411e-05
0.000214192
3.45091e-05
0.000207429
3.99658e-05
0.0001986
4.68847e-05
0.000189572
5.55924e-05
0.000181021
6.71759e-05
0.000172621
8.07161e-05
0.000165543
0.000153013
9.53981e-05
1.39462e-05
7.38844e-05
2.25535e-05
0.000162264
2.65743e-05
0.000193031
2.93058e-05
0.00020515
3.20243e-05
0.000211781
3.51004e-05
0.000214849
3.87624e-05
0.000214227
4.32433e-05
0.000209711
4.87756e-05
0.000201896
5.58217e-05
0.000191554
6.46592e-05
0.000180734
7.4949e-05
0.000170731
8.89904e-05
0.000158579
0.000105265
0.000149269
0.000135266
0.000123011
1.55025e-05
5.8382e-05
2.63909e-05
0.000151375
3.22798e-05
0.000187142
3.64043e-05
0.000201025
4.03352e-05
0.00020785
4.45959e-05
0.000210588
4.9451e-05
0.000209372
5.51731e-05
0.000203989
6.19316e-05
0.000195138
7.01569e-05
0.000183329
8.08687e-05
0.000170023
9.21307e-05
0.000159469
0.000107834
0.000142876
0.000126953
0.00013015
0.000113709
0.00014851
1.63175e-05
4.20645e-05
2.9571e-05
0.000138122
3.75503e-05
0.000179162
4.31123e-05
0.000195463
4.81799e-05
0.000202783
5.35056e-05
0.000205262
5.93838e-05
0.000203494
6.61622e-05
0.00019721
7.40522e-05
0.000187248
8.29396e-05
0.000174441
9.53759e-05
0.000157586
0.000107643
0.000147203
0.000123477
0.000127041
0.000143057
0.00011057
8.6635e-05
0.000170131
1.59122e-05
2.61523e-05
3.1831e-05
0.000122203
4.22118e-05
0.000168782
4.93282e-05
0.000188347
5.55195e-05
0.000196591
6.1828e-05
0.000198954
6.85813e-05
0.000196741
7.61471e-05
0.000189644
8.52246e-05
0.00017817
9.42719e-05
0.000165394
0.000107863
0.000143996
0.000121656
0.00013341
0.000138691
0.000110006
0.000155191
9.40695e-05
5.75065e-05
0.00018432
1.39414e-05
1.22108e-05
3.29532e-05
0.000103191
4.60108e-05
0.000155724
5.48979e-05
0.00017946
6.22918e-05
0.000189198
6.95427e-05
0.000191703
7.71092e-05
0.000189174
8.50974e-05
0.000181656
9.53736e-05
0.000167894
0.000104565
0.000156203
0.000118302
0.000130259
0.000132767
0.000118945
0.000153385
8.93875e-05
0.000168642
7.88122e-05
3.05253e-05
0.000195624
1.08067e-05
1.40419e-06
3.27734e-05
8.12245e-05
4.85988e-05
0.000139899
5.96218e-05
0.000168437
6.84231e-05
0.000180396
7.65976e-05
0.000183528
8.5032e-05
0.00018074
9.31308e-05
0.000173557
0.000104372
0.000156653
0.000114163
0.000146412
0.000127889
0.000116533
0.000141027
0.000105806
0.000164035
6.63798e-05
0.000182118
6.07287e-05
6.10843e-06
0.000206535
7.39493e-06
-5.99074e-06
3.08828e-05
5.77366e-05
4.96158e-05
0.000121165
6.32497e-05
0.000154803
7.37813e-05
0.000169865
8.28752e-05
0.000174435
9.22965e-05
0.000171319
0.000100447
0.000165406
0.00011209
0.00014501
0.000122769
0.000135733
0.000137602
0.0001017
0.000149289
9.41195e-05
0.000171228
4.44408e-05
0.0001916
4.03568e-05
-1.80637e-05
0.000215772
4.12622e-06
-1.0117e-05
2.66901e-05
3.51727e-05
4.87204e-05
9.91352e-05
6.54533e-05
0.00013807
7.81484e-05
0.00015717
8.81951e-05
0.000164388
9.87517e-05
0.000160762
0.000107275
0.000156884
0.000118659
0.000133626
0.00012971
0.000124682
0.000146198
8.52115e-05
0.000159249
8.10688e-05
0.000178199
2.54907e-05
0.000199904
1.86518e-05
-4.26508e-05
0.000224491
1.18854e-06
-1.13055e-05
2.03546e-05
1.60067e-05
4.56656e-05
7.38242e-05
6.56878e-05
0.000118048
8.11123e-05
0.000141745
9.24108e-05
0.000153089
0.000104043
0.00014913
0.000113651
0.000147276
0.000124776
0.0001225
0.000135395
0.000114064
0.000151054
6.95526e-05
0.000168051
6.40716e-05
0.000184951
8.59055e-06
0.000207827
-4.22454e-06
-6.81024e-05
0.000233279
-8.66038e-07
-1.04395e-05
1.32865e-05
1.85415e-06
4.01704e-05
4.69402e-05
6.3306e-05
9.49123e-05
8.20327e-05
0.000123018
9.52656e-05
0.000139856
0.00010774
0.000136655
0.000118724
0.000136292
0.00013038
0.000110845
0.000142095
0.000102348
0.000154149
5.74994e-05
0.000174193
4.40272e-05
0.000189646
-6.86231e-06
0.000215265
-2.98438e-05
-9.41884e-05
0.000241351
-1.42581e-06
-9.01366e-06
7.55374e-06
-7.1254e-06
3.17673e-05
2.27266e-05
5.75972e-05
6.90824e-05
8.00157e-05
0.0001006
9.6124e-05
0.000123748
0.000109626
0.000123154
0.0001217
0.000124217
0.000133776
9.87693e-05
0.000148207
8.79163e-05
0.000158564
4.71428e-05
0.000180282
2.2309e-05
0.000194027
-2.06076e-05
0.000224531
-6.03476e-05
-0.000117424
0.000247766
-9.69836e-07
-8.04382e-06
4.02798e-06
-1.21232e-05
2.22818e-05
4.47285e-06
4.85347e-05
4.28295e-05
7.39466e-05
7.51879e-05
9.37542e-05
0.000103941
0.000108978
0.00010793
0.000122593
0.000110602
0.000134561
8.68015e-05
0.000151179
7.12981e-05
0.000162587
3.57343e-05
0.000185224
-3.27972e-07
0.000198784
-3.41673e-05
0.000233907
-9.54705e-05
-0.000132433
0.000248916
-1.00202e-08
-8.0338e-06
3.30181e-06
-1.5435e-05
1.47971e-05
-7.02248e-06
3.75257e-05
2.0101e-05
6.33368e-05
4.93768e-05
8.64231e-05
8.08542e-05
0.000104655
8.96978e-05
0.000120025
9.52327e-05
0.000132684
7.41419e-05
0.000149856
5.41266e-05
0.000162733
2.28576e-05
0.000185641
-2.32369e-05
0.00019999
-4.85161e-05
0.000235417
-0.000130897
-0.000125276
0.00022826
9.1187e-07
-8.94567e-06
4.12854e-06
-1.86517e-05
1.106e-05
-1.3954e-05
2.73874e-05
3.77356e-06
4.98859e-05
2.68784e-05
7.33307e-05
5.74094e-05
9.44188e-05
6.86096e-05
0.000112029
7.76229e-05
0.000126669
5.95014e-05
0.00014337
3.74253e-05
0.000158852
7.37592e-06
0.000176661
-4.10456e-05
0.000195694
-6.75495e-05
0.000205378
-0.00014058
-0.00013497
0.000215071
1.65884e-06
-1.06045e-05
4.92101e-06
-2.19139e-05
9.83237e-06
-1.88653e-05
1.99805e-05
-6.37455e-06
3.62922e-05
1.05667e-05
5.67698e-05
3.69317e-05
7.73667e-05
4.80128e-05
9.67428e-05
5.82468e-05
0.000113632
4.26119e-05
0.00012934
2.17179e-05
0.000147968
-1.12521e-05
0.000162121
-5.51993e-05
0.000176942
-8.23701e-05
0.000182566
-0.000146204
-0.000202207
0.000249802
1.93459e-06
-1.25391e-05
4.7027e-06
-2.4682e-05
8.28488e-06
-2.24475e-05
1.41853e-05
-1.2275e-05
2.40391e-05
7.12897e-07
3.93077e-05
2.16631e-05
5.57766e-05
3.15439e-05
7.48732e-05
3.91502e-05
9.21416e-05
2.53435e-05
0.000107876
5.9837e-06
0.000127704
-3.10799e-05
0.000136592
-6.4088e-05
0.000158235
-0.000104013
0.000204241
-0.000192209
-0.000276465
0.000278499
1.5705e-06
-1.41096e-05
3.05544e-06
-2.61669e-05
4.81847e-06
-2.42106e-05
7.61462e-06
-1.50711e-05
1.22152e-05
-3.88768e-06
2.14543e-05
1.2424e-05
3.25873e-05
2.04109e-05
4.77994e-05
2.39381e-05
6.37981e-05
9.34475e-06
8.0556e-05
-1.07742e-05
9.69406e-05
-4.74644e-05
0.000117978
-8.51258e-05
0.000172604
-0.000158639
0.000232875
-0.00025248
-0.000330038
0.000286448
5.48659e-07
-1.46583e-05
-4.67672e-08
-2.55715e-05
-6.57461e-07
-2.35999e-05
-1.11312e-06
-1.46154e-05
-4.30408e-07
-4.5704e-06
2.84064e-06
9.15297e-06
8.55283e-06
1.46987e-05
1.86456e-05
1.38454e-05
3.31084e-05
-5.11808e-06
5.12481e-05
-2.89138e-05
8.08796e-05
-7.7096e-05
0.000135778
-0.000140024
0.000202615
-0.000225476
0.000253084
-0.000302949
-0.000369244
0.00029229
-9.68986e-07
-1.36893e-05
-3.76909e-06
-2.27714e-05
-7.31018e-06
-2.00588e-05
-1.08347e-05
-1.1091e-05
-1.47035e-05
-7.01545e-07
-1.67501e-05
1.11996e-05
-1.63466e-05
1.42951e-05
-8.67278e-06
6.17162e-06
9.11102e-06
-2.29019e-05
4.59892e-05
-6.5792e-05
0.000104253
-0.00013536
0.000169923
-0.000205694
0.000223438
-0.00027899
0.000260222
-0.000339733
-0.000391957
0.000282935
-2.67472e-06
-1.10146e-05
-7.85762e-06
-1.75885e-05
-1.42211e-05
-1.36953e-05
-2.11075e-05
-4.2046e-06
-2.8821e-05
7.01195e-06
-3.51121e-05
1.74907e-05
-3.62515e-05
1.54345e-05
-2.15188e-05
-8.56102e-06
1.58987e-05
-6.03195e-05
7.55628e-05
-0.000125456
0.000138432
-0.000198229
0.000191486
-0.000258749
0.000229488
-0.000316992
0.000254957
-0.000365202
-0.000413294
0.000276294
-4.20412e-06
-6.81043e-06
-1.13842e-05
-1.04084e-05
-2.00101e-05
-5.06943e-06
-2.94627e-05
5.24802e-06
-3.9166e-05
1.67153e-05
-4.52935e-05
2.36182e-05
-3.91573e-05
9.29827e-06
-5.70087e-06
-4.20174e-05
4.88595e-05
-0.00011488
0.000109006
-0.000185603
0.000158673
-0.000247896
0.000198141
-0.000298217
0.000227323
-0.000346173
0.00025042
-0.0003883
-0.000429774
0.0002669
-5.1709e-06
-1.63953e-06
-1.34745e-05
-2.10479e-06
-2.31036e-05
4.55968e-06
-3.30889e-05
1.52332e-05
-4.17086e-05
2.53351e-05
-4.27663e-05
2.46758e-05
-2.26423e-05
-1.08258e-05
2.53922e-05
-9.00519e-05
8.0102e-05
-0.00016959
0.000128682
-0.000234183
0.000167722
-0.000286935
0.000199634
-0.00033013
0.000224479
-0.000371018
0.000242023
-0.000405843
-0.000443787
0.000256036
-5.36268e-06
3.72315e-06
-1.36879e-05
6.22039e-06
-2.27946e-05
1.36664e-05
-3.13114e-05
2.375e-05
-3.64235e-05
3.04472e-05
-3.01447e-05
1.8397e-05
4.47744e-06
-4.54479e-05
5.44838e-05
-0.000140058
0.00010043
-0.000215535
0.000140504
-0.000274258
0.000173012
-0.000319443
0.000198936
-0.000356054
0.000218119
-0.000390201
0.000233907
-0.000421631
-0.000457462
0.000247582
-4.83312e-06
8.55627e-06
-1.22399e-05
1.36272e-05
-1.97119e-05
2.11384e-05
-2.55044e-05
2.95425e-05
-2.64079e-05
3.13507e-05
-1.04197e-05
2.40883e-06
3.09714e-05
-8.6839e-05
7.57623e-05
-0.000184849
0.000115552
-0.000255325
0.000148835
-0.000307541
0.000174842
-0.00034545
0.000195285
-0.000376498
0.000211925
-0.000406841
0.000225474
-0.00043518
-0.000468203
0.000236215
-3.80078e-06
1.2357e-05
-9.7103e-06
1.95367e-05
-1.50273e-05
2.64554e-05
-1.7764e-05
3.22792e-05
-1.52297e-05
2.88164e-05
1.05564e-05
-2.33773e-05
5.42889e-05
-0.000130572
9.27882e-05
-0.000223348
0.0001264
-0.000288937
0.000153116
-0.000334257
0.000173926
-0.00036626
0.000191094
-0.000393666
0.000204691
-0.000420437
0.000216518
-0.000447007
-0.000479602
0.000227917
-2.52387e-06
1.48809e-05
-6.69923e-06
2.3712e-05
-9.79157e-06
2.95477e-05
-9.7908e-06
3.22785e-05
-1.97334e-06
2.09989e-05
3.08202e-05
-5.61708e-05
7.16558e-05
-0.000171407
0.000106117
-0.00025781
0.000133522
-0.000316343
0.000154881
-0.000355616
0.000171744
-0.000383122
0.000185632
-0.000407554
0.000197559
-0.000432365
0.000208613
-0.000458062
-0.00048859
0.000217601
-1.22274e-06
1.61037e-05
-3.66318e-06
2.61525e-05
-4.6116e-06
3.04961e-05
-3.33165e-06
3.09985e-05
1.19497e-05
5.71759e-06
5.03989e-05
-9.462e-05
8.6125e-05
-0.000207133
0.000115419
-0.000287104
0.000137699
-0.000338622
0.000154608
-0.000372525
0.000168105
-0.000396619
0.000180041
-0.000419489
0.000190363
-0.000442687
0.000199799
-0.000467498
-0.000497792
0.000209001
-7.48681e-08
1.61785e-05
-8.24314e-07
2.69019e-05
1.2697e-07
2.95449e-05
2.78732e-06
2.83382e-05
2.48475e-05
-1.63426e-05
6.48601e-05
-0.000134633
9.73088e-05
-0.000239582
0.000121719
-0.000311514
0.000139447
-0.000356351
0.000152796
-0.000385873
0.000163956
-0.00040778
0.000173926
-0.000429459
0.000182998
-0.00045176
0.000192133
-0.000476632
-0.000505554
0.000199895
8.31616e-07
1.53469e-05
1.57739e-06
2.61562e-05
3.87072e-06
2.72515e-05
9.75838e-06
2.24505e-05
3.9079e-05
-4.56632e-05
7.63753e-05
-0.000171929
0.000105153
-0.00026836
0.000125107
-0.000331468
0.000139164
-0.000370407
0.000149861
-0.000396571
0.000159035
-0.000416953
0.000167764
-0.000438188
0.000175953
-0.000459949
0.000183746
-0.000484426
-0.00051289
0.000191082
1.36112e-06
1.39858e-05
3.13597e-06
2.43813e-05
5.62797e-06
2.47595e-05
1.6293e-05
1.17855e-05
5.2398e-05
-8.17682e-05
8.57106e-05
-0.000205241
0.000110133
-0.000292782
0.000126343
-0.000347678
0.000137475
-0.000381539
0.000146081
-0.000405176
0.000153931
-0.000424803
0.000161454
-0.000445711
0.000168625
-0.000467121
0.000176106
-0.000491906
-0.000519483
0.000182698
1.50228e-06
1.24835e-05
3.7955e-06
2.20881e-05
5.77934e-06
2.27757e-05
2.2755e-05
-5.19021e-06
6.23222e-05
-0.000121335
9.22987e-05
-0.000235218
0.000112579
-0.000313062
0.000125597
-0.000360697
0.000134524
-0.000390466
0.000141687
-0.000412339
0.000148378
-0.000431494
0.000155045
-0.000452378
0.000161672
-0.000473747
0.000168135
-0.000498369
-0.000525211
0.000173864
1.38713e-06
1.10964e-05
3.8649e-06
1.96103e-05
5.98273e-06
2.06579e-05
3.11128e-05
-3.03203e-05
6.93987e-05
-0.000159621
9.65387e-05
-0.000262358
0.000113286
-0.00032981
0.000123664
-0.000371074
0.000130871
-0.000397673
0.000136856
-0.000418324
0.000142766
-0.000437404
0.000148667
-0.000458278
0.000154464
-0.000479545
0.000160503
-0.000504408
-0.000530565
0.000165857
1.14833e-06
9.94804e-06
2.83991e-06
1.79188e-05
8.44462e-06
1.50532e-05
4.10253e-05
-6.29009e-05
7.50505e-05
-0.000193647
9.83797e-05
-0.000285687
0.000112211
-0.000343642
0.000120554
-0.000379417
0.000126489
-0.000403608
0.000131695
-0.00042353
0.000136888
-0.000442597
0.000142141
-0.000463532
0.00014754
-0.000484944
0.000152837
-0.000509704
-0.000535071
0.000157343
6.78083e-07
9.26996e-06
7.75201e-07
1.78216e-05
1.20804e-05
3.74799e-06
5.00125e-05
-0.000100833
7.92164e-05
-0.00022285
9.85878e-05
-0.000305058
0.000109992
-0.000355046
0.000116838
-0.000386262
0.000121833
-0.000408604
0.000126334
-0.00042803
0.000130991
-0.000447254
0.000135716
-0.000468257
0.00014043
-0.000489658
0.000145229
-0.000514503
-0.000539514
0.000149671
1.11514e-07
9.15844e-06
-6.73007e-07
1.86062e-05
1.69526e-05
-1.38776e-05
5.58728e-05
-0.000139753
8.18461e-05
-0.000248824
9.76317e-05
-0.000320844
0.000106823
-0.000364238
0.000112462
-0.000391901
0.000116748
-0.00041289
0.000120786
-0.000432068
0.000124944
-0.000451412
0.000129132
-0.000472445
0.000133496
-0.000494021
0.000137768
-0.000518775
-0.000543248
0.000141502
-3.19982e-07
9.47842e-06
1.15462e-07
1.81707e-05
2.44943e-05
-3.82564e-05
5.90631e-05
-0.000174322
8.2531e-05
-0.000272292
9.57461e-05
-0.000334059
0.000103146
-0.000371638
0.000107837
-0.000396592
0.000111589
-0.000416642
0.000115162
-0.000435641
0.000118889
-0.00045514
0.000122673
-0.000476229
0.000126472
-0.000497821
0.000130217
-0.00052252
-0.000546858
0.000133826
-6.27051e-07
1.01055e-05
2.79157e-06
1.47521e-05
3.26197e-05
-6.80846e-05
6.18737e-05
-0.000203576
8.17684e-05
-0.000292186
9.29169e-05
-0.000345208
9.89878e-05
-0.000377709
0.000102916
-0.000400521
0.000106195
-0.00041992
0.000109425
-0.00043887
0.000112764
-0.000458479
0.000116076
-0.000479541
0.000119525
-0.000501269
0.000122871
-0.000525867
-0.000549824
0.000125838
-8.49777e-07
1.09553e-05
6.30032e-06
7.602e-06
3.92415e-05
-0.000101026
6.38778e-05
-0.000228212
8.01505e-05
-0.000308459
8.93921e-05
-0.000354449
9.45085e-05
-0.000382825
9.79025e-05
-0.000403915
0.000100822
-0.00042284
0.000103685
-0.000441733
0.000106631
-0.000461425
0.000109595
-0.000482505
0.000112568
-0.000504243
0.000115373
-0.000528672
-0.000552563
0.000118111
-9.31304e-07
1.18866e-05
1.00474e-05
-3.3767e-06
4.31942e-05
-0.000134173
6.49425e-05
-0.000249961
7.80319e-05
-0.000321548
8.54828e-05
-0.0003619
8.97774e-05
-0.00038712
9.2745e-05
-0.000406882
9.53247e-05
-0.00042542
9.78774e-05
-0.000444285
0.000100485
-0.000464033
0.000103022
-0.000485042
0.000105618
-0.000506839
0.00010808
-0.000531134
-0.000554795
0.000110313
-1.05822e-06
1.29448e-05
1.46024e-05
-1.90373e-05
4.45808e-05
-0.000164151
6.46059e-05
-0.000269986
7.54918e-05
-0.000332434
8.1393e-05
-0.000367801
8.49512e-05
-0.000390678
8.75566e-05
-0.000409488
8.98659e-05
-0.000427729
9.21041e-05
-0.000446524
9.43381e-05
-0.000466267
9.65395e-05
-0.000487243
9.87265e-05
-0.000509026
0.000100676
-0.000533084
-0.000556708
0.00010259
-1.22834e-06
1.41731e-05
1.93321e-05
-3.95977e-05
4.55887e-05
-0.000190408
6.30819e-05
-0.000287479
7.24086e-05
-0.000341761
7.71848e-05
-0.000372578
8.00975e-05
-0.000393591
8.23419e-05
-0.000411732
8.43521e-05
-0.000429739
8.62895e-05
-0.000448461
8.82057e-05
-0.000468183
9.00182e-05
-0.000489056
9.18108e-05
-0.000510818
9.34434e-05
-0.000534717
-0.000558235
9.49695e-05
-4.95327e-07
1.46684e-05
2.33341e-05
-6.34271e-05
4.61468e-05
-0.00021322
6.09778e-05
-0.00030231
6.88641e-05
-0.000349647
7.28473e-05
-0.000376561
7.52616e-05
-0.000396005
7.71635e-05
-0.000413634
7.88912e-05
-0.000431467
8.0527e-05
-0.000450097
8.20844e-05
-0.000469741
8.35574e-05
-0.000490529
8.49834e-05
-0.000512244
8.6166e-05
-0.000535899
-0.000559395
8.7326e-05
6.22565e-07
1.40459e-05
2.63706e-05
-8.91751e-05
4.61523e-05
-0.000233002
5.85224e-05
-0.00031468
6.50468e-05
-0.000356172
6.84003e-05
-0.000379914
7.04346e-05
-0.000398039
7.20189e-05
-0.000415218
7.34345e-05
-0.000432882
7.47507e-05
-0.000451413
7.59895e-05
-0.000470979
7.71006e-05
-0.00049164
7.81298e-05
-0.000513273
7.89922e-05
-0.000536762
-0.000560267
7.98648e-05
2.11908e-06
1.19268e-05
2.83236e-05
-0.00011538
4.57706e-05
-0.000250449
5.59068e-05
-0.000324816
6.11537e-05
-0.000361419
6.39101e-05
-0.000382671
6.56168e-05
-0.000399746
6.69142e-05
-0.000416516
6.80342e-05
-0.000434002
6.90381e-05
-0.000452417
6.99228e-05
-0.000471864
7.06837e-05
-0.000492401
7.1364e-05
-0.000513954
7.18353e-05
-0.000537233
-0.000560778
7.23464e-05
4.26512e-06
7.66167e-06
2.92234e-05
-0.000140338
4.4982e-05
-0.000266208
5.31823e-05
-0.000333017
5.72605e-05
-0.000365497
5.94399e-05
-0.00038485
6.08236e-05
-0.00040113
6.1843e-05
-0.000417535
6.26612e-05
-0.000434821
6.33354e-05
-0.000453091
6.38898e-05
-0.000472418
6.43008e-05
-0.000492812
6.45915e-05
-0.000514244
6.4721e-05
-0.000537362
-0.000560966
6.49092e-05
6.84177e-06
8.19896e-07
2.90838e-05
-0.00016258
4.35621e-05
-0.000280686
5.0364e-05
-0.000339819
5.34212e-05
-0.000368554
5.50326e-05
-0.000386462
5.6075e-05
-0.000402172
5.68102e-05
-0.00041827
5.7335e-05
-0.000435345
5.76957e-05
-0.000453452
5.79008e-05
-0.000472623
5.79524e-05
-0.000492863
5.78924e-05
-0.000514185
5.76431e-05
-0.000537113
-0.000560696
5.7373e-05
9.70397e-06
-8.88408e-06
2.92104e-05
-0.000182086
4.16675e-05
-0.000293143
4.73369e-05
-0.000345488
4.96052e-05
-0.000370822
5.07036e-05
-0.00038756
5.13907e-05
-0.000402859
5.18268e-05
-0.000418706
5.20499e-05
-0.000435568
5.20831e-05
-0.000453485
5.19506e-05
-0.000472491
5.16533e-05
-0.000492566
5.12072e-05
-0.000513738
5.05789e-05
-0.000536485
-0.000560045
4.99281e-05
1.19298e-05
-2.08139e-05
2.91309e-05
-0.000199287
3.95401e-05
-0.000303552
4.40982e-05
-0.000350046
4.5765e-05
-0.000372489
4.64372e-05
-0.000388232
4.67757e-05
-0.000403198
4.68998e-05
-0.000418831
4.6816e-05
-0.000435485
4.65326e-05
-0.000453202
4.60553e-05
-0.000472014
4.53903e-05
-0.000491901
4.45779e-05
-0.000512926
4.35747e-05
-0.000535481
-0.000558942
4.2471e-05
1.34117e-05
-3.42256e-05
2.8603e-05
-0.000214479
3.72026e-05
-0.000312152
4.0733e-05
-0.000353577
4.18937e-05
-0.00037365
4.2218e-05
-0.000388556
4.22331e-05
-0.000403213
4.20404e-05
-0.000418638
4.1641e-05
-0.000435085
4.10279e-05
-0.000452589
4.02074e-05
-0.000471193
3.91852e-05
-0.000490879
3.79815e-05
-0.000511722
3.6587e-05
-0.000534087
-0.000557435
3.50802e-05
1.41155e-05
-4.83411e-05
2.76655e-05
-0.000228029
3.47144e-05
-0.000319201
3.73283e-05
-0.000356191
3.8034e-05
-0.000374355
3.80449e-05
-0.000388567
3.77549e-05
-0.000402923
3.72478e-05
-0.000418131
3.65282e-05
-0.000434366
3.55897e-05
-0.00045165
3.44261e-05
-0.00047003
3.30331e-05
-0.000489486
3.14409e-05
-0.00051013
2.96576e-05
-0.000532304
-0.000555493
2.77154e-05
1.41918e-05
-6.25329e-05
2.63406e-05
-0.000240178
3.20919e-05
-0.000324952
3.39264e-05
-0.000358025
3.42122e-05
-0.000374641
3.39267e-05
-0.000388282
3.33451e-05
-0.000402341
3.2528e-05
-0.000417314
3.14865e-05
-0.000433324
3.02135e-05
-0.000450377
2.87044e-05
-0.00046852
2.69576e-05
-0.000487739
2.49727e-05
-0.000508145
2.27435e-05
-0.000530074
-0.00055314
2.0391e-05
1.38584e-05
-7.63914e-05
2.47362e-05
-0.000251055
2.9387e-05
-0.000329603
3.05565e-05
-0.000359195
3.04544e-05
-0.000374539
2.98743e-05
-0.000387702
2.90023e-05
-0.000401469
2.78788e-05
-0.00041619
2.6515e-05
-0.00043196
2.49089e-05
-0.000448771
2.30554e-05
-0.000466667
2.09524e-05
-0.000485636
1.86014e-05
-0.000505794
1.59021e-05
-0.000527375
-0.000550333
1.30951e-05
1.32548e-05
-8.96462e-05
2.29249e-05
-0.000260725
2.6626e-05
-0.000333304
2.72308e-05
-0.000359799
2.67716e-05
-0.00037408
2.58986e-05
-0.000386829
2.47365e-05
-0.000400307
2.33072e-05
-0.000414761
2.16221e-05
-0.000430275
1.96787e-05
-0.000446828
1.74729e-05
-0.000464461
1.50154e-05
-0.000483179
1.23264e-05
-0.000503105
9.19016e-06
-0.000524239
-0.000546915
5.77183e-06
1.24738e-05
-0.00010212
2.0988e-05
-0.00026924
2.3855e-05
-0.000336171
2.3969e-05
-0.000359913
2.31767e-05
-0.000373288
2.20079e-05
-0.00038566
2.05492e-05
-0.000398848
1.88129e-05
-0.000413025
1.68063e-05
-0.000428268
1.45267e-05
-0.000444548
1.19709e-05
-0.000461905
9.14145e-06
-0.000480349
6.07933e-06
-0.000500043
2.77214e-06
-0.000520932
-0.000542611
-1.53146e-06
1.15605e-05
-0.000113681
1.89752e-05
-0.000276654
2.11058e-05
-0.000338301
2.07852e-05
-0.000359593
1.96751e-05
-0.000372178
1.82083e-05
-0.000384193
1.64495e-05
-0.00039709
1.4403e-05
-0.000410978
1.2073e-05
-0.000425938
9.4566e-06
-0.000441932
6.54897e-06
-0.000458998
3.34527e-06
-0.000477145
-2.63114e-07
-0.000496435
-3.75258e-06
-0.000517442
-0.000538182
-8.18191e-06
1.04723e-05
-0.000124153
1.69391e-05
-0.000283121
1.84165e-05
-0.000339779
1.76966e-05
-0.000358873
1.62732e-05
-0.000370754
1.45033e-05
-0.000382423
1.24376e-05
-0.000395024
1.00759e-05
-0.000408617
7.41762e-06
-0.00042328
4.46374e-06
-0.000438978
1.20343e-06
-0.000455737
-2.34584e-06
-0.000473596
-6.06519e-06
-0.000492715
-1.03397e-05
-0.000513168
-0.000533647
-1.4875e-05
9.45901e-06
-0.000133612
1.49313e-05
-0.000288593
1.58012e-05
-0.000340649
1.47072e-05
-0.000357779
1.29709e-05
-0.000369018
1.08949e-05
-0.000380347
8.51782e-06
-0.000392647
5.83296e-06
-0.000405932
2.8365e-06
-0.000420284
-4.61621e-07
-0.00043568
-4.02052e-06
-0.000452179
-7.86391e-06
-0.000469753
-1.1961e-05
-0.000488618
-1.67081e-05
-0.000508421
-0.000528813
-2.15424e-05
8.50116e-06
-0.000142113
1.29895e-05
-0.000293082
1.3272e-05
-0.000340931
1.18121e-05
-0.000356319
9.76778e-06
-0.000366974
7.38239e-06
-0.000377962
4.6832e-06
-0.000389948
1.65658e-06
-0.000402905
-1.64475e-06
-0.000416982
-5.22758e-06
-0.000432097
-9.1345e-06
-0.000448272
-1.33162e-05
-0.000465571
-1.78349e-05
-0.0004841
-2.29232e-05
-0.000503332
-0.00052362
-2.81162e-05
7.56911e-06
-0.000149682
1.11256e-05
-0.000296638
1.08392e-05
-0.000340645
9.01653e-06
-0.000354496
6.6627e-06
-0.00036462
3.9596e-06
-0.000375259
9.12673e-07
-0.000386901
-2.38359e-06
-0.000399609
-5.98524e-06
-0.000413381
-9.91667e-06
-0.000428165
-1.41558e-05
-0.000444033
-1.86977e-05
-0.000461029
-2.36471e-05
-0.00047915
-2.90217e-05
-0.000497958
-0.000518035
-3.46063e-05
6.66762e-06
-0.00015635
9.34743e-06
-0.000299318
8.5054e-06
-0.000339803
6.32434e-06
-0.000352315
3.6514e-06
-0.000361947
5.94094e-07
-0.000372201
-2.69469e-06
-0.000383612
-6.30733e-06
-0.000395996
-1.02471e-05
-0.000409441
-1.451e-05
-0.000423903
-1.9082e-05
-0.000439461
-2.39897e-05
-0.000456121
-2.93337e-05
-0.000473806
-3.50107e-05
-0.000492281
-0.000512065
-4.09807e-05
5.8013e-06
-0.000162151
7.65575e-06
-0.000301172
6.2802e-06
-0.000338427
3.73697e-06
-0.000349772
7.0598e-07
-0.000358916
-2.58466e-06
-0.000368911
-6.20213e-06
-0.000379994
-1.01457e-05
-0.000392053
-1.4414e-05
-0.000405173
-1.90036e-05
-0.000419313
-2.39136e-05
-0.000434551
-2.91792e-05
-0.000450856
-3.48629e-05
-0.000468123
-4.08969e-05
-0.000486247
-0.000505708
-4.72538e-05
4.97644e-06
-0.000167127
6.04962e-06
-0.000302246
4.16932e-06
-0.000336547
1.24073e-06
-0.000346843
-2.05819e-06
-0.000355617
-5.67467e-06
-0.000365294
-9.62147e-06
-0.000376048
-1.38908e-05
-0.000387783
-1.84836e-05
-0.00040058
-2.33994e-05
-0.000414397
-2.86437e-05
-0.000429306
-3.42549e-05
-0.000445245
-4.02762e-05
-0.000462101
-4.66671e-05