/*--------------------------------*- C++ -*----------------------------------*\
  =========                 |
  \\      /  F ield         | OpenFOAM: The Open Source CFD Toolbox
   \\    /   O peration     | Website:  https://openfoam.org
    \\  /    A nd           | Version:  7
     \\/     M anipulation  |
\*---------------------------------------------------------------------------*/
FoamFile
{
    version     2.0;
    format      ascii;
    class       volVectorField;
    location    "6.9993";
    object      U;
}
// * * * * * * * * * * * * * * * * * * * * * * * * * * * * * * * * * * * * * //

dimensions      [0 1 -1 0 0 0 0];

internalField   nonuniform List<vector> 
18750
(
(-0.0598162 0.0362136 -7.49762e-21)
(-0.200825 0.041722 3.09857e-21)
(-0.346429 0.0393216 4.45353e-20)
(-0.478416 0.0378065 1.13512e-20)
(-0.610029 0.0360568 -3.05085e-20)
(-0.733005 0.034094 -7.63505e-20)
(-0.850694 0.0317468 8.17444e-20)
(-0.958147 0.0290911 5.48059e-20)
(-1.05717 0.0261992 -4.11861e-20)
(-1.1455 0.0232499 -1.1124e-19)
(-1.22509 0.0203583 4.21643e-19)
(-1.29426 0.0175339 -3.44083e-19)
(-1.35361 0.0146132 2.02643e-19)
(-1.40101 0.011488 -3.86531e-19)
(-1.43663 0.00829663 9.06935e-20)
(-0.061846 0.10792 3.83746e-21)
(-0.201635 0.124542 1.23333e-20)
(-0.344952 0.117414 9.75966e-21)
(-0.47462 0.112889 8.14498e-20)
(-0.603692 0.107662 1.75453e-19)
(-0.72391 0.101793 2.42006e-19)
(-0.838566 0.0947785 -2.12514e-19)
(-0.942739 0.0868512 3.54458e-19)
(-1.03823 0.0782311 3.33729e-19)
(-1.12285 0.0694463 -1.06648e-19)
(-1.19867 0.0608411 -4.46603e-19)
(-1.26417 0.0524719 2.40383e-20)
(-1.31995 0.0438943 1.00559e-19)
(-1.36359 0.0347526 2.54586e-19)
(-1.39507 0.0252922 -3.76349e-19)
(-0.0658136 0.177492 1.86723e-20)
(-0.203243 0.205512 3.77498e-20)
(-0.342112 0.193878 -1.19647e-19)
(-0.467299 0.186406 1.29206e-20)
(-0.591535 0.177774 -3.23793e-19)
(-0.706597 0.168058 1.12713e-19)
(-0.815692 0.156462 -3.27708e-19)
(-0.913972 0.143393 -3.59739e-20)
(-1.00325 0.129218 -2.54718e-19)
(-1.08146 0.114784 7.68977e-19)
(-1.1509 0.100656 1.01329e-18)
(-1.21033 0.0870132 8.84285e-19)
(-1.26036 0.0732497 5.13991e-19)
(-1.2982 0.0586837 3.42414e-19)
(-1.32343 0.0432533 -6.10589e-19)
(-0.0715435 0.243592 -1.27517e-19)
(-0.205624 0.283462 1.60503e-19)
(-0.338097 0.267708 -1.27187e-19)
(-0.456904 0.257429 -2.79408e-19)
(-0.574382 0.245547 5.02503e-19)
(-0.682378 0.232131 -4.75699e-19)
(-0.784012 0.216146 7.2257e-19)
(-0.874574 0.198174 -6.2129e-19)
(-0.955908 0.178722 4.42024e-19)
(-1.02609 0.158913 -1.07986e-18)
(-1.08767 0.139542 -1.54036e-18)
(-1.1398 0.121017 8.47528e-20)
(-1.1833 0.10271 -2.88734e-19)
(-1.21507 0.0835218 -6.17767e-19)
(-1.23421 0.0626108 2.25982e-18)
(-0.078782 0.305015 -1.09839e-19)
(-0.208699 0.357297 2.51637e-19)
(-0.333095 0.338003 5.32807e-20)
(-0.443907 0.325167 2.16389e-19)
(-0.553084 0.310287 -3.07794e-19)
(-0.652571 0.293406 1.35636e-19)
(-0.745406 0.273308 1.72905e-18)
(-0.827079 0.250752 2.71816e-19)
(-0.899456 0.226392 4.86739e-19)
(-0.960757 0.201612 -1.6902e-19)
(-1.01377 0.177438 1.4717e-19)
(-1.05824 0.154574 -5.52888e-20)
(-1.09553 0.132494 -1.63042e-18)
(-1.12258 0.109666 -9.05873e-19)
(-1.13788 0.084095 -2.58809e-18)
(-0.0872709 0.360725 2.45303e-19)
(-0.212381 0.425993 9.70715e-20)
(-0.327252 0.404003 -1.23093e-19)
(-0.428767 0.388974 -9.25993e-20)
(-0.528491 0.371455 1.1061e-19)
(-0.618448 0.351456 -1.45711e-18)
(-0.701609 0.327649 -1.85957e-19)
(-0.773698 0.300966 9.48753e-20)
(-0.836608 0.27221 -7.15034e-19)
(-0.888725 0.242991 -9.81775e-19)
(-0.933147 0.214562 7.11444e-19)
(-0.970387 0.187997 -6.99099e-19)
(-1.00272 0.163041 2.13793e-18)
(-1.02743 0.137805 -1.6508e-18)
(-1.04186 0.108824 3.56063e-18)
(-0.0966827 0.409752 -2.29824e-19)
(-0.21648 0.48869 -3.8603e-19)
(-0.320633 0.465101 1.66731e-19)
(-0.41191 0.448347 1.26479e-18)
(-0.501382 0.428627 1.3118e-18)
(-0.581147 0.405946 -4.67989e-19)
(-0.654114 0.378908 2.405e-19)
(-0.716279 0.348593 1.57271e-19)
(-0.76959 0.315963 1.53984e-18)
(-0.812661 0.282884 2.12386e-18)
(-0.848916 0.25091 -1.0285e-18)
(-0.87966 0.221566 -1.95531e-18)
(-0.90814 0.194884 -3.60578e-18)
(-0.932019 0.168568 6.05316e-19)
(-0.946609 0.137462 -4.3715e-18)
(-0.106591 0.451072 -2.09566e-19)
(-0.220724 0.544633 -2.45741e-19)
(-0.313252 0.5209 -1.81216e-18)
(-0.393704 0.502918 6.5865e-19)
(-0.472447 0.481504 -7.82131e-19)
(-0.541641 0.456656 5.49055e-19)
(-0.604165 0.426951 5.91803e-19)
(-0.656307 0.393609 -2.59243e-18)
(-0.700099 0.357788 -1.732e-18)
(-0.734417 0.32166 -2.9162e-18)
(-0.762931 0.287091 -4.89402e-19)
(-0.787563 0.255935 2.07726e-18)
(-0.812326 0.228368 8.0711e-18)
(-0.835095 0.201741 -1.22834e-18)
(-0.848503 0.169399 2.18103e-18)
(-0.116516 0.48396 1.1193e-18)
(-0.224825 0.593431 4.52661e-19)
(-0.305112 0.57112 1.99087e-18)
(-0.374473 0.552439 -1.48932e-18)
(-0.442256 0.52987 7.1917e-19)
(-0.500745 0.503428 -1.2213e-18)
(-0.552788 0.471666 -2.84019e-18)
(-0.594974 0.435929 2.54238e-18)
(-0.629426 0.397585 3.04377e-19)
(-0.655272 0.35912 4.34425e-18)
(-0.67632 0.322699 -1.40541e-18)
(-0.694821 0.290448 -6.29684e-18)
(-0.715128 0.262679 -3.82424e-18)
(-0.735119 0.236428 3.9612e-19)
(-0.74526 0.203668 -1.8334e-18)
(-0.12579 0.507537 -9.28669e-19)
(-0.228281 0.634526 -5.30354e-19)
(-0.296149 0.615661 6.88948e-19)
(-0.354468 0.596755 1.05804e-19)
(-0.411296 0.573602 -2.83081e-19)
(-0.459138 0.546169 -3.2617e-19)
(-0.500821 0.512979 1.29586e-18)
(-0.533205 0.475496 -1.54021e-18)
(-0.558483 0.435317 1.51783e-18)
(-0.576021 0.395277 1.88345e-18)
(-0.589629 0.357864 -3.33147e-18)
(-0.601561 0.325361 6.29133e-18)
(-0.61606 0.297981 7.387e-19)
(-0.631027 0.272209 9.92046e-19)
(-0.63639 0.239194 2.27978e-18)
(-0.133789 0.521556 1.73432e-18)
(-0.230753 0.668117 -5.69659e-19)
(-0.286327 0.654421 -2.58538e-18)
(-0.333914 0.635781 1.03983e-18)
(-0.379935 0.612648 -6.07711e-19)
(-0.417355 0.584821 7.23296e-19)
(-0.448917 0.550812 5.44861e-18)
(-0.471729 0.512209 2.64525e-18)
(-0.488004 0.470832 1.75336e-18)
(-0.4973 0.429834 -5.8744e-18)
(-0.503362 0.391974 6.37872e-18)
(-0.508218 0.359625 2.30245e-18)
(-0.515686 0.332817 -3.71681e-18)
(-0.523539 0.307658 4.50382e-18)
(-0.522798 0.275064 -1.48364e-19)
(-0.139424 0.525096 3.34438e-19)
(-0.231581 0.693827 9.3052e-20)
(-0.275589 0.687358 -1.66313e-19)
(-0.312919 0.669554 -1.85817e-18)
(-0.348466 0.647046 3.73358e-18)
(-0.375843 0.619388 -1.93412e-18)
(-0.397644 0.585115 -5.7442e-18)
(-0.411155 0.545957 1.74747e-18)
(-0.418581 0.503926 -2.83772e-18)
(-0.419659 0.462486 4.38743e-18)
(-0.418002 0.424693 -7.84686e-18)
(-0.415272 0.393032 5.97554e-19)
(-0.414584 0.367301 3.30235e-18)
(-0.41335 0.342992 -6.92833e-18)
(-0.404685 0.310233 -1.63748e-18)
(-0.141963 0.518856 -1.13481e-18)
(-0.230492 0.712274 3.34763e-19)
(-0.263919 0.714294 1.0248e-18)
(-0.291563 0.698168 -5.06876e-20)
(-0.317104 0.676901 -5.05369e-18)
(-0.334944 0.649878 4.95026e-19)
(-0.347413 0.615831 1.87776e-18)
(-0.351971 0.576603 -5.07543e-18)
(-0.350779 0.534375 3.78356e-18)
(-0.343687 0.492902 -3.4767e-18)
(-0.334146 0.455462 9.50064e-18)
(-0.323413 0.424642 -3.95012e-18)
(-0.314041 0.40005 4.74094e-18)
(-0.303031 0.37669 9.68417e-18)
(-0.284254 0.344683 4.19618e-18)
(-0.140652 0.503312 -4.38675e-19)
(-0.226931 0.722902 -1.02844e-21)
(-0.251274 0.735242 -4.47983e-20)
(-0.269786 0.721975 -1.08629e-19)
(-0.285996 0.702377 -2.40428e-18)
(-0.294944 0.676392 -1.08436e-18)
(-0.298611 0.642975 1.80998e-18)
(-0.294642 0.60405 1.10947e-18)
(-0.285102 0.561967 -6.38811e-18)
(-0.269959 0.520712 -3.39957e-19)
(-0.252491 0.483793 -1.86687e-18)
(-0.233545 0.453895 3.73495e-18)
(-0.215176 0.430686 -5.26637e-18)
(-0.194265 0.409041 -7.82355e-19)
(-0.161981 0.377863 -4.74174e-18)
(-0.135162 0.478555 1.93334e-18)
(-0.220366 0.72516 -1.70122e-18)
(-0.237506 0.750671 -2.40482e-18)
(-0.247636 0.74133 4.36039e-18)
(-0.255315 0.723688 3.92376e-18)
(-0.25604 0.699042 5.10127e-18)
(-0.251503 0.666561 2.29306e-19)
(-0.239493 0.628213 3.52627e-18)
(-0.221995 0.58649 4.75735e-18)
(-0.199068 0.5456 7.09789e-18)
(-0.173824 0.509168 -3.28113e-18)
(-0.146657 0.480094 6.81892e-18)
(-0.119245 0.457902 -6.69322e-20)
(-0.0894301 0.437981 -3.51225e-18)
(-0.0435704 0.411093 -8.69156e-18)
(-0.125248 0.44457 -1.19269e-18)
(-0.210491 0.719049 1.9184e-18)
(-0.222397 0.760768 1.282e-18)
(-0.225144 0.756444 -4.06603e-18)
(-0.22518 0.741136 -1.95225e-18)
(-0.218419 0.718084 -3.66713e-19)
(-0.206355 0.686776 -2.65912e-18)
(-0.18689 0.649145 -4.62686e-18)
(-0.161915 0.607887 -7.92175e-18)
(-0.131592 0.567352 -3.45042e-18)
(-0.0988799 0.531338 4.78497e-18)
(-0.0638453 0.50277 -1.00479e-17)
(-0.0273187 0.48133 3.08936e-19)
(0.0104441 0.46332 6.35797e-18)
(0.071367 0.44117 9.26877e-18)
(-0.110762 0.401572 -2.8241e-18)
(-0.197209 0.704707 2.23267e-18)
(-0.205854 0.76554 -3.91918e-18)
(-0.202353 0.767543 -1.89888e-18)
(-0.19562 0.754959 -1.313e-19)
(-0.182174 0.73372 2.733e-18)
(-0.16332 0.703737 4.53319e-18)
(-0.137072 0.666934 1.51965e-18)
(-0.105225 0.626223 2.21348e-18)
(-0.0680124 0.585936 -6.14495e-18)
(-0.0284401 0.550058 1.05363e-19)
(0.013812 0.521688 -4.68973e-18)
(0.0595352 0.499604 -3.51746e-18)
(0.101962 0.481682 -1.01026e-17)
(0.182491 0.470748 -1.79063e-19)
(-0.0918575 0.350111 2.48407e-18)
(-0.180635 0.682099 3.93926e-19)
(-0.187962 0.764842 6.31718e-19)
(-0.179366 0.774819 4.72876e-18)
(-0.166698 0.765427 2.00061e-18)
(-0.147354 0.746172 -2.55006e-18)
(-0.122473 0.717619 2.00344e-18)
(-0.0901765 0.681777 -1.1776e-18)
(-0.0522059 0.641638 -2.34097e-18)
(-0.00873853 0.601371 2.76899e-18)
(0.0371589 0.565274 -9.07196e-18)
(0.0850024 0.536768 -2.91445e-19)
(0.141208 0.514173 -5.05684e-18)
(0.183686 0.49263 7.9481e-18)
(0.286693 0.491713 6.44621e-19)
(-0.0693753 0.29108 -9.33645e-19)
(-0.161141 0.650854 -2.64435e-18)
(-0.168948 0.758178 7.2761e-19)
(-0.156311 0.77822 -5.37355e-18)
(-0.138474 0.772773 -3.74419e-18)
(-0.113989 0.755734 -2.11379e-18)
(-0.0838368 0.728743 -3.77939e-18)
(-0.0462531 0.693926 3.6552e-18)
(-0.00297759 0.654274 5.20939e-18)
(0.0459148 0.613852 1.01313e-17)
(0.0979129 0.576823 -3.76705e-19)
(0.148656 0.548279 1.13908e-17)
(0.217279 0.52387 4.54005e-18)
(0.252145 0.496077 3.45394e-18)
(0.385893 0.51329 -7.87136e-18)
(-0.045376 0.225507 1.59867e-18)
(-0.139439 0.610144 4.01339e-18)
(-0.149126 0.744606 2.7757e-18)
(-0.13337 0.777487 3.7284e-18)
(-0.111043 0.777158 3.67947e-20)
(-0.0820968 0.762679 1.52181e-18)
(-0.0474199 0.737385 3.8269e-20)
(-0.00525318 0.703599 -2.827e-18)
(0.0424741 0.664345 4.36064e-18)
(0.0954477 0.62382 -1.52905e-17)
(0.154694 0.584816 4.51127e-18)
(0.203624 0.556689 -3.01074e-18)
(0.291044 0.533751 5.96096e-19)
(0.304429 0.483306 -4.42896e-18)
(0.470281 0.519639 -4.93503e-18)
(-0.024662 0.155012 -2.61133e-18)
(-0.116581 0.5585 3.48088e-18)
(-0.128784 0.722577 -9.1168e-19)
(-0.110708 0.77193 -1.53936e-18)
(-0.0844871 0.778561 3.28968e-18)
(-0.0517006 0.767253 3.66003e-19)
(-0.0132359 0.743875 -1.01132e-18)
(0.0328086 0.711101 -1.21715e-19)
(0.0846888 0.671961 -2.81546e-18)
(0.139053 0.631959 7.29687e-18)
(0.208552 0.589555 4.37201e-18)
(0.24798 0.559333 2.2799e-18)
(0.3637 0.549353 -1.93046e-19)
(0.352463 0.477262 5.48764e-18)
(0.534799 0.497537 -4.66883e-19)
(-0.0131886 0.0848267 7.64239e-19)
(-0.0940846 0.494078 -8.47656e-19)
(-0.1081 0.69023 6.36168e-19)
(-0.0884857 0.760499 2.84596e-18)
(-0.0589531 0.776592 -1.83506e-18)
(-0.0227999 0.769451 -1.18555e-18)
(0.0187844 0.74836 -2.30738e-18)
(0.0676888 0.716887 1.81682e-18)
(0.124543 0.677234 -1.91103e-18)
(0.17614 0.638721 -2.13136e-18)
(0.261596 0.594098 -3.81202e-18)
(0.281232 0.552371 -2.22959e-18)
(0.429376 0.557995 7.86187e-18)
(0.403251 0.49036 -1.08567e-17)
(0.591597 0.48189 -2.74384e-19)
(-0.0095343 0.0240343 3.27431e-18)
(-0.0729172 0.414909 -1.27417e-18)
(-0.0871223 0.645485 -3.30362e-18)
(-0.0667768 0.741401 -8.99055e-19)
(-0.0345556 0.770418 4.74484e-18)
(0.00451865 0.769136 -7.11879e-20)
(0.0488878 0.750952 2.33301e-18)
(0.0988024 0.721434 -1.29147e-18)
(0.163272 0.680364 -5.02872e-18)
(0.20591 0.643026 1.17535e-17)
(0.314987 0.602923 -8.56746e-18)
(0.309094 0.543928 2.5177e-18)
(0.483736 0.547123 -1.11363e-17)
(0.450711 0.497778 3.94534e-18)
(0.643642 0.478715 3.18833e-18)
(-0.0051641 -0.019717 -1.16834e-18)
(-0.0527714 0.319392 -3.72308e-18)
(-0.0657858 0.586656 1.68154e-18)
(-0.0457125 0.712329 2.9636e-19)
(-0.0114797 0.758389 -4.23246e-18)
(0.0300227 0.765723 2.63988e-18)
(0.0776175 0.751389 1.17507e-19)
(0.125357 0.725036 -6.42281e-19)
(0.201757 0.682584 -5.01223e-18)
(0.228859 0.641899 -6.23089e-19)
(0.366423 0.613915 6.7237e-18)
(0.338978 0.547101 5.29142e-19)
(0.529979 0.531421 1.58246e-18)
(0.493926 0.490267 4.47947e-18)
(0.69037 0.471784 -1.1433e-17)
(0.00375481 -0.043741 -1.76973e-18)
(-0.036018 0.210847 4.59869e-20)
(-0.0443972 0.511278 -2.13559e-18)
(-0.0254589 0.670094 1.7281e-18)
(0.0101972 0.738392 2.37137e-18)
(0.0529691 0.758211 -1.78691e-18)
(0.105544 0.749154 -3.1967e-19)
(0.147096 0.726984 -1.47797e-18)
(0.239964 0.68679 3.82928e-18)
(0.246551 0.635203 7.08655e-19)
(0.411905 0.616629 -9.60979e-18)
(0.372507 0.557496 2.53979e-18)
(0.571958 0.529588 1.60342e-18)
(0.53641 0.482583 -7.24197e-18)
(0.735801 0.467258 1.71637e-18)
(0.0128468 -0.0510166 4.01335e-19)
(-0.025339 0.106085 1.06066e-18)
(-0.0249213 0.417911 1.99819e-18)
(-0.00657814 0.61102 -1.68222e-18)
(0.030306 0.706891 -7.52692e-20)
(0.072449 0.744784 4.25864e-18)
(0.132569 0.74329 -2.05841e-19)
(0.163807 0.724697 2.15652e-20)
(0.277482 0.694611 5.99061e-18)
(0.263738 0.63052 -3.38991e-18)
(0.445666 0.607258 2.48619e-18)
(0.407984 0.558159 -6.8446e-18)
(0.606842 0.531138 5.90103e-19)
(0.577791 0.477636 -1.76346e-18)
(0.782301 0.46522 3.13212e-18)
(0.0176047 -0.0477628 -2.91423e-19)
(-0.0135437 0.0283692 1.36063e-18)
(-0.00821511 0.305729 -1.7652e-18)
(0.0097159 0.532119 3.72099e-18)
(0.0486473 0.660075 -3.11126e-18)
(0.0869717 0.721776 -2.80545e-18)
(0.15815 0.733488 -1.72919e-18)
(0.175511 0.714727 -3.67712e-18)
(0.308217 0.69959 -7.16129e-18)
(0.290314 0.635591 1.13853e-18)
(0.462428 0.597904 5.61868e-18)
(0.44982 0.551346 4.42739e-18)
(0.628833 0.523635 7.50184e-19)
(0.623437 0.470143 -3.68722e-18)
(0.827966 0.460782 -1.81256e-18)
(0.0184717 -0.0404122 7.33342e-19)
(0.00519206 -0.0157135 1.28632e-18)
(0.00525796 0.180935 -5.39249e-18)
(0.0219279 0.430233 -3.69099e-18)
(0.0643549 0.592712 -1.08834e-19)
(0.0956693 0.683725 2.92232e-18)
(0.178927 0.717041 -1.03692e-18)
(0.186659 0.698819 8.15406e-18)
(0.32195 0.689691 7.60307e-19)
(0.326731 0.643123 -4.3958e-18)
(0.466834 0.593498 -4.29183e-18)
(0.505032 0.554634 -6.74694e-18)
(0.63569 0.511737 7.48166e-18)
(0.689521 0.471272 4.91115e-18)
(0.866423 0.455968 6.5577e-21)
(0.0184958 -0.0330795 -2.03825e-18)
(0.0255249 -0.0339011 -3.78778e-18)
(0.0193177 0.078715 2.69696e-18)
(0.0283673 0.309771 3.28985e-18)
(0.0754352 0.499999 2.02184e-18)
(0.0977838 0.622857 -2.01618e-18)
(0.189542 0.686997 5.1031e-18)
(0.199434 0.679675 -7.10297e-18)
(0.318959 0.66417 7.93313e-18)
(0.362237 0.640337 4.99625e-18)
(0.460978 0.578583 -1.51731e-18)
(0.568725 0.564713 -2.14344e-18)
(0.627622 0.491238 -2.9778e-18)
(0.782005 0.485902 -5.8572e-18)
(0.876214 0.435569 6.99619e-18)
(0.0206244 -0.0277766 5.81611e-18)
(0.0439265 -0.0380364 4.46262e-18)
(0.040076 0.0236209 1.01611e-18)
(0.0337407 0.189511 -4.745e-20)
(0.0801462 0.385183 -6.85031e-19)
(0.0932611 0.532636 -8.35106e-19)
(0.183271 0.628457 -3.97006e-18)
(0.211197 0.653284 6.68712e-18)
(0.300455 0.62399 -5.16424e-18)
(0.393531 0.629271 -5.28025e-20)
(0.442585 0.542692 4.95684e-18)
(0.622848 0.564715 3.47108e-18)
(0.608138 0.455003 3.48633e-18)
(0.870897 0.494183 -3.77235e-20)
(0.841815 0.378821 -4.19535e-18)
(0.0259755 -0.025228 -3.50691e-18)
(0.061181 -0.0385223 -3.637e-18)
(0.0630862 0.00137566 1.16199e-18)
(0.0474081 0.102114 -1.83916e-18)
(0.0763893 0.264142 -8.19395e-19)
(0.0880999 0.423585 2.97053e-18)
(0.154457 0.527896 -8.00482e-19)
(0.215534 0.605067 -7.08216e-19)
(0.268107 0.5649 -1.968e-18)
(0.407376 0.599007 -4.53978e-18)
(0.421733 0.500447 2.07851e-18)
(0.640438 0.531394 -2.56018e-18)
(0.577848 0.415999 -3.96041e-18)
(0.923887 0.462271 -1.83408e-18)
(0.589416 0.271542 7.41204e-18)
(0.0337983 -0.0254724 3.99862e-18)
(0.077029 -0.0409347 -3.15925e-18)
(0.0809137 -0.0102268 -5.17925e-18)
(0.0657919 0.0560058 5.02981e-19)
(0.0683394 0.161216 1.2777e-18)
(0.0780026 0.312128 -8.07418e-19)
(0.118038 0.401472 2.25546e-18)
(0.189862 0.513168 4.66798e-19)
(0.242499 0.48887 -2.21313e-19)
(0.368264 0.523485 1.85375e-19)
(0.423588 0.453264 -2.12605e-18)
(0.579688 0.457243 3.1462e-19)
(0.612615 0.380149 1.28301e-18)
(0.754292 0.369433 -9.99649e-19)
(0.687684 0.259465 6.88286e-18)
(0.0425504 -0.0280424 8.52254e-19)
(0.0888152 -0.0467566 -1.84074e-18)
(0.0899144 -0.0238029 5.09422e-18)
(0.0753861 0.0273409 3.95382e-18)
(0.0577175 0.0880946 -3.92646e-18)
(0.0584079 0.207878 -2.21098e-19)
(0.0790097 0.276712 -1.68567e-18)
(0.138252 0.382644 -5.98971e-19)
(0.207903 0.386557 4.05652e-18)
(0.302946 0.40993 2.05517e-18)
(0.397917 0.371341 2.70622e-18)
(0.523526 0.363342 -2.28979e-18)
(0.534879 0.297149 1.53115e-18)
(0.758473 0.320137 -9.36829e-19)
(1.02342 0.32388 -8.80282e-18)
(0.0498617 -0.0318756 6.8282e-19)
(0.0932256 -0.0552823 1.07719e-18)
(0.0877047 -0.0420264 -2.82277e-18)
(0.0679128 -0.00321367 -3.22797e-18)
(0.0390219 0.0324662 -2.96078e-18)
(0.0264964 0.113794 2.58221e-19)
(0.0308011 0.16076 1.94889e-18)
(0.0795548 0.240766 -3.41549e-18)
(0.143511 0.251169 -1.66135e-18)
(0.237527 0.276951 8.95135e-19)
(0.349454 0.25434 -2.49673e-18)
(0.419929 0.244715 2.4363e-19)
(0.592857 0.254531 1.83345e-18)
(0.953825 0.333661 -2.57906e-18)
(1.16305 0.364097 2.09463e-18)
(0.0531755 -0.0355165 -1.53137e-18)
(0.087854 -0.0646997 3.4965e-18)
(0.0728897 -0.0634591 2.33218e-18)
(0.0430365 -0.0394126 1.56646e-18)
(0.00644432 -0.0210976 2.5397e-18)
(-0.0202446 0.0267896 -2.58121e-19)
(-0.0270459 0.0514418 -1.83821e-18)
(0.00752611 0.0993228 4.24506e-19)
(0.0747611 0.102112 2.16818e-18)
(0.173574 0.135723 -3.457e-18)
(0.28652 0.133073 -1.64433e-18)
(0.484687 0.194417 1.3982e-19)
(0.826073 0.284082 -5.39433e-19)
(1.0939 0.361348 3.12958e-18)
(1.28279 0.377228 -2.83703e-18)
(0.0506542 -0.0373577 1.68247e-18)
(0.07254 -0.0730428 1.14018e-18)
(0.0462128 -0.0849695 -1.33303e-19)
(0.00459374 -0.0780123 -1.01931e-18)
(-0.0414226 -0.0757766 2.17319e-19)
(-0.0810344 -0.0558596 -2.96929e-18)
(-0.0964542 -0.0540109 6.12857e-19)
(-0.067355 -0.0363374 -1.16566e-18)
(0.0166015 -0.029964 -1.17532e-18)
(0.152168 0.0264335 2.37744e-18)
(0.412593 0.106038 3.52611e-18)
(0.732009 0.231666 1.73653e-18)
(1.00429 0.321017 1.83109e-18)
(1.20618 0.368972 -2.37627e-18)
(1.31968 0.372839 -2.43685e-18)
(0.0415311 -0.0362407 1.41172e-18)
(0.0488222 -0.0778586 -2.65356e-18)
(0.0104704 -0.102526 -1.29543e-18)
(-0.0427122 -0.112889 -2.92717e-18)
(-0.100483 -0.126041 1.32607e-18)
(-0.150914 -0.129531 3.10686e-18)
(-0.166219 -0.144456 -3.48472e-18)
(-0.107249 -0.13613 1.15377e-18)
(0.0610154 -0.0909211 1.96424e-18)
(0.332937 0.0245115 5.83871e-19)
(0.668567 0.156402 -2.41529e-18)
(0.923749 0.271651 -1.00434e-18)
(1.12191 0.329341 -2.49402e-22)
(1.24069 0.358815 1.35841e-18)
(1.3181 0.35613 5.23988e-18)
(0.026521 -0.0314097 -2.26559e-18)
(0.0192999 -0.0765857 -2.28986e-18)
(-0.0295019 -0.111556 1.30012e-18)
(-0.0922023 -0.135526 5.20918e-18)
(-0.158484 -0.159666 -3.39812e-18)
(-0.206778 -0.17654 9.01078e-19)
(-0.187681 -0.192601 1.36738e-18)
(-0.03105 -0.16022 -1.35242e-19)
(0.268796 -0.0523236 2.46852e-19)
(0.595718 0.0859082 1.24687e-18)
(0.856209 0.198116 -1.18283e-18)
(1.04395 0.280586 -2.34444e-18)
(1.17293 0.321038 -2.0948e-18)
(1.26573 0.344485 1.73796e-18)
(1.34502 0.344364 5.02758e-19)
(0.00763537 -0.0229079 -5.71539e-19)
(-0.0120206 -0.0676938 4.60064e-18)
(-0.0671366 -0.107752 9.9537e-19)
(-0.133031 -0.137527 1.42465e-18)
(-0.195659 -0.164822 1.2987e-18)
(-0.218501 -0.183801 1.19263e-18)
(-0.126403 -0.188283 -3.94986e-19)
(0.167478 -0.108035 7.84988e-19)
(0.518257 0.019368 3.83198e-19)
(0.784095 0.128175 1.66743e-18)
(0.981566 0.213243 2.86348e-20)
(1.11636 0.279633 1.61536e-18)
(1.22016 0.312716 -1.3298e-18)
(1.28854 0.332769 -1.25539e-18)
(1.32266 0.328684 8.23718e-19)
(-0.0123889 -0.0117525 2.08515e-18)
(-0.0410515 -0.0515971 -1.87859e-18)
(-0.0965075 -0.0905751 2.42518e-19)
(-0.156996 -0.118613 -2.88741e-18)
(-0.202726 -0.142339 -2.49132e-18)
(-0.182884 -0.15779 4.43272e-18)
(0.00930449 -0.142835 1.26846e-18)
(0.40616 -0.0279295 -1.72974e-18)
(0.705204 0.0673233 5.11058e-19)
(0.923381 0.152076 -4.5212e-18)
(1.07422 0.225169 1.53862e-18)
(1.17949 0.279503 -1.85414e-18)
(1.24715 0.304434 2.12959e-18)
(1.28556 0.319796 -2.59593e-19)
(1.33502 0.316326 -1.21341e-18)
(-0.0309134 0.00030757 -3.28562e-18)
(-0.0651345 -0.0309381 -3.38404e-18)
(-0.115491 -0.0641969 -3.47953e-18)
(-0.163562 -0.0854278 -2.74145e-18)
(-0.185403 -0.10218 1.83427e-18)
(-0.112083 -0.116761 -7.79674e-18)
(0.208293 -0.0591986 7.14301e-19)
(0.595867 0.0286332 6.80245e-19)
(0.857222 0.106433 3.65204e-19)
(1.03418 0.177157 2.12959e-18)
(1.14845 0.236612 -1.78032e-18)
(1.21564 0.277515 4.066e-18)
(1.26155 0.296281 -8.42526e-19)
(1.29995 0.309754 -1.56849e-18)
(1.32087 0.304606 8.67696e-19)
(-0.0460282 0.0115052 5.86815e-19)
(-0.0831874 -0.00905973 2.76299e-18)
(-0.124839 -0.0341573 4.03973e-18)
(-0.156505 -0.0465285 6.24594e-19)
(-0.153306 -0.0587414 3.47656e-18)
(-0.00984009 -0.0758591 1.96401e-18)
(0.414415 0.0180069 6.14581e-19)
(0.753471 0.0783579 -2.87289e-18)
(0.98063 0.14378 -1.59808e-19)
(1.11944 0.198417 1.18476e-18)
(1.19617 0.244809 4.38416e-18)
(1.24399 0.275672 -5.41244e-19)
(1.27723 0.290253 1.42856e-18)
(1.29247 0.30064 1.31484e-18)
(1.31962 0.294798 2.03488e-18)
(-0.0567231 0.0205637 1.10862e-18)
(-0.0952286 0.0112064 -3.72431e-18)
(-0.126374 -0.00503153 -7.80491e-19)
(-0.139929 -0.00765862 2.5235e-20)
(-0.111685 -0.0213639 -6.58682e-18)
(0.135955 -0.01248 1.7581e-18)
(0.58273 0.0688236 -8.52336e-19)
(0.89176 0.124311 9.74268e-19)
(1.07853 0.175964 3.08525e-18)
(1.18005 0.217039 -1.03608e-18)
(1.23414 0.253067 -3.38961e-18)
(1.26292 0.274802 -4.36973e-19)
(1.27933 0.285693 -4.85442e-19)
(1.29937 0.293886 -1.04885e-18)
(1.31597 0.287241 -2.20856e-18)
(-0.0627004 0.0268204 2.3124e-19)
(-0.101764 0.0279845 1.00888e-18)
(-0.121797 0.0203888 -2.66217e-18)
(-0.119345 0.0263453 1.14338e-18)
(-0.0589559 -0.000616386 2.76436e-18)
(0.30831 0.0583598 -1.19978e-18)
(0.728159 0.120321 -2.73196e-19)
(1.00074 0.165295 -2.61617e-18)
(1.15077 0.204413 4.88001e-19)
(1.22563 0.233798 -1.75952e-18)
(1.25737 0.26012 1.62674e-18)
(1.27388 0.274543 -1.29432e-18)
(1.28824 0.282932 2.20079e-18)
(1.29433 0.288168 -7.95142e-19)
(1.30669 0.2805 -1.58336e-18)
(-0.0642813 0.0301506 1.1986e-18)
(-0.103321 0.0401334 7.48883e-19)
(-0.111969 0.0416039 6.80433e-19)
(-0.0987892 0.0511898 1.65133e-19)
(0.0200717 0.0160835 1.2312e-18)
(0.475774 0.105991 -3.06345e-18)
(0.859175 0.162117 1.67696e-18)
(1.0904 0.200103 3.69984e-18)
(1.20667 0.228659 -3.69946e-19)
(1.2555 0.24811 2.60237e-18)
(1.27425 0.266867 1.51783e-18)
(1.2835 0.275203 2.60592e-19)
(1.2863 0.281362 4.45558e-19)
(1.29503 0.284155 8.29031e-19)
(1.30779 0.276404 1.85982e-18)
(-0.0622665 0.0306234 1.83477e-18)
(-0.100517 0.0470293 2.62445e-18)
(-0.0981342 0.0588046 -2.38591e-18)
(-0.0792747 0.062724 2.228e-18)
(0.128225 0.0557806 -5.27314e-18)
(0.617571 0.149663 1.35021e-18)
(0.964131 0.200796 -4.64653e-19)
(1.15633 0.230139 -2.30676e-18)
(1.24322 0.249025 -3.93017e-18)
(1.27614 0.260663 -1.45187e-18)
(1.28415 0.272822 -3.5195e-18)
(1.28598 0.276512 2.12787e-18)
(1.29024 0.281238 -2.74214e-18)
(1.2927 0.281075 1.77452e-18)
(1.29644 0.272573 1.155e-18)
(-0.0578826 0.0285557 -4.34306e-18)
(-0.0944838 0.0484763 1.44342e-19)
(-0.0844547 0.0690577 3.27161e-19)
(-0.0536326 0.0537176 6.24013e-19)
(0.273893 0.101422 4.06633e-19)
(0.749731 0.187187 2.54678e-18)
(1.05335 0.232363 1.35047e-18)
(1.20756 0.254457 -3.53211e-19)
(1.27079 0.265918 1.75816e-18)
(1.2886 0.271349 1.09438e-18)
(1.28989 0.278618 4.92256e-19)
(1.29027 0.278637 -1.19014e-18)
(1.28728 0.2817 3.78478e-18)
(1.28935 0.279055 6.29399e-19)
(1.29729 0.271139 -1.26792e-18)
(-0.0526175 0.0245891 3.98421e-18)
(-0.0864254 0.0461204 -2.85153e-18)
(-0.0754371 0.0694146 9.18146e-19)
(-0.00872386 0.0340727 -9.55954e-20)
(0.435113 0.137301 4.86137e-18)
(0.865486 0.217596 -3.9346e-19)
(1.1211 0.258024 -1.63342e-18)
(1.24235 0.27424 3.82335e-18)
(1.28584 0.279684 3.45084e-19)
(1.29552 0.280706 1.42462e-18)
(1.29294 0.283806 -2.81249e-18)
(1.28871 0.281023 7.18038e-20)
(1.28746 0.283175 -1.16565e-18)
(1.2881 0.277947 -2.14454e-19)
(1.28705 0.269804 -7.23751e-19)
(-0.0475781 0.0194567 -1.06755e-18)
(-0.0772833 0.0425114 2.94763e-18)
(-0.071752 0.0582032 1.79338e-18)
(0.0679899 0.033969 1.41127e-18)
(0.58007 0.171477 -8.02947e-19)
(0.962437 0.245421 -3.08881e-19)
(1.1744 0.279483 2.04807e-18)
(1.2673 0.290294 -1.63199e-18)
(1.29679 0.291294 4.7806e-19)
(1.29901 0.288824 -2.4194e-18)
(1.29307 0.288909 1.63575e-19)
(1.28963 0.284197 3.4428e-19)
(1.2843 0.284869 -4.82362e-19)
(1.28263 0.277407 -2.79799e-18)
(1.28555 0.270416 1.12858e-18)
(-0.0433438 0.0137029 -1.85922e-18)
(-0.0695229 0.0386779 -2.32172e-18)
(-0.0662887 0.0344653 1.22009e-18)
(0.187648 0.0669955 -1.60395e-19)
(0.709636 0.202587 -1.95191e-18)
(1.0437 0.267979 -6.16768e-20)
(1.21404 0.296048 -1.46058e-18)
(1.283 0.302748 -2.79203e-18)
(1.30062 0.300532 -1.09315e-18)
(1.29913 0.295982 1.00278e-18)
(1.29264 0.293656 8.84868e-19)
(1.28619 0.287268 -8.60169e-20)
(1.28183 0.28716 -1.31958e-18)
(1.28116 0.27787 2.32364e-18)
(1.27731 0.271084 6.90046e-19)
(-0.0404032 0.00878302 1.81839e-18)
(-0.0679578 0.0318524 5.11938e-22)
(-0.0434209 0.00299086 -2.98472e-18)
(0.346675 0.110906 -6.22572e-20)
(0.82443 0.227866 4.57088e-19)
(1.10733 0.286951 8.51098e-19)
(1.24266 0.31016 -1.49721e-18)
(1.29253 0.313349 7.64042e-19)
(1.30279 0.30888 -3.54531e-20)
(1.29829 0.302553 8.0695e-19)
(1.28996 0.298324 -7.02946e-19)
(1.28481 0.291064 -1.9153e-18)
(1.27855 0.289607 -9.08349e-20)
(1.27484 0.278481 -1.12226e-18)
(1.27348 0.273042 -9.28686e-19)
(-0.0389875 0.00741265 7.30991e-19)
(-0.0724605 0.0202761 -1.50262e-18)
(0.00909713 -0.0174431 1.50904e-18)
(0.507659 0.148853 -4.72695e-19)
(0.923375 0.250725 -2.64309e-19)
(1.15805 0.302714 -7.47104e-19)
(1.26307 0.321086 1.19072e-18)
(1.29782 0.321622 7.47544e-19)
(1.30153 0.315565 -4.38211e-19)
(1.29529 0.308356 -1.20875e-18)
(1.28768 0.302848 -4.26698e-19)
(1.28052 0.294571 1.96392e-18)
(1.27432 0.29226 1.16893e-18)
(1.27249 0.280128 1.11622e-18)
(1.26709 0.275055 -3.29646e-19)
(-0.0389666 0.0108598 -4.63168e-19)
(-0.0769371 0.00517832 1.62989e-19)
(0.0930971 -0.0041735 -6.17535e-19)
(0.640966 0.18237 -2.09435e-20)
(1.00628 0.272665 -4.8286e-19)
(1.19689 0.316505 -7.17148e-19)
(1.27641 0.330599 2.56541e-19)
(1.29929 0.329101 -1.47154e-18)
(1.29943 0.322113 1.27717e-18)
(1.29238 0.314091 1.58997e-18)
(1.28356 0.307305 1.91793e-19)
(1.27745 0.298665 -1.70096e-18)
(1.2708 0.295204 -1.60446e-18)
(1.266 0.281635 -1.17442e-18)
(1.26149 0.277636 4.51573e-19)
(-0.0403465 0.0169508 -1.47789e-18)
(-0.0730129 -0.0119605 3.9989e-19)
(0.210772 0.0425779 -2.85119e-19)
(0.75283 0.212515 1.4613e-20)
(1.07331 0.292518 -1.23507e-19)
(1.22695 0.328757 -2.66956e-19)
(1.28531 0.338498 5.10308e-19)
(1.29927 0.335325 -2.78744e-19)
(1.29607 0.327617 -3.65193e-19)
(1.28803 0.319184 -6.93446e-19)
(1.28014 0.31175 -6.05813e-19)
(1.27275 0.302485 -2.7226e-19)
(1.26546 0.298027 9.97259e-19)
(1.26253 0.284081 -3.78057e-20)
(1.25625 0.280565 7.32927e-19)
(-0.0433987 0.0209273 6.14543e-19)
(-0.0535909 -0.0262823 1.04409e-18)
(0.351876 0.0947458 1.66014e-19)
(0.850131 0.237982 6.35069e-19)
(1.12693 0.309874 1.38462e-18)
(1.24887 0.339543 5.09996e-19)
(1.29022 0.345799 1.86017e-18)
(1.29701 0.341353 9.71183e-19)
(1.29201 0.333293 6.01419e-19)
(1.28402 0.324517 1.35623e-18)
(1.27524 0.316172 4.12002e-19)
(1.26841 0.306685 7.35065e-19)
(1.26153 0.301312 3.58137e-19)
(1.25616 0.286381 1.60356e-19)
(1.24945 0.283437 5.08486e-19)
(-0.0480606 0.018439 8.5584e-19)
(-0.0164797 -0.0307533 -1.47164e-18)
(0.491713 0.138774 -2.84976e-19)
(0.93492 0.261422 6.55439e-19)
(1.16877 0.324981 -1.38967e-18)
(1.2645 0.349187 -5.65779e-19)
(1.29266 0.352441 -1.14305e-18)
(1.29449 0.346922 -3.49823e-20)
(1.28782 0.338459 -2.99322e-19)
(1.27904 0.329353 -1.13816e-18)
(1.27098 0.320631 8.49559e-19)
(1.26344 0.310755 6.31434e-20)
(1.25553 0.304305 -3.52233e-20)
(1.25153 0.289353 2.80043e-19)
(1.24464 0.286921 -6.24026e-19)
(-0.0540488 0.00700853 -5.83814e-20)
(0.0373516 -0.0239716 6.2807e-19)
(0.612365 0.176167 1.72247e-19)
(1.00843 0.284594 -9.20923e-19)
(1.20228 0.338966 6.11336e-19)
(1.27508 0.35786 1.93456e-19)
(1.29283 0.358842 -5.0549e-19)
(1.29062 0.352572 -2.37118e-19)
(1.28287 0.343877 -7.10865e-19)
(1.27433 0.334558 1.22885e-19)
(1.26559 0.325143 -8.20716e-19)
(1.25814 0.314993 -5.67217e-19)
(1.25101 0.307824 1.4717e-19)
(1.24532 0.292349 1.47025e-19)
(1.23725 0.289923 -2.52578e-19)
(-0.0600399 -0.0123177 -3.19459e-19)
(0.112962 -0.00375365 -1.9573e-19)
(0.714658 0.208409 4.56934e-19)
(1.0696 0.306819 7.95038e-19)
(1.22836 0.352209 1.52023e-19)
(1.28192 0.366123 -4.17532e-19)
(1.29155 0.365072 5.22821e-19)
(1.28672 0.358153 4.50696e-19)
(1.27819 0.34915 2.31665e-19)
(1.26895 0.339437 4.29124e-20)
(1.26061 0.329683 2.62876e-19)
(1.25287 0.319258 1.13776e-19)
(1.24465 0.31105 -7.62245e-20)
(1.23968 0.295652 -9.54256e-20)
(1.23236 0.293576 8.09971e-20)
(-0.0642647 -0.0348927 -1.49951e-19)
(0.208329 0.0289925 -1.70779e-19)
(0.803379 0.236513 1.37366e-19)
(1.12025 0.327881 -1.89841e-19)
(1.24874 0.365141 -3.97791e-19)
(1.28607 0.374282 3.07013e-20)
(1.28913 0.3714 2.4048e-19)
(1.28197 0.363914 -2.15352e-19)
(1.27268 0.354631 1.41039e-19)
(1.26364 0.344675 2.79702e-19)
(1.25482 0.334351 4.42111e-20)
(1.24684 0.323538 1.06788e-19)
(1.23943 0.314722 -1.25862e-19)
(1.23354 0.29914 8.34718e-20)
(1.22492 0.296605 -5.9697e-20)
(-0.0634225 -0.0528727 -4.81247e-20)
(0.316478 0.0683004 -1.82385e-20)
(0.88035 0.261281 -2.48062e-19)
(1.16064 0.347083 2.86222e-20)
(1.26351 0.377565 -1.41416e-20)