/*--------------------------------*- C++ -*----------------------------------*\
  =========                 |
  \\      /  F ield         | OpenFOAM: The Open Source CFD Toolbox
   \\    /   O peration     | Website:  https://openfoam.org
    \\  /    A nd           | Version:  7
     \\/     M anipulation  |
\*---------------------------------------------------------------------------*/
FoamFile
{
    version     2.0;
    format      ascii;
    class       volScalarField;
    location    "0.40625";
    object      p;
}
// * * * * * * * * * * * * * * * * * * * * * * * * * * * * * * * * * * * * * //

dimensions      [0 2 -2 0 0 0 0];

internalField   nonuniform List<scalar> 
10000
(
-1.69336e-09
1.68954e-05
2.68943e-05
2.06285e-05
-1.31304e-06
-3.31251e-05
-7.0726e-05
-0.000110825
-0.000150892
-0.000189081
-0.000224009
-0.00025458
-0.000279949
-0.000299532
-0.000312942
-0.000319872
-0.000320061
-0.000313347
-0.00029969
-0.000279112
-0.000251633
-0.000217236
-0.000175898
-0.000127655
-7.25983e-05
-1.08227e-05
5.76185e-05
0.000132718
0.000214484
0.000302892
0.000397866
0.0004993
0.000607102
0.000721206
0.000841569
0.000968144
0.00110085
0.00123954
0.00138403
0.0015341
0.00168952
0.00185006
0.00201547
0.00218545
0.00235969
0.00253777
0.00271922
0.00290354
0.00309014
0.00327842
0.00346776
0.0036575
0.00384698
0.00403549
0.00422231
0.00440667
0.00458778
0.0047648
0.00493691
0.00510327
0.00526307
0.0054155
0.00555982
0.00569531
0.0058213
0.0059372
0.00604246
0.00613662
0.00621931
0.00629024
0.0063492
0.00639611
0.00643095
0.00645383
0.00646495
0.00646463
0.00645328
0.00643141
0.00639964
0.00635869
0.00630936
0.00625254
0.00618919
0.00612034
0.00604711
0.00597063
0.00589214
0.00581289
0.00573419
0.00565738
0.00558387
0.00551508
0.00545245
0.00539748
0.00535163
0.00531625
0.00529246
0.0052808
0.00528095
0.0052892
2.31064e-05
3.89164e-05
4.5547e-05
3.96582e-05
2.26837e-05
-2.22705e-06
-3.20624e-05
-6.42625e-05
-9.67596e-05
-0.000127911
-0.000156389
-0.000181127
-0.000201314
-0.000216396
-0.000225952
-0.000229596
-0.00022702
-0.000218048
-0.00020262
-0.000180723
-0.000152312
-0.000117314
-7.56894e-05
-2.74776e-05
2.72315e-05
8.83638e-05
0.000155898
0.000229855
0.000310248
0.000397037
0.000490125
0.000589401
0.000694775
0.000806192
0.000923614
0.00104699
0.00117622
0.00131114
0.00145156
0.00159725
0.00174799
0.00190354
0.00206366
0.00222808
0.00239647
0.00256842
0.00274348
0.00292114
0.00310084
0.003282
0.00346403
0.0036463
0.0038282
0.00400905
0.00418818
0.00436486
0.00453833
0.00470782
0.00487255
0.00503173
0.0051846
0.00533043
0.0054685
0.00559817
0.00571881
0.00582988
0.00593088
0.0060214
0.0061011
0.00616972
0.00622709
0.00627313
0.00630787
0.0063314
0.00634393
0.00634577
0.00633733
0.00631909
0.00629164
0.00625568
0.00621195
0.0061613
0.00610464
0.00604294
0.00597724
0.00590862
0.00583821
0.00576718
0.00569673
0.00562811
0.00556256
0.00550134
0.00544573
0.00539694
0.00535616
0.00532441
0.00530241
0.00529048
0.00528914
0.00529741
7.09546e-05
7.80107e-05
7.73134e-05
6.84532e-05
5.21517e-05
3.0165e-05
4.47169e-06
-2.29862e-05
-5.05861e-05
-7.69555e-05
-0.000100873
-0.000121342
-0.000137661
-0.000149327
-0.000155878
-0.000156887
-0.000152052
-0.00014122
-0.000124333
-0.000101328
-7.20981e-05
-3.65424e-05
5.36534e-06
5.35712e-05
0.000107993
0.000168584
0.000235364
0.000308375
0.000387623
0.000473042
0.00056452
0.000661947
0.00076525
0.000874389
0.000989335
0.00111003
0.00123635
0.00136813
0.00150515
0.00164721
0.00179408
0.00194554
0.00210136
0.00226126
0.00242492
0.00259195
0.00276188
0.00293422
0.00310843
0.00328395
0.00346021
0.00363662
0.00381258
0.00398746
0.0041606
0.00433131
0.00449888
0.00466256
0.0048216
0.00497526
0.00512281
0.00526356
0.00539684
0.00552204
0.00563857
0.00574593
0.00584364
0.00593134
0.0060087
0.00607549
0.00613156
0.00617685
0.00621139
0.00623529
0.00624875
0.00625208
0.00624567
0.00623
0.00620564
0.00617325
0.00613356
0.00608737
0.00603555
0.00597904
0.0059188
0.00585586
0.0057913
0.0057262
0.00566169
0.00559891
0.00553899
0.00548309
0.00543231
0.00538774
0.00535036
0.00532106
0.00530042
0.00528882
0.00528763
0.00529755
0.000130775
0.000126717
0.000118162
0.000104713
8.6585e-05
6.47928e-05
4.07117e-05
1.57159e-05
-8.96655e-06
-3.21841e-05
-5.28837e-05
-7.02506e-05
-8.36978e-05
-9.27286e-05
-9.68664e-05
-9.57032e-05
-8.89906e-05
-7.66158e-05
-5.8498e-05
-3.45165e-05
-4.53181e-06
3.15427e-05
7.37089e-05
0.000121903
0.000176063
0.000236184
0.000302315
0.000374501
0.000452726
0.000536903
0.00062692
0.000722679
0.000824129
0.000931247
0.001044
0.00116233
0.00128608
0.00141509
0.00154915
0.00168804
0.00183157
0.00197952
0.00213167
0.00228775
0.00244742
0.00261031
0.00277596
0.00294388
0.00311354
0.00328442
0.00345595
0.00362758
0.00379873
0.00396878
0.00413712
0.00430306
0.00446591
0.00462496
0.00477948
0.00492875
0.00507209
0.00520883
0.00533833
0.00546
0.00557328
0.00567769
0.00577279
0.00585821
0.00593368
0.00599896
0.00605392
0.00609851
0.00613276
0.0061568
0.00617082
0.00617512
0.0061701
0.00615622
0.00613404
0.0061042
0.0060674
0.00602442
0.0059761
0.00592333
0.00586705
0.00580824
0.0057479
0.00568708
0.00562682
0.00556819
0.00551224
0.00546002
0.00541254
0.00537076
0.00533559
0.00530782
0.00528802
0.00527668
0.0052756
0.00528617
0.000194524
0.000180088
0.000163959
0.000145672
0.000124776
0.000101938
7.81406e-05
5.43328e-05
3.1472e-05
1.05033e-05
-7.76811e-06
-2.27271e-05
-3.38566e-05
-4.06622e-05
-4.26932e-05
-3.96182e-05
-3.12618e-05
-1.75278e-05
1.71204e-06
2.66208e-05
5.73285e-05
9.38872e-05
0.000136271
0.000184423
0.00023832
0.000297997
0.000363518
0.000434908
0.000512126
0.000595076
0.000683654
0.000777788
0.000877449
0.000982626
0.00109328
0.00120933
0.00133062
0.00145698
0.00158822
0.00172412
0.00186451
0.00200919
0.00215794
0.00231048
0.0024665
0.00262559
0.00278733
0.00295124
0.0031168
0.0032835
0.00345081
0.00361819
0.00378507
0.00395088
0.00411499
0.00427675
0.00443549
0.0045905
0.00474109
0.00488658
0.00502627
0.00515954
0.00528577
0.00540438
0.00551485
0.0056167
0.00570953
0.00579296
0.00586674
0.00593066
0.00598458
0.00602847
0.00606236
0.00608637
0.00610072
0.00610569
0.00610166
0.00608911
0.00606857
0.00604067
0.0060061
0.00596561
0.00592001
0.00587017
0.00581699
0.0057614
0.00570436
0.00564687
0.00558992
0.00553448
0.00548156
0.00543209
0.00538702
0.00534722
0.00531351
0.00528662
0.00526713
0.00525555
0.00525374
0.00526319
0.000260904
0.000235879
0.000212359
0.000189056
0.000164785
0.000140077
0.000115588
9.2011e-05
7.01076e-05
5.05747e-05
3.3972e-05
2.07784e-05
1.14726e-05
6.50839e-06
6.25178e-06
1.09315e-05
2.06693e-05
3.55809e-05
5.5835e-05
8.15966e-05
0.000112958
0.000149931
0.000192473
0.000240553
0.00029419
0.000353447
0.00041838
0.000488991
0.000565216
0.00064696
0.000734137
0.000826704
0.000924653
0.00102798
0.00113663
0.0012505
0.00136946
0.00149331
0.00162189
0.001755
0.00189248
0.00203415
0.00217977
0.00232908
0.00248177
0.00263744
0.00279566
0.00295597
0.00311788
0.00328089
0.00344449
0.00360815
0.00377133
0.00393346
0.00409394
0.00425212
0.00440734
0.00455892
0.00470618
0.00484844
0.00498506
0.00511541
0.00523888
0.00535492
0.00546301
0.0055627
0.00565358
0.00573531
0.00580762
0.00587032
0.00592329
0.00596649
0.00599995
0.0060238
0.00603825
0.00604359
0.0060402
0.00602853
0.00600913
0.00598259
0.00594961
0.00591092
0.0058673
0.0058196
0.00576869
0.00571546
0.00566085
0.0056058
0.00555123
0.00549809
0.00544729
0.00539972
0.00535623
0.00531763
0.00528467
0.00525802
0.00523824
0.00522583
0.00522245
0.00522935
0.000328009
0.000292488
0.000261562
0.00023311
0.00020503
0.000177768
0.000151863
0.000127813
0.000106143
8.72979e-05
7.1681e-05
5.97011e-05
5.17769e-05
4.82693e-05
4.94191e-05
5.53682e-05
6.62313e-05
8.21513e-05
0.000103301
0.000129809
0.00016172
0.000199008
0.000241641
0.000289624
0.000343008
0.000401859
0.000466214
0.000536051
0.000611295
0.000691859
0.000777686
0.00086876
0.000965086
0.00106665
0.0011734
0.00128523
0.00140198
0.00152349
0.00164959
0.00178013
0.00191495
0.00205386
0.00219666
0.00234307
0.00249278
0.00264541
0.00280052
0.00295768
0.0031164
0.00327621
0.00343662
0.00359712
0.00375717
0.00391621
0.00407364
0.00422884
0.00438115
0.00452991
0.00467444
0.00481408
0.0049482
0.00507617
0.00519741
0.00531136
0.00541752
0.00551545
0.00560473
0.00568504
0.00575612
0.00581777
0.00586988
0.0059124
0.00594538
0.00596895
0.0059833
0.00598874
0.00598562
0.00597442
0.00595567
0.00592995
0.00589795
0.00586038
0.00581803
0.00577171
0.00572226
0.00567057
0.00561753
0.00556404
0.005511
0.00545928
0.00540975
0.00536325
0.00532056
0.00528242
0.00524953
0.0052225
0.00520185
0.00518805
0.00518239
0.00518576
0.000394146
0.000348335
0.000310036
0.000276304
0.000244107
0.000213852
0.000186042
0.000160973
0.000138912
0.000120144
0.000104987
9.37836e-05
8.68522e-05
8.44176e-05
8.66072e-05
9.35236e-05
0.000105294
0.000122066
0.000143978
0.000171103
0.000203435
0.000240933
0.000283593
0.000331454
0.000384582
0.000443027
0.0005068
0.000575858
0.000650126
0.000729539
0.000814069
0.000903721
0.000998507
0.00109841
0.00120336
0.00131325
0.00142793
0.00154725
0.00167107
0.00179925
0.00193164
0.00206807
0.00220833
0.00235216
0.00249923
0.00264917
0.00280157
0.00295599
0.00311198
0.00326907
0.0034268
0.00358465
0.00374211
0.00389862
0.00405358
0.00420637
0.00435635
0.00450286
0.00464523
0.00478282
0.00491498
0.0050411
0.0051606
0.00527293
0.0053776
0.00547414
0.00556217
0.00564135
0.00571142
0.00577219
0.00582353
0.00586542
0.00589789
0.00592106
0.00593514
0.00594043
0.00593729
0.00592617
0.00590761
0.00588221
0.00585063
0.00581358
0.00577183
0.00572618
0.00567747
0.00562655
0.0055743
0.00552159
0.00546926
0.00541818
0.00536915
0.00532296
0.00528035
0.00524201
0.00520856
0.00518058
0.00515853
0.00514286
0.00513442
0.00513365
0.000457784
0.00040193
0.000356331
0.000317231
0.00028076
0.000247286
0.000217219
0.000190652
0.000167702
0.000148563
0.000133479
0.000122691
0.000116381
0.000114646
0.000117548
0.000125183
0.000137674
0.000155141
0.000177664
0.000205254
0.00023787
0.000275481
0.000318113
0.000365826
0.00041868
0.000476702
0.000539872
0.000608137
0.000681435
0.000759727
0.000843013
0.000931312
0.00102464
0.00112296
0.00122621
0.00133427
0.00144701
0.0015643
0.00168602
0.00181204
0.00194224
0.00207644
0.00221445
0.00235598
0.00250074
0.00264835
0.00279841
0.0029505
0.00310419
0.00325903
0.00341454
0.00357025
0.00372564
0.00388014
0.00403318
0.00418412
0.00433232
0.00447714
0.00461791
0.00475397
0.0048847
0.00500948
0.00512772
0.00523889
0.00534247
0.00543801
0.00552511
0.00560344
0.00567273
0.00573279
0.00578348
0.00582478
0.00585672
0.00587942
0.00589308
0.005898
0.00589454
0.00588317
0.00586441
0.00583887
0.00580719
0.00577009
0.00572834
0.00568272
0.00563407
0.00558323
0.00553105
0.00547838
0.00542604
0.00537487
0.00532563
0.00527907
0.0052359
0.00519674
0.00516219
0.00513276
0.00510887
0.00509092
0.00507935
0.00507416
0.000517462
0.000451908
0.000399133
0.000354693
0.000313911
0.000277056
0.000244427
0.000215997
0.000191808
0.000171987
0.000156673
0.000145969
0.000139925
0.000138558
0.000141906
0.000150056
0.000163099
0.000181096
0.000204059
0.00023195
0.000264718
0.000302357
0.000344912
0.000392445
0.000444995
0.000502556
0.000565091
0.000632546
0.000704881
0.000782086
0.00086418
0.000951189
0.00104312
0.00113994
0.00124158
0.00134792
0.00145886
0.00157427
0.00169406
0.00181814
0.00194636
0.00207859
0.0022146
0.00235415
0.0024969
0.00264252
0.00279061
0.00294076
0.00309257
0.00324558
0.00339936
0.00355341
0.00370722
0.00386024
0.00401186
0.00416148
0.00430845
0.00445211
0.0045918
0.00472687
0.00485667
0.0049806
0.00509806
0.0052085
0.00531141
0.00540632
0.00549283
0.00557059
0.00563933
0.00569886
0.00574903
0.0057898
0.00582121
0.00584337
0.00585649
0.00586086
0.00585684
0.00584491
0.00582558
0.00579947
0.00576722
0.00572956
0.00568725
0.00564107
0.00559186
0.00554044
0.00548767
0.00543437
0.00538135
0.00532941
0.00527932
0.00523177
0.00518744
0.00514693
0.00511078
0.00507945
0.00505335
0.00503284
0.00501792
0.00500821
0.000571872
0.000497059
0.000437339
0.000387662
0.000342538
0.000302146
0.000266733
0.000236216
0.000210576
0.000189843
0.000174024
0.000163089
0.000156999
0.000155737
0.000159323
0.000167813
0.00018124
0.000199591
0.000222813
0.000250846
0.000283652
0.000321244
0.000363672
0.000410981
0.000463178
0.000520231
0.000582091
0.000648719
0.000720101
0.000796251
0.0008772
0.000962975
0.00105358
0.00114897
0.00124908
0.00135381
0.00146306
0.00157675
0.0016948
0.00181712
0.0019436
0.00207408
0.00220837
0.00234619
0.00248725
0.0026312
0.00277767
0.00292626
0.00307658
0.00322821
0.00338069
0.00353355
0.00368627
0.00383829
0.00398902
0.00413783
0.00428408
0.0044271
0.00456623
0.00470082
0.0048302
0.00495376
0.0050709
0.00518106
0.0052837
0.00537835
0.0054646
0.00554209
0.00561053
0.00566971
0.0057195
0.00575983
0.00579073
0.00581232
0.00582479
0.00582845
0.00582366
0.00581089
0.00579067
0.00576361
0.00573036
0.00569166
0.00564827
0.00560099
0.00555063
0.00549804
0.00544406
0.0053895
0.00533517
0.00528186
0.0052303
0.00518119
0.00513516
0.0050928
0.00505461
0.00502101
0.0049924
0.0049691
0.00495075
0.00493658
0.000619936
0.000536317
0.000469941
0.00041511
0.000365611
0.000321587
0.000283292
0.000250585
0.000223353
0.000201504
0.000184916
0.000173475
0.000167101
0.000165749
0.000169409
0.000178077
0.00019171
0.000210225
0.000233532
0.000261571
0.000294319
0.000331796
0.00037404
0.000421067
0.000472848
0.000529333
0.000590477
0.000656264
0.000726704
0.000801829
0.000881674
0.000966263
0.00105559
0.00114962
0.00124828
0.0013515
0.00145919
0.0015713
0.00168777
0.00180853
0.00193347
0.00206244
0.00219525
0.00233162
0.00247128
0.00261387
0.00275906
0.00290646
0.00305569
0.00320633
0.00335796
0.00351007
0.00366217
0.00381368
0.00396399
0.0041125
0.00425853
0.00440143
0.00454052
0.00467512
0.00480458
0.00492825
0.00504553
0.00515584
0.00525862
0.0053534
0.00543973
0.00551724
0.00558564
0.00564469
0.00569424
0.00573422
0.00576466
0.00578566
0.00579742
0.00580024
0.00579449
0.00578064
0.00575923
0.00573087
0.00569624
0.00565607
0.00561112
0.00556222
0.00551018
0.00545586
0.00540008
0.00534369
0.00528747
0.00523221
0.00517863
0.00512741
0.00507919
0.00503453
0.00499389
0.00495769
0.00492632
0.00490008
0.00487827
0.00485981
0.000660717
0.000568704
0.000495904
0.000436007
0.000382163
0.000334525
0.000293346
0.000258398
0.000229444
0.000206278
0.000188699
0.00017655
0.000169726
0.000168144
0.000171732
0.000180411
0.000194063
0.000212558
0.000235798
0.00026373
0.00029634
0.000333635
0.000375628
0.000422296
0.000473586
0.000529442
0.000589833
0.000654768
0.000724276
0.0007984
0.000877174
0.000960616
0.00104872
0.00114144
0.00123873
0.00134052
0.00144677
0.00155745
0.00167251
0.00179188
0.00191549
0.00204317
0.00217472
0.00230991
0.00244843
0.00258997
0.0027342
0.00288076
0.00302928
0.00317934
0.00333053
0.00348234
0.00363426
0.00378572
0.00393611
0.00408479
0.00423111
0.00437438
0.00451392
0.00464904
0.00477906
0.00490333
0.00502121
0.00513211
0.00523545
0.00533074
0.0054175
0.00549535
0.00556397
0.00562311
0.0056726
0.00571236
0.0057424
0.00576283
0.00577384
0.00577572
0.00576886
0.00575372
0.00573085
0.00570089
0.00566451
0.00562245
0.00557552
0.00552452
0.0054703
0.00541372
0.00535562
0.00529683
0.00523817
0.00518042
0.00512429
0.00507048
0.0050196
0.00497221
0.00492878
0.00488969
0.00485534
0.00482604
0.0048008
0.00477824
0.000693317
0.000593273
0.000514256
0.000449441
0.000391377
0.000340219
0.000296183
0.000258929
0.000228116
0.000203469
0.000184748
0.000171768
0.000164382
0.000162448
0.000165816
0.000174329
0.000187818
0.000206134
0.000229184
0.000256919
0.000289315
0.000326355
0.000368012
0.000414233
0.000464951
0.000520117
0.000579722
0.000643794
0.000712378
0.000785516
0.00086324
0.000945561
0.00103247
0.00112393
0.00121991
0.00132038
0.0014253
0.00153468
0.00164848
0.00176665
0.0018891
0.00201569
0.00214621
0.00228044
0.0024181
0.00255888
0.00270247
0.00284853
0.00299669
0.00314656
0.00329771
0.00344964
0.00360182
0.00375368
0.00390461
0.00405396
0.00420105
0.00434519
0.00448567
0.0046218
0.00475287
0.00487822
0.00499717
0.00510911
0.00521344
0.00530963
0.0053972
0.00547572
0.00554485
0.00560432
0.00565395
0.00569364
0.00572338
0.00574327
0.00575351
0.00575439
0.00574628
0.00572968
0.00570513
0.00567328
0.00563482
0.00559052
0.00554118
0.00548765
0.00543078
0.00537144
0.0053105
0.00524881
0.00518719
0.00512642
0.00506726
0.00501037
0.0049564
0.00490589
0.00485932
0.00481707
0.00477956
0.00474711
0.00471847
0.00469203
0.000716887
0.00060916
0.000524186
0.000454654
0.000392536
0.000337949
0.000291051
0.000251414
0.00021864
0.00019242
0.000172484
0.0001586
0.000150561
0.000148149
0.000151135
0.000159309
0.000172479
0.000190492
0.000213256
0.000240715
0.00027282
0.000309514
0.000350736
0.000396414
0.00044648
0.0005009
0.000559688
0.000622885
0.000690543
0.000762701
0.000839383
0.000920594
0.00100633
0.00109657
0.00119131
0.00129053
0.00139424
0.00150244
0.00161512
0.00173223
0.0018537
0.00197939
0.00210909
0.00224259
0.00237963
0.00251992
0.00266317
0.00280905
0.00295721
0.00310725
0.00325874
0.0034112
0.00356407
0.00371678
0.00386871
0.00401919
0.00416753
0.00431303
0.00445495
0.00459259
0.00472521
0.00485211
0.00497261
0.00508605
0.00519181
0.00528933
0.00537808
0.00545762
0.00552757
0.00558765
0.00563765
0.00567744
0.005707
0.00572644
0.00573592
0.00573576
0.00572632
0.00570811
0.00568168
0.00564769
0.00560686
0.00555997
0.00550786
0.00545137
0.0053914
0.00532884
0.00526458
0.00519948
0.00513439
0.00507013
0.00500743
0.00494702
0.00488952
0.00483552
0.00478549
0.00473982
0.00469897
0.00466328
0.00463129
0.0046012
0.000730684
0.000615638
0.000524995
0.000450955
0.000384914
0.000326943
0.000277164
0.000235104
0.000200339
0.000172525
0.000151343
0.000136499
0.00012771
0.000124681
0.000127129
0.000134817
0.000147546
0.000165162
0.000187563
0.000214668
0.000246389
0.000282633
0.000323313
0.00036835
0.000417689
0.000471314
0.000529253
0.000591559
0.00065828
0.000729448
0.00080508
0.000885181
0.000969757
0.00105881
0.00115236
0.00125041
0.00135299
0.00146013
0.00157181
0.00168802
0.00180866
0.0019336
0.00206267
0.00219565
0.0023323
0.00247236
0.00261555
0.00276155
0.00291004
0.0030606
0.00321282
0.00336618
0.00352016
0.00367415
0.00382752
0.00397959
0.00412966
0.004277
0.00442086
0.0045605
0.00469517
0.00482413
0.00494666
0.00506208
0.00516973
0.005269
0.00535935
0.00544029
0.00551141
0.0055724
0.00562302
0.00566312
0.00569267
0.00571176
0.00572055
0.00571934
0.00570852
0.00568858
0.0056601
0.00562376
0.0055803
0.00553052
0.00547527
0.00541544
0.00535195
0.00528571
0.00521766
0.00514867
0.00507964
0.00501138
0.0049447
0.00488031
0.00481888
0.00476101
0.0047072
0.00465786
0.00461349
0.00457446
0.00453915
0.00450557
0.000734075
0.000612063
0.00051601
0.000437624
0.000367745
0.000306423
0.000253785
0.000209335
0.00017261
0.000143214
0.000120764
0.000104888
9.52327e-05
9.14508e-05
9.32306e-05
0.000100324
0.000112527
0.000129674
0.000151636
0.000178296
0.000209526
0.000245203
0.000285231
0.000329537
0.000378081
0.000430863
0.000487921
0.000549307
0.000615063
0.000685214
0.000759773
0.000838752
0.000922173
0.00101006
0.00110246
0.00119941
0.00130094
0.00140711
0.00151791
0.00163332
0.00175326
0.00187761
0.0020062
0.00213884
0.00227532
0.00241538
0.00255877
0.00270519
0.00285431
0.00300573
0.00315901
0.00331367
0.00346914
0.00362483
0.00378007
0.00393419
0.00408646
0.00423612
0.00438242
0.00452456
0.00466179
0.00479331
0.00491838
0.00503628
0.00514629
0.00524778
0.00534017
0.00542292
0.00549559
0.00555783
0.00560936
0.00565003
0.00567977
0.00569865
0.00570684
0.00570463
0.0056924
0.00567067
0.00564002
0.00560115
0.00555481
0.00550185
0.00544314
0.0053796
0.00531219
0.00524185
0.00516954
0.00509621
0.00502274
0.00495003
0.00487889
0.00481008
0.00474431
0.00468219
0.00462428
0.004571
0.00452291
0.00448044
0.0044418
0.00440486
0.000726454
0.000597782
0.000496524
0.000413914
0.00034028
0.000275689
0.000220282
0.000173522
0.000134887
0.000103916
8.01514e-05
6.31547e-05
5.25209e-05
4.78763e-05
4.88964e-05
5.53233e-05
6.69376e-05
8.35463e-05
0.000104983
0.00013109
0.000161707
0.000196699
0.00023597
0.000279462
0.000327146
0.000379036
0.000435169
0.000495592
0.000560339
0.000629427
0.000702874
0.000780705
0.000862962
0.000949701
0.00104098
0.00113686
0.00123741
0.00134268
0.00145267
0.00156737
0.00168672
0.0018106
0.00193886
0.00207133
0.00220781
0.00234809
0.00249192
0.00263902
0.00278905
0.00294163
0.00309632
0.00325262
0.00340997
0.00356775
0.0037253
0.00388191
0.00403683
0.00418931
0.00433853
0.00448369
0.00462399
0.0047586
0.00488673
0.00500762
0.00512051
0.00522472
0.00531961
0.00540462
0.00547926
0.00554313
0.00559592
0.00563745
0.00566762
0.0056865
0.00569423
0.0056911
0.0056775
0.00565394
0.00562103
0.00557948
0.00553008
0.00547368
0.00541121
0.00534362
0.00527189
0.00519703
0.00512004
0.00504188
0.00496353
0.00488589
0.00480983
0.00473615
0.00466561
0.00459886
0.00453649
0.004479
0.00442696
0.0043809
0.00433888
0.00429865
0.000707183
0.000572113
0.000465823
0.000379121
0.000301869
0.000234147
0.000176091
0.000127102
8.6588e-05
5.40178e-05
2.88734e-05
1.06699e-05
-1.0244e-06
-6.59939e-06
-6.39315e-06
-6.8339e-07
1.02826e-05
2.6272e-05
4.70771e-05
7.25072e-05
0.000102388
0.000136582
0.000175001
0.0002176
0.000264363
0.000315302
0.000370452
0.000429849
0.00049352
0.000561483
0.000633764
0.000710408
0.000791481
0.000877061
0.000967234
0.00106208
0.00116168
0.00126609
0.00137533
0.00148939
0.00160821
0.0017317
0.00185974
0.00199218
0.00212883
0.00226951
0.00241399
0.00256199
0.0027132
0.00286722
0.00302361
0.00318188
0.00334146
0.00350172
0.00366197
0.00382151
0.00397955
0.00413531
0.00428796
0.00443666
0.00458056
0.0047188
0.00485054
0.00497496
0.00509127
0.00519873
0.00529665
0.00538442
0.00546149
0.00552742
0.00558187
0.0056246
0.00565552
0.00567465
0.00568212
0.00567821
0.00566332
0.00563795
0.00560273
0.0055584
0.00550576
0.00544571
0.0053792
0.00530722
0.00523082
0.00515104
0.00506892
0.0049855
0.00490178
0.00481873
0.00473728
0.00465828
0.00458253
0.00451075
0.00444357
0.00438153
0.0043253
0.00427545
0.00422996
0.00418641
0.000675632
0.000534405
0.000423274
0.000332657
0.000251964
0.000181262
0.000120658
6.94883e-05
2.70922e-05
-7.11812e-06
-3.37005e-05
-5.31648e-05
-6.5962e-05
-7.25008e-05
-7.31425e-05
-6.81981e-05
-5.79553e-05
-4.26874e-05
-2.26347e-05
1.99268e-06
3.1017e-05
6.43078e-05
0.000101788
0.000143421
0.000189191
0.000239107
0.000293194
0.00035148
0.00041399
0.000480747
0.000551794
0.000627197
0.000707046
0.000791446
0.000880503
0.000974315
0.00107297
0.00117653
0.00128503
0.00139847
0.00151681
0.00163998
0.00176788
0.00190037
0.00203732
0.00217856
0.00232385
0.00247296
0.00262555
0.00278125
0.00293963
0.00310017
0.00326231
0.0034254
0.00358875
0.00375162
0.00391323
0.00407276
0.00422933
0.00438209
0.00453013
0.00467256
0.00480848
0.00493702
0.00505733
0.00516861
0.00527013
0.00536119
0.00544122
0.00550971
0.00556627
0.00561064
0.00564267
0.00566237
0.00566984
0.00566536
0.00564931
0.0056222
0.00558469
0.00553751
0.00548151
0.00541762
0.00534682
0.00527017
0.00518875
0.00510365
0.00501597
0.00492683
0.00483727
0.00474834
0.00466102
0.00457622
0.0044948
0.00441755
0.00434516
0.00427823
0.0042175
0.00416363
0.00411448
0.00406754
0.000631234
0.000484109
0.000368362
0.000274024
0.000190054
0.000116487
5.33963e-05
5.88561e-08
-4.42356e-05
-8.01116e-05
-0.000108154
-0.000128894
-0.000142805
-0.000150326
-0.000151854
-0.000147742
-0.000138319
-0.000123891
-0.000104717
-8.10138e-05
-5.29553e-05
-2.06634e-05
1.57928e-05
5.6377e-05
0.000101069
0.000149868
0.000202789
0.000259857
0.000321099
0.000386553
0.000456279
0.00053037
0.000608938
0.000692111
0.000780012
0.000872753
0.000970431
0.00107312
0.00118086
0.00129367
0.00141153
0.00153439
0.00166217
0.0017948
0.00193213
0.00207401
0.00222026
0.00237061
0.00252477
0.00268237
0.00284296
0.00300604
0.00317103
0.00333728
0.00350409
0.00367071
0.00383631
0.00400006
0.00416107
0.00431841
0.00447115
0.00461835
0.00475905
0.00489232
0.00501725
0.00513298
0.00523871
0.00533368
0.00541726
0.00548887
0.00554809
0.00559458
0.00562818
0.00564884
0.00565666
0.00565187
0.00563487
0.00560617
0.00556643
0.0055164
0.00545697
0.00538909
0.00531379
0.00523219
0.00514541
0.00505461
0.00496097
0.00486565
0.00476978
0.00467447
0.00458077
0.00448967
0.00440211
0.00431892
0.00424088
0.00416867
0.00410309
0.00404489
0.00399184
0.00394131
0.000573502
0.000420753
0.000300612
0.000202721
0.000115593
3.9232e-05
-2.63123e-05
-8.18075e-05
-0.000127996
-0.000165527
-0.000195014
-0.000217018
-0.000232046
-0.000240576
-0.000243051
-0.000239862
-0.000231373
-0.000217908
-0.000199734
-0.000177067
-0.000150074
-0.000118873
-8.35312e-05
-4.40927e-05
-5.86681e-07
4.69754e-05
9.86029e-05
0.000154322
0.000214172
0.000278206
0.000346508
0.000419192
0.000496396
0.000578265
0.000664936
0.000756532
0.000853158
0.000954896
0.00106181
0.00117393
0.00129126
0.00141379
0.00154146
0.00167422
0.00181196
0.00195455
0.00210182
0.00225353
0.00240939
0.00256903
0.00273202
0.00289786
0.00306595
0.00323566
0.00340627
0.00357699
0.00374701
0.00391545
0.00408137
0.00424383
0.00440184
0.00455441
0.00470051
0.00483917
0.0049694
0.00509026
0.00520088
0.00530044
0.00538823
0.00546362
0.00552611
0.00557532
0.00561102
0.00563314
0.00564173
0.00563701
0.00561935
0.00558927
0.00554744
0.00549462
0.00543173
0.00535976
0.0052798
0.005193
0.00510056
0.00500371
0.00490369
0.00480173
0.00469907
0.00459687
0.00449628
0.00439836
0.00430412
0.00421449
0.00413032
0.00405236
0.00398152
0.00391864
0.00386137
0.00380695
0.000501987
0.000343862
0.000219511
0.000118193
2.79891e-05
-5.11124e-05
-0.00011907
-0.000176682
-0.00022472
-0.000263865
-0.000294765
-0.000318021
-0.000334184
-0.000343777
-0.000347283
-0.000345126
-0.000337689
-0.000325304
-0.000308241
-0.00028671
-0.000260879
-0.000230866
-0.000196746
-0.000158573
-0.000116388
-7.02083e-05
-2.00249e-05
3.41958e-05
9.25078e-05
0.000154987
0.000221738
0.000292898
0.000368623
0.000449073
0.000534397
0.000624728
0.000720179
0.000820847
0.000926813
0.00103813
0.00115484
0.00127695
0.00140445
0.0015373
0.00167543
0.00181872
0.00196703
0.00212013
0.00227775
0.00243954
0.00260506
0.00277381
0.00294522
0.00311863
0.00329332
0.00346849
0.00364331
0.00381686
0.00398819
0.00415631
0.00432016
0.00447872
0.00463089
0.00477562
0.00491186
0.00503859
0.00515486
0.00525978
0.00535255
0.00543246
0.00549894
0.00555155
0.00559001
0.00561418
0.00562407
0.00561989
0.00560197
0.00557082
0.00552712
0.00547165
0.00540536
0.00532926
0.00524451
0.00515231
0.00505393
0.00495068
0.00484387
0.00473484
0.00462489
0.00451528
0.00440725
0.00430195
0.00420048
0.00410386
0.00401302
0.00392881
0.00385222
0.00378422
0.00372232
0.00366361
0.000416212
0.000252924
0.000124511
1.98658e-05
-7.33372e-05
-0.000155107
-0.000225401
-0.000285054
-0.000334874
-0.000375583
-0.000407873
-0.000432393
-0.000449739
-0.000460475
-0.000465113
-0.000464099
-0.000457823
-0.000446625
-0.000430772
-0.000410477
-0.00038591
-0.000357199
-0.000324431
-0.000287672
-0.000246969
-0.000202342
-0.000153777
-0.000101225
-4.46153e-05
1.61497e-05
8.11968e-05
0.000150681
0.000224774
0.000303647
0.000387458
0.000476349
0.000570448
0.00066987
0.000774715
0.000885069
0.001001
0.00112255
0.00124974
0.00138257
0.00152098
0.0016649
0.00181419
0.00196865
0.00212803
0.00229197
0.00246008
0.00263185
0.00280672
0.00298402
0.00316303
0.00334295
0.00352292
0.00370199
0.0038792
0.00405348
0.00422377
0.00438895
0.00454788
0.00469942
0.00484244
0.00497586
0.00509861
0.00520973
0.00530833
0.00539362
0.00546494
0.00552177
0.00556376
0.0055907
0.00560257
0.0055995
0.00558183
0.00555004
0.0055048
0.00544691
0.00537734
0.00529716
0.00520756
0.0051098
0.00500525
0.00489527
0.0047813
0.00466474
0.00454699
0.00442944
0.0043134
0.00420012
0.00409082
0.00398661
0.00388852
0.00379747
0.00371459
0.00364094
0.00357392
0.00351041
0.000315675
0.000147412
1.50716e-05
-9.27957e-05
-0.000188889
-0.000273218
-0.000345746
-0.00040735
-0.00045889
-0.000501133
-0.000534822
-0.000560648
-0.00057925
-0.00059122
-0.000597091
-0.000597321
-0.000592307
-0.000582392
-0.000567848
-0.000548895
-0.000525713
-0.000498443
-0.000467187
-0.000432018
-0.000392985
-0.000350105
-0.000303352
-0.000252661
-0.000197942
-0.000139077
-7.59208e-05
-8.30388e-06
6.39565e-05
0.000141041
0.000223116
0.000310337
0.000402846
0.000500779
0.000604266
0.000713423
0.000828351
0.000949129
0.00107581
0.00120842
0.00134694
0.00149132
0.00164144
0.00179714
0.00195818
0.00212423
0.0022949
0.0024697
0.00264808
0.00282939
0.0030129
0.0031978
0.00338322
0.00356819
0.0037517
0.00393267
0.00410997
0.00428242
0.00444882
0.00460795
0.00475859
0.00489957
0.00502973
0.00514801
0.00525341
0.00534505
0.00542218
0.00548419
0.00553062
0.00556121
0.00557586
0.00557466
0.00555788
0.00552601
0.00547968
0.00541972
0.00534711
0.00526296
0.00516852
0.00506512
0.0049542
0.00483722
0.00471571
0.00459117
0.00446514
0.00433908
0.00421442
0.00409255
0.00397478
0.00386232
0.0037563
0.00365777
0.00356797
0.00348809
0.00341533
0.00334638
0.000199885
2.68364e-05
-0.000109285
-0.000220239
-0.000319083
-0.000405843
-0.000480502
-0.000543988
-0.000597212
-0.000640994
-0.000676117
-0.000703315
-0.000723253
-0.000736545
-0.00074374
-0.000745304
-0.000741643
-0.000733107
-0.000719981
-0.000702495
-0.000680846
-0.000655187
-0.000625631
-0.000592254
-0.000555104
-0.000514186
-0.000469461
-0.000420847
-0.000368234
-0.000311489
-0.000250452
-0.000184942
-0.000114768
-3.97429e-05
4.03121e-05
0.000125565
0.00021618
0.000312317
0.000414136
0.000521789
0.000635411
0.000755118
0.000880997
0.0010131
0.00115146
0.00129603
0.00144675
0.00160346
0.00176595
0.00193394
0.00210704
0.0022848
0.00246667
0.00265202
0.00284012
0.00303016
0.00322126
0.00341245
0.00360267
0.00379081
0.00397568
0.00415605
0.00433066
0.00449819
0.00465734
0.00480683
0.00494541
0.00507191
0.00518522
0.00528434
0.0053684
0.00543669
0.00548866
0.00552394
0.00554236
0.00554392
0.00552887
0.00549762
0.00545081
0.00538927
0.00531398
0.0052261
0.00512692
0.00501787
0.00490045
0.00477623