/*--------------------------------*- C++ -*----------------------------------*\
  =========                 |
  \\      /  F ield         | OpenFOAM: The Open Source CFD Toolbox
   \\    /   O peration     | Website:  https://openfoam.org
    \\  /    A nd           | Version:  7
     \\/     M anipulation  |
\*---------------------------------------------------------------------------*/
FoamFile
{
    version     2.0;
    format      ascii;
    class       surfaceScalarField;
    location    "0.40625";
    object      phi;
}
// * * * * * * * * * * * * * * * * * * * * * * * * * * * * * * * * * * * * * //

dimensions      [0 3 -1 0 0 0 0];

internalField   nonuniform List<scalar> 
19800
(
7.61357e-11
-7.61196e-11
1.76197e-10
-1.00081e-10
2.44233e-10
-6.80242e-11
2.32839e-10
1.14045e-11
1.28541e-10
1.04306e-10
-7.30825e-11
2.01611e-10
-3.69393e-10
2.96317e-10
-7.54449e-10
3.85047e-10
-1.22039e-09
4.6594e-10
-1.7588e-09
5.38407e-10
-2.36138e-09
6.02579e-10
-3.02019e-09
6.58812e-10
-3.72764e-09
7.07443e-10
-4.47664e-09
7.49001e-10
-5.26081e-09
7.84171e-10
-6.07441e-09
8.13584e-10
-6.91217e-09
8.37754e-10
-7.76929e-09
8.5712e-10
-8.64145e-09
8.72155e-10
-9.52483e-09
8.8338e-10
-1.0416e-08
8.91203e-10
-1.13119e-08
8.95912e-10
-1.22097e-08
8.97729e-10
-1.31065e-08
8.96872e-10
-1.40001e-08
8.93554e-10
-1.4888e-08
8.87945e-10
-1.57682e-08
8.80166e-10
-1.66384e-08
8.70266e-10
-1.74967e-08
8.5824e-10
-1.83408e-08
8.4408e-10
-1.91685e-08
8.27781e-10
-1.99779e-08
8.09322e-10
-2.07665e-08
7.88656e-10
-2.15322e-08
7.65719e-10
-2.22726e-08
7.40425e-10
-2.29853e-08
7.12676e-10
-2.36677e-08
6.82374e-10
-2.43171e-08
6.4944e-10
-2.4931e-08
6.13808e-10
-2.55064e-08
5.75428e-10
-2.60406e-08
5.34261e-10
-2.65309e-08
4.90274e-10
-2.69744e-08
4.43442e-10
-2.73681e-08
3.93764e-10
-2.77094e-08
3.41269e-10
-2.79954e-08
2.86023e-10
-2.82235e-08
2.28128e-10
-2.83913e-08
1.67721e-10
-2.84962e-08
1.0498e-10
-2.85364e-08
4.01143e-11
-2.85097e-08
-2.66323e-11
-2.84147e-08
-9.49835e-11
-2.82501e-08
-1.64633e-10
-2.80149e-08
-2.35233e-10
-2.77085e-08
-3.06397e-10
-2.73308e-08
-3.77711e-10
-2.6882e-08
-4.48721e-10
-2.63631e-08
-5.18945e-10
-2.57752e-08
-5.87875e-10
-2.51202e-08
-6.54991e-10
-2.44005e-08
-7.1976e-10
-2.36188e-08
-7.81651e-10
-2.27787e-08
-8.40132e-10
-2.1884e-08
-8.94676e-10
-2.09392e-08
-9.44768e-10
-1.99493e-08
-9.8992e-10
-1.89197e-08
-1.02967e-09
-1.78561e-08
-1.06359e-09
-1.67648e-08
-1.0913e-09
-1.56523e-08
-1.11248e-09
-1.45255e-08
-1.12683e-09
-1.33913e-08
-1.13416e-09
-1.2257e-08
-1.13431e-09
-1.11298e-08
-1.12719e-09
-1.0017e-08
-1.11278e-09
-8.92586e-09
-1.09113e-09
-7.86348e-09
-1.06238e-09
-6.83679e-09
-1.0267e-09
-5.85242e-09
-9.84359e-10
-4.91672e-09
-9.35694e-10
-4.03562e-09
-8.81098e-10
-3.2146e-09
-8.21023e-10
-2.45862e-09
-7.55977e-10
-1.77209e-09
-6.86525e-10
-1.1588e-09
-6.13286e-10
-6.21875e-10
-5.36928e-10
-1.63696e-10
-4.5818e-10
2.14147e-10
-3.77844e-10
5.10947e-10
-2.96804e-10
7.26987e-10
-2.16045e-10
8.63725e-10
-1.36744e-10
9.24005e-10
-6.0284e-11
9.12415e-10
1.159e-11
8.3585e-10
7.65677e-11
7.04349e-10
1.31502e-10
5.3242e-10
1.71927e-10
3.40894e-10
1.91524e-10
1.59773e-10
1.81123e-10
3.17879e-11
1.27983e-10
3.17847e-11
1.29807e-10
-2.0594e-10
2.45925e-10
-2.16162e-10
2.30043e-10
-5.21655e-11
2.37127e-11
2.17736e-10
-4.10304e-10
5.38317e-10
-1.08439e-09
8.75694e-10
-1.99678e-09
1.20869e-09
-3.13664e-09
1.52491e-09
-4.48803e-09
1.81734e-09
-6.03251e-09
2.08288e-09
-7.75051e-09
2.32059e-09
-9.6224e-09
2.5307e-09
-1.16291e-08
2.71418e-09
-1.37527e-08
2.87257e-09
-1.59762e-08
3.00769e-09
-1.8284e-08
3.1214e-09
-2.06617e-08
3.21546e-09
-2.30962e-08
3.29155e-09
-2.55754e-08
3.35135e-09
-2.80884e-08
3.39642e-09
-3.06253e-08
3.42809e-09
-3.31769e-08
3.44751e-09
-3.57348e-08
3.45562e-09
-3.82912e-08
3.45326e-09
-4.08388e-08
3.44113e-09
-4.33707e-08
3.4198e-09
-4.58801e-08
3.38966e-09
-4.83608e-08
3.35096e-09
-5.08064e-08
3.3038e-09
-5.32105e-08
3.24825e-09
-5.5567e-08
3.18425e-09
-5.78694e-08
3.11171e-09
-6.01112e-08
3.03047e-09
-6.22858e-08
2.94032e-09
-6.43864e-08
2.84097e-09
-6.64058e-08
2.73215e-09
-6.8337e-08
2.61358e-09
-7.01726e-08
2.48499e-09
-7.1905e-08
2.34616e-09
-7.35264e-08
2.19689e-09
-7.50292e-08
2.03705e-09
-7.64055e-08
1.86655e-09
-7.76474e-08
1.68537e-09
-7.87473e-08
1.49359e-09
-7.96974e-08
1.29139e-09
-8.04904e-08
1.07903e-09
-8.11192e-08
8.56941e-10
-8.15771e-08
6.25633e-10
-8.18579e-08
3.85777e-10
-8.19559e-08
1.38169e-10
-8.18663e-08
-1.16269e-10
-8.15848e-08
-3.76469e-10
-8.11082e-08
-6.41235e-10
-8.04342e-08
-9.09242e-10
-7.95616e-08
-1.17903e-09
-7.84902e-08
-1.44904e-09
-7.72214e-08
-1.71757e-09
-7.57575e-08
-1.98285e-09
-7.41023e-08
-2.24301e-09
-7.22612e-08
-2.49614e-09
-7.02407e-08
-2.74028e-09
-6.80489e-08
-2.97346e-09
-6.56953e-08
-3.19373e-09
-6.31908e-08
-3.39914e-09
-6.05477e-08
-3.58783e-09
-5.77797e-08
-3.75799e-09
-5.49014e-08
-3.90793e-09
-5.19289e-08
-4.0361e-09
-4.88791e-08
-4.14109e-09
-4.57699e-08
-4.2217e-09
-4.26198e-08
-4.27692e-09
-3.9448e-08
-4.30596e-09
-3.62741e-08
-4.30825e-09
-3.31178e-08
-4.28347e-09
-2.9999e-08
-4.23157e-09
-2.69374e-08
-4.15273e-09
-2.39523e-08
-4.04741e-09
-2.10627e-08
-3.91633e-09
-1.82866e-08
-3.76046e-09
-1.56413e-08
-3.58103e-09
-1.31429e-08
-3.37949e-09
-1.08063e-08
-3.15755e-09
-8.64516e-09
-2.91713e-09
-6.67132e-09
-2.66036e-09
-4.89501e-09
-2.38959e-09
-3.32453e-09
-2.10741e-09
-1.9661e-09
-1.81662e-09
-8.23613e-10
-1.52034e-09
1.01582e-10
-1.22201e-09
8.11069e-10
-9.25537e-10
1.30973e-09
-6.35407e-10
1.6064e-09
-3.56962e-10
1.7147e-09
-9.67063e-11
1.6541e-09
1.37169e-10
1.45148e-09
3.34119e-10
1.14307e-09
4.80338e-10
7.76639e-10
5.57946e-10
4.13404e-10
5.44342e-10
1.27206e-10
4.1416e-10
1.58986e-10
7.89303e-11
-2.84859e-10
8.03241e-11
-2.17578e-10
-1.39741e-10
1.67914e-10
-6.53712e-10
7.31681e-10
-1.50356e-09
1.38818e-09
-2.70593e-09
2.07805e-09
-4.2596e-09
2.76236e-09
-6.1514e-09
3.41671e-09
-8.3609e-09
4.02683e-09
-1.08631e-08
4.58509e-09
-1.36308e-08
5.08825e-09
-1.66359e-08
5.53586e-09
-1.9851e-08
5.92923e-09
-2.32493e-08
6.27084e-09
-2.68055e-08
6.56385e-09
-3.04957e-08
6.81166e-09
-3.42979e-08
7.01768e-09
-3.81917e-08
7.18532e-09
-4.21582e-08
7.31784e-09
-4.618e-08
7.41828e-09
-5.02413e-08
7.48935e-09
-5.43272e-08
7.53342e-09
-5.8424e-08
7.55251e-09
-6.25192e-08
7.54838e-09
-6.66005e-08
7.52248e-09
-7.06567e-08
7.47596e-09
-7.46767e-08
7.40967e-09
-7.86499e-08
7.32417e-09
-8.25659e-08
7.21981e-09
-8.64143e-08
7.09669e-09
-9.01849e-08
6.95478e-09
-9.3867e-08
6.79388e-09
-9.74503e-08
6.6137e-09
-1.00924e-07
6.4138e-09
-1.04276e-07
6.1937e-09
-1.07497e-07
5.95288e-09
-1.10574e-07
5.6908e-09
-1.13496e-07
5.40695e-09
-1.16251e-07
5.1009e-09
-1.18827e-07
4.77229e-09
-1.2121e-07
4.42087e-09
-1.2339e-07
4.04653e-09
-1.25354e-07
3.64931e-09
-1.2709e-07
3.22945e-09
-1.28586e-07
2.78739e-09
-1.29831e-07
2.32379e-09
-1.30814e-07
1.83957e-09
-1.31524e-07
1.33591e-09
-1.31952e-07
8.14262e-10
-1.3209e-07
2.76372e-10
-1.31931e-07
-2.75739e-10
-1.31468e-07
-8.39763e-10
-1.30696e-07
-1.4131e-09
-1.29612e-07
-1.99289e-09
-1.28215e-07
-2.57601e-09
-1.26505e-07
-3.15909e-09
-1.24484e-07
-3.73852e-09
-1.22157e-07
-4.31052e-09
-1.19528e-07
-4.87115e-09
-1.16608e-07
-5.41633e-09
-1.13407e-07
-5.94194e-09
-1.09936e-07
-6.4438e-09
-1.06212e-07
-6.91777e-09
-1.02252e-07
-7.35976e-09
-9.80736e-08
-7.76581e-09
-9.36994e-08
-8.13214e-09
-8.91522e-08
-8.45518e-09
-8.44566e-08
-8.73166e-09
-7.96391e-08
-8.95865e-09
-7.47272e-08
-9.13359e-09
-6.97498e-08
-9.25435e-09
-6.47365e-08
-9.31926e-09
-5.97176e-08
-9.32713e-09
-5.47237e-08
-9.27731e-09
-4.97857e-08
-9.16964e-09
-4.49338e-08
-9.00457e-09
-4.01982e-08
-8.78304e-09
-3.56079e-08
-8.5066e-09
-3.11911e-08
-8.1773e-09
-2.69743e-08
-7.79776e-09
-2.29827e-08
-7.3711e-09
-1.92393e-08
-6.90096e-09
-1.5765e-08
-6.39145e-09
-1.25782e-08
-5.84718e-09
-9.69452e-09
-5.27325e-09
-7.12667e-09
-4.67526e-09
-4.88394e-09
-4.05935e-09
-2.97199e-09
-3.43229e-09
-1.39238e-09
-2.80161e-09
-1.4215e-10
-2.17578e-09
7.86902e-10
-1.56447e-09
1.40892e-09
-9.78981e-10
1.74504e-09
-4.32817e-10
1.82463e-09
5.75758e-11
1.68681e-09
4.71935e-10
1.38222e-09
7.8493e-10
9.74734e-10
9.65438e-10
5.42715e-10
9.76355e-10
1.79384e-10
7.77473e-10
3.38367e-10
-3.52669e-12
-2.81322e-10
-2.00174e-10
-2.09289e-11
-7.13556e-10
6.81273e-10
-1.61572e-09
1.63387e-09
-2.9472e-09
2.71964e-09
-4.72407e-09
3.85493e-09
-6.94424e-09
4.98253e-09
-9.59255e-09
6.06501e-09
-1.26451e-08
7.07939e-09
-1.60725e-08
8.01246e-09
-1.9842e-08
8.85779e-09
-2.39197e-08
9.61353e-09
-2.82714e-08
1.02809e-08
-3.28637e-08
1.08632e-08
-3.76647e-08
1.13648e-08
-4.26437e-08
1.17907e-08
-4.77724e-08
1.21463e-08
-5.30239e-08
1.24368e-08
-5.83735e-08
1.26675e-08
-6.37983e-08
1.2843e-08
-6.92767e-08
1.29678e-08
-7.4789e-08
1.30457e-08
-8.03166e-08
1.30801e-08
-8.58421e-08
1.30739e-08
-9.13491e-08
1.30295e-08
-9.68218e-08
1.29487e-08
-1.02245e-07
1.28331e-08
-1.07605e-07
1.26835e-08
-1.12886e-07
1.25008e-08
-1.18074e-07
1.2285e-08
-1.23155e-07
1.20361e-08
-1.28115e-07
1.1754e-08
-1.3294e-07
1.14381e-08
-1.37614e-07
1.10878e-08
-1.42123e-07
1.07024e-08
-1.46451e-07
1.02811e-08
-1.50583e-07
9.82293e-09
-1.54503e-07
9.32729e-09
-1.58196e-07
8.79348e-09
-1.61644e-07
8.22098e-09
-1.64833e-07
7.60947e-09
-1.67745e-07
6.95884e-09
-1.70365e-07
6.26927e-09
-1.72677e-07
5.54125e-09
-1.74665e-07
4.77563e-09
-1.76315e-07
3.97362e-09
-1.77612e-07
3.13687e-09
-1.78544e-07
2.26747e-09
-1.79098e-07
1.36797e-09
-1.79263e-07
4.41367e-10
-1.7903e-07
-5.08826e-10
-1.78391e-07
-1.47864e-09
-1.7734e-07
-2.46363e-09
-1.75874e-07
-3.45889e-09
-1.73991e-07
-4.4591e-09
-1.71692e-07
-5.45853e-09
-1.68979e-07
-6.45107e-09
-1.65859e-07
-7.43032e-09
-1.62341e-07
-8.3896e-09
-1.58435e-07
-9.32208e-09
-1.54156e-07
-1.02208e-08
-1.49521e-07
-1.10787e-08
-1.4455e-07
-1.18888e-08
-1.39266e-07
-1.26442e-08
-1.33694e-07
-1.33383e-08
-1.27861e-07
-1.39648e-08
-1.21798e-07
-1.45177e-08
-1.15538e-07
-1.49915e-08
-1.09116e-07
-1.53812e-08
-1.02567e-07
-1.56827e-08
-9.59289e-08
-1.58922e-08
-8.9241e-08
-1.60071e-08
-8.25429e-08
-1.60253e-08
-7.58744e-08
-1.59457e-08
-6.92759e-08
-1.57681e-08
-6.27873e-08
-1.54933e-08
-5.64476e-08
-1.51227e-08
-5.0295e-08
-1.46592e-08
-4.43663e-08
-1.4106e-08
-3.86963e-08
-1.34677e-08
-3.33178e-08
-1.27496e-08
-2.8261e-08
-1.19578e-08
-2.3553e-08
-1.10994e-08
-1.9218e-08
-1.01823e-08
-1.52761e-08
-9.2151e-09
-1.17439e-08
-8.20753e-09
-8.63308e-09
-7.17013e-09
-5.95087e-09
-6.11451e-09
-3.69892e-09
-5.05357e-09
-1.87299e-09
-4.00172e-09
-4.62172e-10
-2.97528e-09
5.51909e-10
-1.99306e-09
1.19613e-09
-1.07704e-09
1.507e-09
-2.53301e-10
1.53205e-09
4.46881e-10
1.33116e-09
9.8582e-10
9.78127e-10
1.31847e-09
5.62173e-10
1.3923e-09
1.90492e-10
1.14914e-09
5.2886e-10
-1.03483e-10
-1.77832e-10
-5.37499e-10
4.1308e-10
-1.39674e-09
1.54053e-09
-2.73974e-09
2.97684e-09
-4.59868e-09
4.57859e-09
-6.98466e-09
6.24091e-09
-9.8919e-09
7.88976e-09
-1.33023e-08
9.47538e-09
-1.71886e-08
1.09658e-08
-2.15178e-08
1.23417e-08
-2.6253e-08
1.3593e-08
-3.13556e-08
1.47161e-08
-3.67864e-08
1.57117e-08
-4.25069e-08
1.65837e-08
-4.84795e-08
1.73374e-08
-5.46685e-08
1.79797e-08
-6.10398e-08
1.85176e-08
-6.75615e-08
1.89586e-08
-7.42038e-08
1.93097e-08
-8.09385e-08
1.95778e-08
-8.77397e-08
1.97689e-08
-9.45827e-08
1.98887e-08
-1.01445e-07
1.9942e-08
-1.08304e-07
1.9933e-08
-1.15139e-07
1.98652e-08
-1.21932e-07
1.97413e-08
-1.28663e-07
1.95636e-08
-1.35312e-07
1.93334e-08
-1.41863e-07
1.90518e-08
-1.48298e-07
1.87193e-08
-1.54597e-07
1.83357e-08
-1.60744e-07
1.79009e-08
-1.6672e-07
1.74143e-08
-1.72507e-07
1.68748e-08
-1.78087e-07
1.62816e-08
-1.83439e-07
1.56336e-08
-1.88546e-07
1.49297e-08
-1.93387e-07
1.41687e-08
-1.97944e-07
1.335e-08
-2.02196e-07
1.24729e-08
-2.06123e-07
1.15369e-08
-2.09707e-07
1.05421e-08
-2.12926e-07
9.48889e-09
-2.15763e-07
8.37807e-09
-2.18198e-07
7.21107e-09
-2.20215e-07
5.98983e-09
-2.21795e-07
4.71695e-09
-2.22923e-07
3.39565e-09
-2.23585e-07
2.02984e-09
-2.23768e-07
6.24127e-10
-2.2346e-07
-8.16178e-10
-2.22654e-07
-2.28505e-09
-2.21342e-07
-3.77579e-09
-2.1952e-07
-5.28103e-09
-2.17186e-07
-6.79275e-09
-2.14342e-07
-8.30236e-09
-2.10992e-07
-9.80075e-09
-2.07144e-07
-1.12784e-08
-2.02809e-07
-1.27253e-08
-1.98e-07
-1.41312e-08
-1.92734e-07
-1.54859e-08
-1.87034e-07
-1.67788e-08
-1.80923e-07
-1.79996e-08
-1.74429e-07
-1.91382e-08
-1.67583e-07
-2.01846e-08
-1.60419e-07
-2.11294e-08
-1.52973e-07
-2.19639e-08
-1.45284e-07
-2.26798e-08
-1.37395e-07
-2.327e-08
-1.2935e-07
-2.3728e-08
-1.21194e-07
-2.40486e-08
-1.12973e-07
-2.42277e-08
-1.04736e-07
-2.42621e-08
-9.65315e-08
-2.41505e-08
-8.84073e-08
-2.38923e-08
-8.04118e-08
-2.34887e-08
-7.25923e-08
-2.29422e-08
-6.49949e-08
-2.22566e-08
-5.76638e-08
-2.14371e-08
-5.06412e-08
-2.04903e-08
-4.39664e-08
-1.94243e-08
-3.76761e-08
-1.82482e-08
-3.18028e-08
-1.69726e-08
-2.63756e-08
-1.56095e-08
-2.14188e-08
-1.41719e-08
-1.6952e-08
-1.26743e-08
-1.29895e-08
-1.11327e-08
-9.53944e-09
-9.56455e-09
-6.60383e-09
-7.98919e-09
-4.17745e-09
-6.42809e-09
-2.24739e-09
-4.90535e-09
-7.92116e-10
-3.44834e-09
2.19364e-10
-2.08852e-09
8.28531e-10
-8.62465e-10
1.08842e-09
1.86995e-10
1.0648e-09
1.00943e-09
8.37575e-10
1.54569e-09
5.02572e-10
1.7273e-09
1.74969e-10
1.47674e-09
7.03829e-10
-2.07599e-10
2.97562e-11
-8.98054e-10
1.10353e-09
-2.13133e-09
2.77379e-09
-3.94599e-09
4.79151e-09
-6.36084e-09
6.99343e-09
-9.37813e-09
9.25819e-09
-1.29861e-08
1.14977e-08
-1.71618e-08
1.36512e-08
-2.18744e-08
1.56783e-08
-2.7087e-08
1.75542e-08
-3.27591e-08
1.92651e-08
-3.88481e-08
2.08052e-08
-4.5311e-08
2.21746e-08
-5.21049e-08
2.33775e-08
-5.91879e-08
2.44204e-08
-6.65197e-08
2.53115e-08
-7.4062e-08
2.60599e-08
-8.17784e-08
2.6675e-08
-8.96345e-08
2.71659e-08
-9.75981e-08
2.75414e-08
-1.05639e-07
2.78096e-08
-1.13728e-07
2.79778e-08
-1.21838e-07
2.80526e-08
-1.29945e-07
2.80395e-08
-1.38023e-07
2.79432e-08
-1.46049e-07
2.77674e-08
-1.54001e-07
2.75151e-08
-1.61855e-07
2.71883e-08
-1.69592e-07
2.67883e-08
-1.77188e-07
2.63158e-08
-1.84624e-07
2.57711e-08
-1.91876e-07
2.51536e-08
-1.98925e-07
2.44627e-08
-2.05747e-07
2.36973e-08
-2.12322e-07
2.28561e-08
-2.18626e-07
2.19377e-08
-2.24637e-07
2.09408e-08
-2.30333e-07
1.98642e-08
-2.35689e-07
1.87068e-08
-2.40684e-07
1.74679e-08
-2.45294e-07
1.61471e-08
-2.49497e-07
1.47445e-08
-2.53269e-07
1.3261e-08
-2.56589e-07
1.16978e-08
-2.59435e-07
1.0057e-08
-2.61786e-07
8.34149e-09
-2.63624e-07
6.55497e-09
-2.64931e-07
4.70204e-09
-2.65689e-07
2.78825e-09
-2.65885e-07
8.20061e-10
-2.65506e-07
-1.19507e-09
-2.64542e-07
-3.24875e-09
-2.62987e-07
-5.33163e-09
-2.60834e-07
-7.43348e-09
-2.58084e-07
-9.54319e-09
-2.54737e-07
-1.16489e-08
-2.508e-07
-1.37379e-08
-2.46281e-07
-1.57972e-08
-2.41193e-07
-1.78129e-08
-2.35554e-07
-1.97712e-08
-2.29382e-07
-2.16575e-08
-2.22703e-07
-2.34578e-08
-2.15545e-07
-2.51576e-08
-2.0794e-07
-2.67431e-08
-1.99924e-07
-2.82007e-08
-1.91536e-07
-2.95176e-08
-1.82818e-07
-3.06815e-08
-1.73816e-07
-3.16814e-08
-1.64579e-07
-3.25074e-08
-1.55156e-07
-3.31506e-08
-1.45601e-07
-3.36039e-08
-1.35967e-07
-3.38616e-08
-1.2631e-07
-3.39195e-08
-1.16685e-07
-3.37756e-08
-1.07148e-07
-3.34293e-08
-9.77543e-08
-3.28821e-08
-8.85591e-08
-3.21375e-08
-7.96149e-08
-3.12007e-08
-7.0973e-08
-3.0079e-08
-6.26819e-08
-2.87815e-08
-5.47871e-08
-2.73192e-08
-4.73303e-08
-2.57049e-08
-4.03496e-08
-2.39534e-08
-3.3878e-08
-2.20811e-08
-2.79436e-08
-2.01062e-08
-2.2569e-08
-1.80489e-08
-1.77703e-08
-1.59314e-08
-1.35572e-08
-1.37777e-08
-9.93181e-09
-1.16145e-08
-6.88853e-09
-9.47137e-09
-4.41302e-09
-7.38087e-09
-2.48161e-09
-5.37975e-09
-1.06051e-09
-3.50962e-09
-1.05021e-10
-1.81796e-09
4.41399e-10
-3.59425e-10
6.48031e-10
8.02794e-10
5.98139e-10
1.59557e-09
3.90663e-10
1.93477e-09
1.43288e-10
1.72412e-09
8.47115e-10
-3.10733e-10
3.40493e-10
-1.2629e-09
2.05569e-09
-2.88184e-09
4.39273e-09
-5.18272e-09
7.09238e-09
-8.16798e-09
9.97868e-09
-1.1828e-08
1.29182e-08
-1.61428e-08
1.58125e-08
-2.10834e-08
1.85917e-08
-2.66139e-08
2.12089e-08
-3.26935e-08
2.36338e-08
-3.9278e-08
2.58496e-08
-4.63213e-08
2.78485e-08
-5.37768e-08
2.96301e-08
-6.15979e-08
3.11986e-08
-6.97391e-08
3.25617e-08
-7.81566e-08
3.3729e-08
-8.68082e-08
3.47115e-08
-9.56538e-08
3.55205e-08
-1.04655e-07
3.61672e-08
-1.13776e-07
3.66626e-08
-1.22983e-07
3.70166e-08
-1.32244e-07
3.72384e-08
-1.41527e-07
3.73362e-08
-1.50805e-07
3.7317e-08
-1.60048e-07
3.71867e-08
-1.69231e-07
3.69502e-08
-1.78327e-07
3.6611e-08
-1.87311e-07
3.6172e-08
-1.96157e-07
3.56348e-08
-2.04842e-07
3.50005e-08
-2.1334e-07
3.42692e-08
-2.21627e-07
3.34406e-08
-2.29678e-07
3.25138e-08
-2.37468e-07
3.14874e-08
-2.44972e-07
3.03601e-08
-2.52165e-07
2.91302e-08
-2.5902e-07
2.7796e-08
-2.65512e-07
2.63562e-08
-2.71615e-07
2.48095e-08
-2.77302e-07
2.31552e-08
-2.82548e-07
2.1393e-08
-2.87327e-07
1.95233e-08
-2.91613e-07
1.75472e-08
-2.95382e-07
1.54667e-08
-2.9861e-07
1.32847e-08
-3.01273e-07
1.10051e-08
-3.03351e-07
8.63298e-09
-3.04824e-07
6.17448e-09
-3.05673e-07
3.63699e-09
-3.05882e-07
1.02915e-09
-3.05437e-07
-1.63918e-09
-3.04329e-07
-4.35691e-09
-3.02549e-07
-7.11173e-09
-3.00093e-07
-9.89019e-09
-2.96958e-07
-1.26777e-08
-2.93148e-07
-1.54587e-08
-2.88669e-07
-1.82167e-08
-2.83532e-07
-2.09345e-08
-2.77751e-07
-2.35942e-08
-2.71345e-07
-2.61774e-08
-2.64337e-07
-2.86656e-08
-2.56754e-07
-3.10401e-08
-2.48629e-07
-3.32824e-08
-2.39998e-07
-3.53742e-08
-2.30901e-07
-3.7298e-08
-2.21382e-07
-3.90371e-08
-2.11487e-07
-4.05756e-08
-2.0127e-07
-4.18991e-08
-1.90783e-07
-4.29947e-08
-1.80082e-07
-4.38509e-08
-1.69228e-07
-4.44584e-08
-1.5828e-07
-4.48097e-08
-1.47299e-07
-4.48997e-08
-1.3635e-07
-4.47253e-08
-1.25493e-07
-4.42861e-08
-1.14791e-07
-4.35839e-08
-1.04306e-07
-4.26232e-08
-9.40954e-08
-4.14109e-08
-8.42178e-08
-3.99566e-08
-7.47273e-08
-3.8272e-08
-6.56746e-08
-3.63718e-08
-5.71068e-08
-3.42727e-08
-4.90662e-08
-3.1994e-08
-4.15899e-08
-2.95574e-08
-3.47094e-08
-2.69867e-08
-2.84499e-08
-2.43085e-08
-2.28296e-08
-2.15517e-08
-1.78594e-08
-1.87479e-08
-1.35421e-08
-1.59319e-08
-9.87184e-09
-1.31416e-08
-6.83359e-09
-1.04191e-08
-4.40237e-09
-7.81098e-09
-2.54269e-09
-5.3693e-09
-1.20787e-09
-3.15278e-09
-3.39409e-10
-1.22789e-09
1.33755e-10
3.29626e-10
2.96153e-10
1.43317e-09
2.47061e-10
1.98386e-09
1.02605e-10
1.86857e-09
9.49718e-10
-4.10479e-10
7.50965e-10
-1.62198e-09
3.26719e-09
-3.62744e-09
6.3982e-09
-6.41757e-09
9.88251e-09
-9.97673e-09
1.35378e-08
-1.42819e-08
1.72234e-08
-1.9303e-08
2.08335e-08
-2.50035e-08
2.42923e-08
-3.13419e-08
2.75472e-08
-3.82725e-08
3.05645e-08
-4.57472e-08
3.33243e-08
-5.37165e-08
3.58178e-08
-6.21302e-08
3.80438e-08
-7.09387e-08
4.00071e-08
-8.00934e-08
4.17164e-08
-8.95471e-08
4.31827e-08
-9.92545e-08
4.44189e-08
-1.09172e-07
4.54382e-08
-1.19259e-07
4.6254e-08
-1.29475e-07
4.68791e-08
-1.39784e-07
4.73256e-08
-1.50151e-07
4.76046e-08
-1.6054e-07
4.77259e-08
-1.70921e-07
4.76979e-08
-1.81262e-07
4.75279e-08
-1.91534e-07
4.72216e-08
-2.01706e-07
4.67837e-08
-2.11752e-07
4.62174e-08
-2.21642e-07
4.55251e-08
-2.3135e-07
4.47079e-08
-2.40846e-07
4.37661e-08
-2.50105e-07
4.26993e-08
-2.59098e-07
4.15066e-08
-2.67797e-07
4.01865e-08
-2.76174e-07
3.87373e-08
-2.84201e-07
3.7157e-08
-2.91849e-07
3.54439e-08
-2.99089e-07
3.35963e-08
-3.05893e-07
3.1613e-08
-3.12231e-07
2.94932e-08
-3.18074e-07
2.72368e-08
-3.23396e-07
2.48444e-08
-3.28166e-07
2.23177e-08
-3.32359e-07
1.96594e-08
-3.35947e-07
1.68733e-08
-3.38907e-07
1.39646e-08
-3.41213e-07
1.09398e-08
-3.42846e-07
7.80691e-09
-3.43784e-07
4.57533e-09
-3.44011e-07
1.25609e-09
-3.43512e-07
-2.13831e-09
-3.42275e-07
-5.59377e-09
-3.40292e-07
-9.09475e-09
-3.37558e-07
-1.26242e-08
-3.34072e-07
-1.61638e-08
-3.29837e-07
-1.9694e-08
-3.24859e-07
-2.31939e-08
-3.19152e-07
-2.66419e-08
-3.1273e-07
-3.00157e-08
-3.05616e-07
-3.32921e-08
-2.97834e-07
-3.64478e-08
-2.89414e-07
-3.94595e-08
-2.80392e-07
-4.2304e-08
-2.70808e-07
-4.49583e-08
-2.60706e-07
-4.74006e-08
-2.50133e-07
-4.96098e-08
-2.39142e-07
-5.15662e-08
-2.2779e-07
-5.32516e-08
-2.16135e-07
-5.46498e-08
-2.04239e-07
-5.57466e-08
-1.92167e-07
-5.65301e-08
-1.79986e-07
-5.69911e-08
-1.67763e-07
-5.7123e-08
-1.55566e-07
-5.6922e-08
-1.43465e-07
-5.63876e-08
-1.31526e-07
-5.5522e-08
-1.19819e-07
-5.43308e-08
-1.08407e-07
-5.28229e-08
-9.73535e-08
-5.10099e-08
-8.67184e-08
-4.89071e-08
-7.65576e-08
-4.65326e-08
-6.69226e-08
-4.39077e-08
-5.78601e-08
-4.10565e-08
-4.94109e-08
-3.80065e-08
-4.16097e-08
-3.47879e-08
-3.44843e-08
-3.14339e-08
-2.8055e-08
-2.7981e-08
-2.23339e-08
-2.44689e-08
-1.73249e-08
-2.09409e-08
-1.30222e-08
-1.74443e-08
-9.41073e-09
-1.40306e-08
-6.46474e-09
-1.0757e-08
-4.1479e-09
-7.68614e-09
-2.41258e-09
-4.8881e-09
-1.1994e-09
-2.44107e-09
-4.36827e-10
-4.3295e-10
-4.06069e-11
1.03695e-09
8.69205e-11
1.85633e-09
5.77971e-11
1.89769e-09
1.00752e-09
-5.05989e-10
1.25695e-09
-1.97025e-09
4.73145e-09
-4.35605e-09
8.78399e-09
-7.63048e-09
1.3157e-08
-1.17592e-08
1.76665e-08
-1.67047e-08
2.21689e-08
-2.24258e-08
2.65546e-08
-2.88774e-08
3.07439e-08
-3.60111e-08
3.4681e-08
-4.37762e-08
3.83295e-08
-5.212e-08
4.16681e-08
-6.09893e-08
4.4687e-08
-7.03307e-08
4.73852e-08
-8.00915e-08
4.97679e-08
-9.02202e-08
5.1845e-08
-1.00667e-07
5.36293e-08
-1.11383e-07
5.51352e-08
-1.22323e-07
5.63782e-08
-1.33443e-07
5.73735e-08
-1.447e-07
5.81362e-08
-1.56054e-07
5.86803e-08
-1.67468e-07
5.90186e-08
-1.78905e-07
5.91627e-08
-1.9033e-07
5.91226e-08
-2.01709e-07
5.89067e-08
-2.13009e-07
5.85219e-08
-2.24199e-07
5.79735e-08
-2.35247e-07
5.72657e-08
-2.46123e-07
5.6401e-08
-2.56796e-07
5.5381e-08
-2.67236e-07
5.42061e-08
-2.77413e-07
5.28759e-08
-2.87295e-07
5.13892e-08
-2.96853e-07
4.97445e-08
-3.06056e-07
4.79398e-08
-3.14872e-07
4.5973e-08
-3.2327e-07
4.3842e-08
-3.31219e-07
4.15451e-08
-3.38687e-07
3.9081e-08
-3.45642e-07
3.64488e-08
-3.52054e-07
3.36488e-08
-3.57892e-07
3.0682e-08
-3.63125e-07
2.75505e-08
-3.67723e-07
2.4258e-08
-3.71659e-07
2.08092e-08
-3.74906e-07
1.72108e-08
-3.77437e-07
1.3471e-08
-3.79229e-07
9.59946e-09
-3.80262e-07
5.60809e-09
-3.80516e-07
1.51042e-09
-3.79977e-07
-2.67813e-09
-3.7863e-07
-6.94028e-09
-3.76468e-07
-1.12569e-08
-3.73485e-07
-1.56072e-08
-3.6968e-07
-1.99687e-08
-3.65057e-07
-2.43174e-08
-3.59623e-07
-2.8628e-08
-3.5339e-07
-3.28741e-08
-3.46378e-07
-3.70283e-08
-3.38607e-07
-4.10626e-08
-3.30106e-07
-4.49485e-08
-3.20908e-07
-4.86576e-08
-3.11051e-07
-5.21615e-08
-3.00577e-07
-5.54325e-08
-2.89534e-07
-5.84438e-08
-2.77974e-07
-6.11698e-08
-2.65953e-07
-6.35864e-08
-2.53533e-07
-6.56716e-08
-2.40778e-07
-6.74055e-08
-2.27753e-07
-6.87708e-08
-2.14531e-07
-6.97531e-08
-2.01181e-07
-7.03409e-08
-1.87777e-07
-7.05263e-08
-1.74395e-07
-7.03046e-08
-1.61107e-07
-6.96751e-08
-1.47989e-07
-6.86405e-08
-1.35112e-07
-6.72077e-08
-1.22548e-07
-6.53871e-08
-1.10364e-07
-6.31935e-08
-9.86262e-08
-6.06451e-08
-8.73946e-08
-5.77642e-08
-7.67256e-08
-5.45767e-08
-6.66697e-08
-5.11124e-08
-5.72715e-08
-4.74047e-08
-4.85687e-08
-4.34906e-08
-4.05919e-08
-3.94107e-08
-3.33634e-08
-3.52095e-08
-2.6897e-08
-3.09353e-08
-2.11976e-08
-2.66404e-08
-1.62602e-08
-2.23817e-08
-1.20696e-08
-1.82212e-08
-8.60033e-09
-1.42263e-08
-5.81568e-09
-1.04708e-08
-3.66779e-09
-7.03601e-09
-2.09722e-09
-4.01164e-09
-1.03287e-09
-1.4973e-09
-3.91783e-10
3.95854e-10
-7.90663e-11
1.54361e-09
1.20902e-11
1.80653e-09
1.01961e-09
-5.96924e-10
1.85387e-09
-2.30501e-09
6.43952e-09
-5.06101e-09
1.154e-08
-8.80962e-09
1.69056e-08
-1.3498e-08
2.2355e-08
-1.90739e-08
2.77448e-08
-2.54841e-08
3.29648e-08
-3.26743e-08
3.7934e-08
-4.05886e-08
4.25953e-08
-4.91704e-08
4.69113e-08
-5.83624e-08
5.08601e-08
-6.81073e-08
5.44319e-08
-7.83483e-08
5.76262e-08
-8.90298e-08
6.04494e-08
-1.00097e-07
6.29126e-08
-1.11498e-07
6.50304e-08
-1.23183e-07
6.68193e-08
-1.35101e-07
6.82965e-08
-1.47207e-07
6.94797e-08
-1.59457e-07
7.03858e-08
-1.71807e-07
7.10309e-08
-1.84218e-07
7.14296e-08
-1.96651e-07
7.15951e-08
-2.09067e-07
7.1539e-08
-2.21431e-07
7.12708e-08
-2.33708e-07
7.07986e-08
-2.45863e-07
7.01287e-08
-2.57863e-07
6.92655e-08
-2.69674e-07
6.82123e-08
-2.81264e-07
6.69708e-08
-2.92599e-07
6.55416e-08
-3.03648e-07
6.39243e-08
-3.14376e-07
6.21175e-08
-3.24751e-07
6.01195e-08
-3.34739e-07
5.79282e-08
-3.44307e-07
5.55411e-08
-3.53422e-07
5.29561e-08
-3.62048e-07
5.01713e-08
-3.70152e-07
4.71852e-08
-3.777e-07
4.39973e-08
-3.84659e-07
4.06079e-08
-3.90996e-07
3.70184e-08
-3.96677e-07
3.32318e-08
-4.01672e-07
2.92525e-08
-4.05949e-07
2.50866e-08
-4.0948e-07
2.07419e-08
-4.12238e-07
1.62286e-08
-4.14197e-07
1.15585e-08
-4.15335e-07
6.74578e-09
-4.15631e-07
1.8068e-09
-4.15069e-07
-3.23991e-09
-4.13636e-07
-8.37364e-09
-4.11321e-07
-1.35715e-08
-4.0812e-07
-1.88087e-08
-4.0403e-07
-2.40582e-08
-3.99056e-07
-2.92916e-08
-3.93205e-07
-3.44785e-08
-3.86492e-07
-3.95875e-08
-3.78934e-07
-4.4586e-08
-3.70557e-07
-4.94405e-08
-3.61388e-07
-5.41171e-08
-3.51464e-07
-5.8582e-08
-3.40824e-07
-6.28013e-08
-3.29514e-07
-6.67421e-08
-3.17586e-07
-7.03723e-08
-3.05094e-07
-7.36614e-08
-2.921e-07
-7.65807e-08
-2.78667e-07
-7.9104e-08
-2.64865e-07
-8.12074e-08
-2.50766e-07
-8.28703e-08
-2.36444e-07
-8.40753e-08
-2.21976e-07
-8.48089e-08
-2.07441e-07
-8.50613e-08
-1.92918e-07
-8.4827e-08
-1.78488e-07
-8.41049e-08
-1.64231e-07
-8.28984e-08
-1.50223e-07
-8.12153e-08
-1.36542e-07
-7.90684e-08
-1.2326e-07
-7.64749e-08
-1.10448e-07
-7.34568e-08
-9.8172e-08
-7.00406e-08
-8.64914e-08
-6.62574e-08
-7.54612e-08
-6.21426e-08
-6.51298e-08
-5.77362e-08
-5.55381e-08
-5.30823e-08
-4.67193e-08
-4.82296e-08
-3.86981e-08
-4.32307e-08
-3.14901e-08
-3.81432e-08
-2.51015e-08
-3.3029e-08
-1.95282e-08
-2.7955e-08
-1.47559e-08
-2.29935e-08
-1.07592e-08
-1.8223e-08
-7.50174e-09
-1.37282e-08
-4.93593e-09
-9.60183e-09
-3.00281e-09
-5.94476e-09
-1.63224e-09
-2.86787e-09
-7.43086e-10
-4.9331e-10
-2.43656e-10
1.04417e-09
-3.24901e-11
1.59537e-09
9.87119e-10
-6.83185e-10
2.53705e-09
-2.62514e-09
8.3815e-09
-5.73905e-09
1.46539e-08
-9.94853e-09
2.11151e-08
-1.51831e-08
2.75895e-08
-2.13754e-08
3.39372e-08
-2.84604e-08
4.00498e-08
-3.63738e-08
4.58474e-08
-4.50519e-08
5.12735e-08
-5.44318e-08
5.62912e-08
-6.44509e-08
6.08792e-08
-7.50478e-08
6.50288e-08
-8.61621e-08
6.87406e-08
-9.77351e-08
7.20224e-08
-1.0971e-07
7.48873e-08
-1.22031e-07
7.73517e-08
-1.34646e-07
7.94342e-08
-1.47504e-07
8.11543e-08
-1.60556e-07
8.25317e-08
-1.73755e-07
8.35855e-08
-1.87058e-07
8.43336e-08
-2.00421e-07
8.47928e-08
-2.13804e-07
8.49776e-08
-2.27166e-07
8.49012e-08
-2.4047e-07
8.45745e-08
-2.53678e-07
8.40065e-08
-2.66753e-07
8.32042e-08
-2.79661e-07
8.21728e-08
-2.92364e-07
8.0916e-08
-3.04829e-07
7.94357e-08
-3.1702e-07
7.77325e-08
-3.28902e-07
7.58061e-08
-3.40439e-07
7.36551e-08
-3.51597e-07
7.12774e-08
-3.6234e-07
6.86706e-08
-3.72631e-07
6.58323e-08
-3.82435e-07
6.27599e-08
-3.91715e-07
5.94515e-08
-4.00435e-07
5.59056e-08
-4.0856e-07
5.21218e-08
-4.16053e-07
4.81005e-08
-4.22878e-07
4.38439e-08
-4.29002e-07
3.93554e-08
-4.3439e-07
3.46405e-08
-4.3901e-07
2.97065e-08
-4.42831e-07
2.45629e-08
-4.45824e-07
1.92216e-08
-4.47962e-07
1.36966e-08
-4.49221e-07
8.00474e-09
-4.49579e-07
2.16524e-09
-4.49019e-07
-3.80011e-09
-4.47526e-07
-9.86697e-09
-4.45089e-07
-1.60085e-08
-4.41702e-07
-2.21955e-08
-4.37364e-07
-2.83965e-08
-4.32077e-07
-3.4578e-08
-4.25851e-07
-4.07046e-08
-4.18699e-07
-4.67394e-08
-4.10641e-07
-5.26442e-08
-4.01701e-07
-5.838e-08
-3.91912e-07
-6.39069e-08
-3.81308e-07
-6.91854e-08
-3.69934e-07
-7.41758e-08
-3.57837e-07
-7.88394e-08
-3.4507e-07
-8.31388e-08
-3.31693e-07
-8.7038e-08
-3.17771e-07
-9.05036e-08
-3.0337e-07
-9.35044e-08
-2.88565e-07
-9.60126e-08
-2.73431e-07
-9.80039e-08
-2.58049e-07
-9.94577e-08
-2.425e-07
-1.00358e-07
-2.26868e-07
-1.00693e-07
-2.11238e-07
-1.00457e-07
-1.95696e-07
-9.96472e-08
-1.80326e-07
-9.82682e-08
-1.65212e-07
-9.63291e-08
-1.50436e-07
-9.38445e-08
-1.36076e-07
-9.08347e-08
-1.22208e-07
-8.73253e-08
-1.08901e-07
-8.33474e-08
-9.62209e-08
-7.89375e-08
-8.42263e-08
-7.41372e-08
-7.29693e-08
-6.89932e-08
-6.24942e-08
-6.35574e-08
-5.28372e-08
-5.78865e-08
-4.40255e-08
-5.20425e-08
-3.60767e-08
-4.6092e-08
-2.89987e-08
-4.0107e-08
-2.27886e-08
-3.41651e-08
-1.7433e-08
-2.83491e-08
-1.29073e-08
-2.27487e-08
-9.17567e-09
-1.74598e-08
-6.19116e-09
-1.25863e-08
-3.89556e-09
-8.24036e-09
-2.21992e-09
-4.54352e-09
-1.085e-09
-1.62823e-09
-4.02174e-10
3.61345e-10
-7.46689e-11
1.26786e-09
9.12449e-10
-7.6493e-10
3.30198e-09
-2.93066e-09
1.05472e-08
-6.38899e-09
1.81122e-08
-1.10442e-08
2.57703e-08
-1.68089e-08
3.33541e-08
-2.36013e-08
4.07296e-08
-3.13442e-08
4.77927e-08
-3.99633e-08
5.44665e-08
-4.93869e-08
6.0697e-08
-5.95451e-08
6.64494e-08
-7.037e-08
7.17042e-08
-8.17958e-08
7.64546e-08
-9.37583e-08
8.07031e-08
-1.06196e-07
8.44598e-08
-1.19048e-07
8.77398e-08
-1.32258e-07
9.05619e-08
-1.45771e-07
9.29469e-08
-1.59534e-07
9.49168e-08
-1.73495e-07
9.64933e-08
-1.87607e-07
9.76977e-08
-2.01824e-07
9.85502e-08
-2.161e-07
9.90691e-08
-2.30393e-07
9.92708e-08
-2.44662e-07
9.91698e-08
-2.58866e-07
9.87783e-08
-2.72966e-07
9.81063e-08
-2.86923e-07
9.71616e-08
-3.007e-07
9.59501e-08
-3.1426e-07
9.44757e-08
-3.27565e-07
9.27406e-08
-3.40578e-07
9.07457e-08
-3.53262e-07
8.84903e-08
-3.6558e-07
8.59729e-08
-3.77494e-07
8.31914e-08
-3.88966e-07
8.0143e-08
-3.99959e-07
7.68251e-08
-4.10434e-07
7.32349e-08
-4.20353e-07
6.93703e-08
-4.29677e-07
6.52299e-08
-4.38369e-07
6.08132e-08
-4.46389e-07
5.61211e-08
-4.53702e-07
5.11562e-08
-4.60269e-07
4.59227e-08
-4.66055e-07
4.04269e-08
-4.71026e-07
3.46777e-08
-4.75149e-07
2.86859e-08
-4.78393e-07
2.24655e-08
-4.8073e-07
1.60329e-08
-4.82132e-07
9.40741e-09
-4.82578e-07
2.61135e-09
-4.82048e-07
-4.33007e-09
-4.80527e-07
-1.13887e-08
-4.78001e-07
-1.85337e-08
-4.74466e-07
-2.57312e-08
-4.69917e-07
-3.2945e-08
-4.64359e-07
-4.01363e-08
-4.57799e-07
-4.72645e-08
-4.50251e-07
-5.42869e-08
-4.41736e-07
-6.11595e-08
-4.32279e-07
-6.78371e-08
-4.21912e-07
-7.42739e-08
-4.10673e-07
-8.0424e-08
-3.98607e-07
-8.62418e-08
-3.85764e-07
-9.16824e-08
-3.72201e-07
-9.67025e-08
-3.57978e-07
-1.01261e-07
-3.43164e-07
-1.05318e-07
-3.27831e-07
-1.08838e-07
-3.12055e-07
-1.11788e-07
-2.95918e-07