/*--------------------------------*- C++ -*----------------------------------*\
  =========                 |
  \\      /  F ield         | OpenFOAM: The Open Source CFD Toolbox
   \\    /   O peration     | Website:  https://openfoam.org
    \\  /    A nd           | Version:  7
     \\/     M anipulation  |
\*---------------------------------------------------------------------------*/
FoamFile
{
    version     2.0;
    format      ascii;
    class       volVectorField;
    location    "0.40625";
    object      U;
}
// * * * * * * * * * * * * * * * * * * * * * * * * * * * * * * * * * * * * * //

dimensions      [0 1 -1 0 0 0 0];

internalField   nonuniform List<vector> 
10000
(
(5.53072e-06 -2.2012e-06 0)
(1.33561e-05 -3.89327e-06 0)
(2.30341e-05 -4.06637e-06 0)
(2.54553e-05 -1.65517e-06 0)
(2.01012e-05 1.39688e-06 0)
(4.86548e-06 4.62664e-06 0)
(-2.00824e-05 7.75481e-06 0)
(-5.4268e-05 1.06406e-05 0)
(-9.69717e-05 1.32114e-05 0)
(-0.000147369 1.54603e-05 0)
(-0.000204598 1.74194e-05 0)
(-0.000267837 1.91201e-05 0)
(-0.000336311 2.05735e-05 0)
(-0.00040929 2.17917e-05 0)
(-0.000486096 2.2803e-05 0)
(-0.000566115 2.36396e-05 0)
(-0.000648796 2.43226e-05 0)
(-0.000733645 2.48622e-05 0)
(-0.000820208 2.52695e-05 0)
(-0.000908078 2.55633e-05 0)
(-0.000996889 2.57625e-05 0)
(-0.00108632 2.58794e-05 0)
(-0.00117606 2.59189e-05 0)
(-0.00126585 2.58837e-05 0)
(-0.00135543 2.57789e-05 0)
(-0.00144457 2.56111e-05 0)
(-0.00153303 2.53863e-05 0)
(-0.0016206 2.51072e-05 0)
(-0.00170708 2.47727e-05 0)
(-0.00179224 2.43804e-05 0)
(-0.00187589 2.39286e-05 0)
(-0.0019578 2.34156e-05 0)
(-0.00203776 2.28402e-05 0)
(-0.00211553 2.2201e-05 0)
(-0.0021909 2.14962e-05 0)
(-0.00226361 2.07224e-05 0)
(-0.00233342 1.98752e-05 0)
(-0.00240008 1.89504e-05 0)
(-0.00246331 1.79448e-05 0)
(-0.00252284 1.68567e-05 0)
(-0.00257839 1.56852e-05 0)
(-0.00262969 1.44294e-05 0)
(-0.00267644 1.30884e-05 0)
(-0.00271836 1.16614e-05 0)
(-0.00275518 1.01485e-05 0)
(-0.00278661 8.55095e-06 0)
(-0.00281237 6.87086e-06 0)
(-0.00283222 5.11181e-06 0)
(-0.00284591 3.27892e-06 0)
(-0.00285321 1.37836e-06 0)
(-0.00285393 -5.82505e-07 0)
(-0.00284788 -2.59535e-06 0)
(-0.00283492 -4.65111e-06 0)
(-0.00281495 -6.73951e-06 0)
(-0.00278787 -8.84914e-06 0)
(-0.00275366 -1.09677e-05 0)
(-0.00271233 -1.30814e-05 0)
(-0.00266392 -1.51752e-05 0)
(-0.00260854 -1.72334e-05 0)
(-0.00254634 -1.92399e-05 0)
(-0.00247754 -2.11781e-05 0)
(-0.0024024 -2.30318e-05 0)
(-0.00232122 -2.47847e-05 0)
(-0.00223438 -2.64199e-05 0)
(-0.0021423 -2.79214e-05 0)
(-0.00204544 -2.92736e-05 0)
(-0.00194433 -3.04619e-05 0)
(-0.00183952 -3.14729e-05 0)
(-0.00173163 -3.22947e-05 0)
(-0.00162128 -3.29172e-05 0)
(-0.00150915 -3.33315e-05 0)
(-0.00139594 -3.35314e-05 0)
(-0.00128234 -3.3512e-05 0)
(-0.00116909 -3.32705e-05 0)
(-0.00105692 -3.28058e-05 0)
(-0.000946558 -3.21198e-05 0)
(-0.000838717 -3.12165e-05 0)
(-0.000734103 -3.01016e-05 0)
(-0.000633396 -2.87834e-05 0)
(-0.000537248 -2.7272e-05 0)
(-0.000446273 -2.55796e-05 0)
(-0.000361044 -2.372e-05 0)
(-0.000282083 -2.17084e-05 0)
(-0.000209861 -1.95616e-05 0)
(-0.000144789 -1.72978e-05 0)
(-8.72142e-05 -1.49364e-05 0)
(-3.74133e-05 -1.24981e-05 0)
(4.4128e-06 -1.00056e-05 0)
(3.81469e-05 -7.4838e-06 0)
(6.37645e-05 -4.96003e-06 0)
(8.1348e-05 -2.46763e-06 0)
(9.11059e-05 -4.66244e-08 0)
(9.34002e-05 2.24966e-06 0)
(8.87906e-05 4.34626e-06 0)
(7.81048e-05 6.13048e-06 0)
(6.25449e-05 7.42859e-06 0)
(4.38257e-05 7.97089e-06 0)
(2.44194e-05 7.32811e-06 0)
(8.26872e-06 4.90303e-06 0)
(8.10888e-07 8.20651e-07 0)
(8.59647e-06 -1.43041e-05 0)
(2.17868e-05 -1.66241e-05 0)
(2.7715e-05 -9.49956e-06 0)
(1.77692e-05 5.13638e-06 0)
(-1.37375e-05 2.27639e-05 0)
(-6.90084e-05 4.13523e-05 0)
(-0.000148462 5.95777e-05 0)
(-0.000251376 7.67557e-05 0)
(-0.000376338 9.2499e-05 0)
(-0.000521582 0.000106671 0)
(-0.000685173 0.000119266 0)
(-0.000865121 0.000130332 0)
(-0.00105949 0.000139934 0)
(-0.00126643 0.000148169 0)
(-0.00148419 0.000155152 0)
(-0.00171112 0.000161001 0)
(-0.00194572 0.000165817 0)
(-0.00218663 0.000169691 0)
(-0.0024326 0.000172712 0)
(-0.00268248 0.000174972 0)
(-0.00293521 0.000176548 0)
(-0.00318985 0.000177503 0)
(-0.00344552 0.000177884 0)
(-0.00370142 0.000177735 0)
(-0.0039568 0.000177092 0)
(-0.00421095 0.000175987 0)
(-0.00446318 0.000174443 0)
(-0.00471284 0.000172471 0)
(-0.00495931 0.000170076 0)
(-0.00520195 0.000167258 0)
(-0.00544014 0.000164013 0)
(-0.00567324 0.000160336 0)
(-0.00590062 0.000156216 0)
(-0.00612161 0.000151643 0)
(-0.00633554 0.000146601 0)
(-0.00654171 0.000141072 0)
(-0.00673942 0.000135041 0)
(-0.00692794 0.00012849 0)
(-0.00710652 0.000121408 0)
(-0.00727441 0.000113781 0)
(-0.00743082 0.000105603 0)
(-0.00757496 9.68682e-05 0)
(-0.00770606 8.75732e-05 0)
(-0.00782334 7.77203e-05 0)
(-0.00792601 6.73168e-05 0)
(-0.00801334 5.63758e-05 0)
(-0.0080846 4.49171e-05 0)
(-0.0081391 3.29671e-05 0)
(-0.00817618 2.05603e-05 0)
(-0.00819525 7.73788e-06 0)
(-0.00819578 -5.45235e-06 0)
(-0.00817732 -1.89552e-05 0)
(-0.00813948 -3.2709e-05 0)
(-0.00808199 -4.66446e-05 0)
(-0.00800467 -6.0686e-05 0)
(-0.00790746 -7.47508e-05 0)
(-0.0077904 -8.87504e-05 0)
(-0.00765368 -0.00010259 0)
(-0.00749762 -0.000116172 0)
(-0.00732266 -0.000129392 0)
(-0.00712939 -0.000142149 0)
(-0.00691856 -0.000154338 0)
(-0.00669104 -0.000165854 0)
(-0.00644786 -0.000176594 0)
(-0.00619017 -0.000186459 0)
(-0.00591926 -0.000195351 0)
(-0.00563657 -0.000203182 0)
(-0.00534363 -0.000209867 0)
(-0.00504209 -0.000215332 0)
(-0.00473369 -0.000219512 0)
(-0.00442026 -0.000222355 0)
(-0.0041037 -0.000223817 0)
(-0.00378593 -0.000223869 0)
(-0.00346893 -0.000222494 0)
(-0.0031547 -0.000219688 0)
(-0.0028452 -0.00021546 0)
(-0.0025424 -0.000209836 0)
(-0.00224821 -0.000202854 0)
(-0.00196449 -0.000194564 0)
(-0.00169301 -0.000185032 0)
(-0.00143545 -0.000174334 0)
(-0.00119335 -0.000162561 0)
(-0.000968156 -0.000149812 0)
(-0.000761135 -0.000136198 0)
(-0.000573401 -0.000121842 0)
(-0.000405884 -0.000106877 0)
(-0.000259315 -9.14485e-05 0)
(-0.000134206 -7.57149e-05 0)
(-3.08241e-05 -5.98533e-05 0)
(5.08303e-05 -4.40638e-05 0)
(0.000111068 -2.85788e-05 0)
(0.000150562 -1.36774e-05 0)
(0.00017041 2.92956e-07 0)
(0.000172237 1.28815e-05 0)
(0.000158325 2.34828e-05 0)
(0.000131792 3.12681e-05 0)
(9.67407e-05 3.51064e-05 0)
(5.84552e-05 3.34714e-05 0)
(2.44675e-05 2.4564e-05 0)
(4.84294e-06 8.24406e-06 0)
(6.01476e-06 -2.50644e-05 0)
(1.24076e-05 -2.52775e-05 0)
(3.556e-06 -1.48891e-07 0)
(-3.1845e-05 3.88545e-05 0)
(-9.93673e-05 8.4974e-05 0)
(-0.000201832 0.000133571 0)
(-0.000339818 0.000181686 0)
(-0.000512489 0.00022754 0)
(-0.000718119 0.000270111 0)
(-0.000954349 0.000308894 0)
(-0.00121851 0.00034371 0)
(-0.00150782 0.000374567 0)
(-0.00181949 0.000401579 0)
(-0.00215081 0.000424948 0)
(-0.00249914 0.000444925 0)
(-0.00286202 0.000461771 0)
(-0.00323716 0.000475735 0)
(-0.00362244 0.000487059 0)
(-0.00401591 0.000495977 0)
(-0.00441574 0.000502711 0)
(-0.00482028 0.000507459 0)
(-0.00522798 0.000510385 0)
(-0.00563744 0.000511631 0)
(-0.00604735 0.000511315 0)
(-0.00645647 0.00050954 0)
(-0.00686363 0.000506388 0)
(-0.00726771 0.000501918 0)
(-0.00766763 0.000496168 0)
(-0.00806234 0.000489158 0)
(-0.00845082 0.000480893 0)
(-0.00883203 0.00047137 0)
(-0.00920493 0.000460573 0)
(-0.00956847 0.00044848 0)
(-0.00992157 0.000435061 0)
(-0.0102632 0.000420278 0)
(-0.0105921 0.000404093 0)
(-0.0109073 0.000386466 0)
(-0.0112075 0.00036736 0)
(-0.0114917 0.000346741 0)
(-0.0117585 0.000324582 0)
(-0.0120068 0.000300865 0)
(-0.0122353 0.000275578 0)
(-0.0124427 0.000248722 0)
(-0.012628 0.00022031 0)
(-0.0127899 0.000190369 0)
(-0.0129272 0.000158942 0)
(-0.0130388 0.000126089 0)
(-0.0131237 9.18893e-05 0)
(-0.0131809 5.64403e-05 0)
(-0.0132094 1.98604e-05 0)
(-0.0132085 -1.77131e-05 0)
(-0.0131775 -5.61233e-05 0)
(-0.0131159 -9.5193e-05 0)
(-0.0130231 -0.000134727 0)
(-0.0128991 -0.00017451 0)
(-0.0127437 -0.000214312 0)
(-0.0125571 -0.000253885 0)
(-0.0123395 -0.000292967 0)
(-0.0120916 -0.000331288 0)
(-0.0118139 -0.000368564 0)
(-0.0115075 -0.000404512 0)
(-0.0111736 -0.000438842 0)
(-0.0108135 -0.000471268 0)
(-0.0104288 -0.000501507 0)
(-0.0100214 -0.000529285 0)
(-0.00959323 -0.000554337 0)
(-0.00914657 -0.000576419 0)
(-0.0086838 -0.000595302 0)
(-0.00820747 -0.000610782 0)
(-0.0077203 -0.000622683 0)
(-0.00722512 -0.000630857 0)
(-0.00672484 -0.000635188 0)
(-0.00622248 -0.000635594 0)
(-0.00572109 -0.000632028 0)
(-0.00522374 -0.000624482 0)
(-0.00473349 -0.000612982 0)
(-0.00425339 -0.000597598 0)
(-0.00378639 -0.000578432 0)
(-0.00333536 -0.00055563 0)
(-0.00290304 -0.000529369 0)
(-0.00249203 -0.000499864 0)
(-0.00210474 -0.000467366 0)
(-0.00174336 -0.000432156 0)
(-0.00140988 -0.00039455 0)
(-0.00110601 -0.000354894 0)
(-0.000833161 -0.000313569 0)
(-0.000592447 -0.000270995 0)
(-0.000384622 -0.00022763 0)
(-0.00021006 -0.000183987 0)
(-6.87033e-05 -0.000140644 0)
(3.99888e-05 -9.82672e-05 0)
(0.000117112 -5.76406e-05 0)
(0.000164404 -1.97146e-05 0)
(0.000184354 1.43315e-05 0)
(0.000180353 4.30036e-05 0)
(0.00015686 6.43956e-05 0)
(0.000119491 7.61003e-05 0)
(7.51122e-05 7.51834e-05 0)
(3.32524e-05 5.8471e-05 0)
(7.19721e-06 2.42398e-05 0)
(2.79856e-06 -3.05496e-05 0)
(-3.37587e-06 -1.71754e-05 0)
(-3.66927e-05 3.45941e-05 0)
(-0.000106198 0.000108043 0)
(-0.000217261 0.00019288 0)
(-0.000372542 0.000281923 0)
(-0.000572617 0.000370388 0)
(-0.000816536 0.000455159 0)
(-0.00110225 0.000534398 0)
(-0.00142702 0.000607091 0)
(-0.00178767 0.000672768 0)
(-0.00218087 0.000731318 0)
(-0.00260318 0.000782874 0)
(-0.0030512 0.000827736 0)
(-0.00352164 0.000866291 0)
(-0.00401135 0.000898956 0)
(-0.00451742 0.000926157 0)
(-0.00503707 0.000948327 0)
(-0.00556773 0.000965885 0)
(-0.006107 0.000979219 0)
(-0.00665267 0.000988678 0)
(-0.00720267 0.000994564 0)
(-0.00775511 0.000997141 0)
(-0.0083082 0.000996635 0)
(-0.00886023 0.000993237 0)
(-0.0094096 0.000987097 0)
(-0.00995477 0.000978326 0)
(-0.0104943 0.000967 0)
(-0.0110266 0.000953162 0)
(-0.0115505 0.000936832 0)
(-0.0120643 0.000918004 0)
(-0.0125667 0.000896657 0)
(-0.0130563 0.000872752 0)
(-0.0135316 0.000846237 0)
(-0.0139911 0.000817049 0)
(-0.0144333 0.000785123 0)
(-0.0148567 0.000750392 0)
(-0.0152598 0.000712792 0)
(-0.0156408 0.000672269 0)
(-0.0159983 0.00062878 0)
(-0.0163306 0.000582294 0)
(-0.016636 0.000532799 0)
(-0.016913 0.000480305 0)
(-0.01716 0.000424844 0)
(-0.0173754 0.000366477 0)
(-0.0175576 0.000305295 0)
(-0.0177053 0.000241419 0)
(-0.0178171 0.000175008 0)
(-0.0178916 0.000106254 0)
(-0.0179278 3.53877e-05 0)
(-0.0179246 -3.7325e-05 0)
(-0.0178812 -0.00011158 0)
(-0.0177968 -0.000187035 0)
(-0.0176711 -0.000263314 0)
(-0.0175036 -0.000340008 0)
(-0.0172944 -0.000416673 0)
(-0.0170437 -0.000492839 0)
(-0.0167519 -0.000568011 0)
(-0.0164198 -0.000641672 0)
(-0.0160482 -0.000713293 0)
(-0.0156386 -0.000782331 0)
(-0.0151925 -0.000848244 0)
(-0.0147117 -0.00091049 0)
(-0.0141983 -0.000968534 0)
(-0.0136548 -0.00102186 0)
(-0.0130838 -0.00106998 0)
(-0.0124883 -0.00111242 0)
(-0.0118713 -0.00114877 0)
(-0.0112363 -0.00117863 0)
(-0.0105868 -0.00120167 0)
(-0.00992652 -0.00121762 0)
(-0.00925926 -0.00122626 0)
(-0.00858897 -0.00122743 0)
(-0.00791965 -0.00122105 0)
(-0.00725531 -0.0012071 0)
(-0.00659997 -0.00118563 0)
(-0.00595759 -0.00115677 0)
(-0.00533205 -0.00112073 0)
(-0.0047271 -0.00107776 0)
(-0.00414633 -0.00102822 0)
(-0.00359313 -0.000972516 0)
(-0.00307065 -0.000911117 0)
(-0.00258177 -0.000844567 0)
(-0.00212907 -0.000773473 0)
(-0.00171477 -0.000698504 0)
(-0.00134071 -0.000620398 0)
(-0.00100832 -0.000539964 0)
(-0.000718559 -0.000458095 0)
(-0.000471879 -0.000375783 0)
(-0.000268169 -0.00029414 0)
(-0.000106689 -0.000214435 0)
(1.40016e-05 -0.00013814 0)
(9.61391e-05 -6.69998e-05 0)
(0.000142861 -3.11095e-06 0)
(0.00015834 5.09681e-05 0)
(0.000147926 9.21065e-05 0)
(0.000118187 0.000116508 0)
(7.69846e-05 0.000119714 0)
(3.51056e-05 9.6852e-05 0)
(7.81489e-06 4.34479e-05 0)
(-8.98932e-07 -2.53081e-05 0)
(-2.2389e-05 1.35601e-05 0)
(-8.5048e-05 0.000102214 0)
(-0.000194271 0.000219233 0)
(-0.000353903 0.00035147 0)
(-0.000566106 0.000489397 0)
(-0.00083108 0.000626377 0)
(-0.00114755 0.000758034 0)
(-0.00151314 0.000881622 0)
(-0.00192478 0.000995522 0)
(-0.00237894 0.0010989 0)
(-0.0028718 0.00119149 0)
(-0.00339944 0.0012734 0)
(-0.00395795 0.00134499 0)
(-0.00454351 0.00140676 0)
(-0.00515244 0.0014593 0)
(-0.00578128 0.00150322 0)
(-0.00642671 0.00153915 0)
(-0.00708563 0.00156772 0)
(-0.00775515 0.0015895 0)
(-0.00843257 0.00160501 0)
(-0.00911536 0.00161472 0)
(-0.00980117 0.00161902 0)
(-0.0104877 0.00161829 0)
(-0.011173 0.0016128 0)
(-0.0118549 0.00160279 0)
(-0.0125315 0.00158844 0)
(-0.013201 0.00156986 0)
(-0.0138615 0.00154714 0)
(-0.0145112 0.00152031 0)
(-0.0151483 0.00148937 0)
(-0.0157711 0.00145429 0)
(-0.0163777 0.00141501 0)
(-0.0169663 0.00137147 0)
(-0.0175351 0.00132357 0)
(-0.0180822 0.00127122 0)
(-0.0186056 0.00121432 0)
(-0.0191035 0.00115279 0)
(-0.0195739 0.00108655 0)
(-0.0200148 0.00101553 0)
(-0.0204243 0.000939709 0)
(-0.0208003 0.000859073 0)
(-0.0211409 0.000773651 0)
(-0.0214442 0.000683504 0)
(-0.0217083 0.000588741 0)
(-0.0219313 0.000489518 0)
(-0.0221115 0.00038604 0)
(-0.0222473 0.000278568 0)
(-0.0223372 0.000167417 0)
(-0.0223797 5.2962e-05 0)
(-0.0223737 -6.4366e-05 0)
(-0.0223182 -0.000184076 0)
(-0.0222124 -0.00030562 0)
(-0.0220558 -0.000428394 0)
(-0.021848 -0.000551744 0)
(-0.021589 -0.000674964 0)
(-0.0212792 -0.000797306 0)
(-0.0209191 -0.000917984 0)
(-0.0205096 -0.00103618 0)
(-0.020052 -0.00115105 0)
(-0.0195478 -0.00126175 0)
(-0.018999 -0.00136742 0)
(-0.0184078 -0.00146719 0)
(-0.0177768 -0.00156023 0)
(-0.017109 -0.00164573 0)
(-0.0164076 -0.00172291 0)
(-0.0156761 -0.00179105 0)
(-0.0149183 -0.00184946 0)
(-0.0141384 -0.00189755 0)
(-0.0133406 -0.0019348 0)
(-0.0125294 -0.00196076 0)
(-0.0117094 -0.0019751 0)
(-0.0108853 -0.00197757 0)
(-0.010062 -0.00196804 0)
(-0.00924436 -0.00194648 0)
(-0.00843719 -0.00191298 0)
(-0.00764529 -0.00186774 0)
(-0.00687332 -0.00181107 0)
(-0.00612582 -0.00174341 0)
(-0.00540711 -0.0016653 0)
(-0.0047213 -0.00157739 0)
(-0.00407219 -0.00148044 0)
(-0.00346324 -0.00137532 0)
(-0.00289755 -0.00126299 0)
(-0.0023778 -0.00114453 0)
(-0.0019062 -0.00102114 0)
(-0.00148445 -0.000894101 0)
(-0.00111369 -0.000764858 0)
(-0.000794445 -0.000634993 0)
(-0.000526565 -0.000506279 0)
(-0.000309165 -0.000380711 0)
(-0.000140544 -0.000260575 0)
(-1.80986e-05 -0.000148526 0)
(6.17668e-05 -4.76783e-05 0)
(0.000103755 3.8271e-05 0)
(0.000113789 0.000104921 0)
(9.90409e-05 0.000147062 0)
(6.80086e-05 0.000158646 0)
(3.21389e-05 0.000132877 0)
(7.35588e-06 6.21769e-05 0)
(-4.53518e-06 -9.81108e-06 0)
(-4.23637e-05 6.95215e-05 0)
(-0.000136956 0.000206351 0)
(-0.00028906 0.000376554 0)
(-0.000500317 0.000564615 0)
(-0.000772049 0.00075911 0)
(-0.00110377 0.000951844 0)
(-0.00149364 0.00113726 0)
(-0.0019389 0.00131171 0)
(-0.00243612 0.00147298 0)
(-0.0029814 0.00161985 0)
(-0.00357053 0.00175186 0)
(-0.00419921 0.00186907 0)
(-0.00486309 0.00197187 0)
(-0.00555794 0.00206085 0)
(-0.00627966 0.00213678 0)
(-0.00702431 0.00220045 0)
(-0.00778813 0.0022527 0)
(-0.00856758 0.00229436 0)
(-0.00935934 0.00232621 0)
(-0.0101603 0.00234893 0)
(-0.0109675 0.00236319 0)
(-0.0117781 0.00236954 0)
(-0.0125896 0.00236848 0)
(-0.0133994 0.00236041 0)
(-0.0142052 0.00234565 0)
(-0.0150046 0.00232445 0)
(-0.0157955 0.002297 0)
(-0.0165756 0.0022634 0)
(-0.0173428 0.00222371 0)
(-0.0180949 0.00217795 0)
(-0.0188298 0.00212607 0)
(-0.0195454 0.002068 0)
(-0.0202395 0.00200366 0)
(-0.0209099 0.00193292 0)
(-0.0215544 0.00185566 0)
(-0.0221707 0.00177176 0)
(-0.0227566 0.00168111 0)
(-0.0233098 0.00158361 0)
(-0.023828 0.00147918 0)
(-0.0243088 0.00136781 0)
(-0.02475 0.00124948 0)
(-0.0251493 0.00112425 0)
(-0.0255044 0.00099223 0)
(-0.0258132 0.000853587 0)
(-0.0260736 0.000708559 0)
(-0.0262835 0.000557455 0)
(-0.0264412 0.000400663 0)
(-0.0265448 0.000238647 0)
(-0.0265929 7.19566e-05 0)
(-0.026584 -9.87797e-05 0)
(-0.0265171 -0.000272848 0)
(-0.0263913 -0.000449456 0)
(-0.0262059 -0.00062773 0)
(-0.0259608 -0.000806727 0)
(-0.0256558 -0.000985432 0)
(-0.0252915 -0.00116277 0)
(-0.0248684 -0.00133762 0)
(-0.0243877 -0.0015088 0)
(-0.0238508 -0.00167512 0)
(-0.0232597 -0.00183535 0)
(-0.0226165 -0.00198828 0)
(-0.0219239 -0.00213267 0)
(-0.0211849 -0.00226734 0)
(-0.0204029 -0.00239112 0)
(-0.0195817 -0.00250291 0)
(-0.0187253 -0.00260167 0)
(-0.0178382 -0.00268646 0)
(-0.016925 -0.0027564 0)
(-0.0159907 -0.00281076 0)
(-0.0150405 -0.00284892 0)
(-0.0140797 -0.00287039 0)
(-0.0131138 -0.00287482 0)
(-0.0121483 -0.00286202 0)
(-0.0111888 -0.00283195 0)
(-0.0102409 -0.00278475 0)
(-0.0093101 -0.00272069 0)
(-0.00840184 -0.00264024 0)
(-0.0075213 -0.002544 0)
(-0.00667348 -0.00243277 0)
(-0.00586309 -0.00230747 0)
(-0.00509452 -0.00216921 0)
(-0.00437176 -0.00201923 0)
(-0.00369837 -0.00185893 0)
(-0.00307744 -0.00168987 0)
(-0.00251151 -0.00151376 0)
(-0.00200252 -0.00133248 0)
(-0.00155178 -0.0011481 0)
(-0.00115989 -0.000962904 0)
(-0.000826701 -0.000779407 0)
(-0.000551228 -0.000600437 0)
(-0.000331589 -0.00042918 0)
(-0.000164933 -0.000269276 0)
(-4.73573e-05 -0.000124921 0)
(2.61826e-05 -9.85781e-07 0)
(6.19627e-05 9.68468e-05 0)
(6.7514e-05 0.000161953 0)
(5.17019e-05 0.000186685 0)
(2.61207e-05 0.000162304 0)
(6.29857e-06 7.83644e-05 0)
(-7.98216e-06 1.6145e-05 0)
(-6.23135e-05 0.000151626 0)
(-0.000189752 0.000348812 0)
(-0.000386119 0.000582128 0)
(-0.000650571 0.000834408 0)
(-0.000983187 0.0010928 0)
(-0.00138256 0.00134791 0)
(-0.00184614 0.00159315 0)
(-0.00237066 0.0018241 0)
(-0.00295223 0.00203799 0)
(-0.00358658 0.00223325 0)
(-0.00426913 0.00240923 0)
(-0.00499522 0.00256591 0)
(-0.00576019 0.00270368 0)
(-0.00655942 0.00282327 0)
(-0.00738844 0.00292556 0)
(-0.00824293 0.00301157 0)
(-0.00911876 0.00308232 0)
(-0.010012 0.00313884 0)
(-0.010919 0.0031821 0)
(-0.0118363 0.00321302 0)
(-0.0127604 0.00323242 0)
(-0.0136884 0.00324103 0)
(-0.0146171 0.00323947 0)
(-0.0155439 0.00322828 0)
(-0.0164658 0.00320789 0)
(-0.0173804 0.00317862 0)
(-0.018285 0.00314071 0)
(-0.0191771 0.00309431 0)
(-0.0200543 0.00303951 0)
(-0.0209141 0.00297633 0)
(-0.021754 0.00290472 0)
(-0.0225715 0.0028246 0)
(-0.0233642 0.00273586 0)
(-0.0241295 0.00263836 0)
(-0.024865 0.00253195 0)
(-0.025568 0.00241647 0)
(-0.026236 0.0022918 0)
(-0.0268664 0.00215782 0)
(-0.0274565 0.00201445 0)
(-0.0280038 0.00186167 0)
(-0.0285057 0.0016995 0)
(-0.0289596 0.00152802 0)
(-0.0293629 0.0013474 0)
(-0.0297134 0.00115789 0)
(-0.0300085 0.000959821 0)
(-0.0302461 0.000753624 0)
(-0.0304241 0.000539836 0)
(-0.0305406 0.000319097 0)
(-0.0305938 9.21557e-05 0)
(-0.0305824 -0.000140129 0)
(-0.030505 -0.00037679 0)
(-0.0303607 -0.000616753 0)
(-0.030149 -0.00085884 0)
(-0.0298694 -0.00110178 0)
(-0.0295221 -0.0013442 0)
(-0.0291074 -0.00158467 0)
(-0.0286263 -0.00182167 0)
(-0.02808 -0.00205363 0)
(-0.0274701 -0.00227894 0)
(-0.0267987 -0.00249598 0)
(-0.0260685 -0.0027031 0)
(-0.0252823 -0.00289867 0)
(-0.0244435 -0.00308109 0)
(-0.0235561 -0.00324883 0)
(-0.0226241 -0.0034004 0)
(-0.0216522 -0.00353443 0)
(-0.0206453 -0.00364963 0)
(-0.0196086 -0.00374487 0)
(-0.0185478 -0.00381916 0)
(-0.0174686 -0.00387166 0)
(-0.016377 -0.00390172 0)
(-0.015279 -0.00390889 0)
(-0.014181 -0.00389291 0)
(-0.0130891 -0.00385372 0)
(-0.0120096 -0.00379151 0)
(-0.0109487 -0.00370665 0)
(-0.0099125 -0.00359975 0)
(-0.00890672 -0.00347165 0)
(-0.00793701 -0.00332339 0)
(-0.00700863 -0.00315624 0)
(-0.00612649 -0.00297167 0)
(-0.00529508 -0.00277136 0)
(-0.00451837 -0.00255721 0)
(-0.00379983 -0.00233132 0)
(-0.00314228 -0.00209599 0)
(-0.00254792 -0.00185377 0)
(-0.00201822 -0.00160742 0)
(-0.00155388 -0.00136002 0)
(-0.00115475 -0.0011149 0)
(-0.000819821 -0.000875784 0)
(-0.000547094 -0.000646838 0)
(-0.000333565 -0.000432732 0)
(-0.000175144 -0.000238772 0)
(-6.65856e-05 -7.10168e-05 0)
(-1.42252e-06 6.35797e-05 0)
(2.80527e-05 0.000157014 0)
(3.08563e-05 0.000200102 0)
(1.83409e-05 0.000182309 0)
(4.94393e-06 9.08142e-05 0)
(-1.12169e-05 5.22914e-05 0)
(-8.17261e-05 0.000259917 0)
(-0.000241942 0.000530114 0)
(-0.000482809 0.000836701 0)
(-0.000800829 0.00116164 0)
(-0.00119466 0.0014911 0)
(-0.0016618 0.0018148 0)
(-0.00219887 0.00212539 0)
(-0.00280191 0.00241784 0)
(-0.00346654 0.00268891 0)
(-0.00418804 0.00293676 0)
(-0.00496148 0.00316055 0)
(-0.00578187 0.00336019 0)
(-0.00664421 0.00353611 0)
(-0.00754357 0.00368913 0)
(-0.00847514 0.00382029 0)
(-0.00943431 0.00393078 0)
(-0.0104166 0.00402182 0)
(-0.0114178 0.00409466 0)
(-0.0124339 0.00415046 0)
(-0.0134611 0.00419034 0)
(-0.0144958 0.00421531 0)
(-0.0155344 0.00422627 0)
(-0.0165737 0.00422399 0)
(-0.0176106 0.00420912 0)
(-0.0186419 0.00418221 0)
(-0.0196648 0.00414365 0)
(-0.0206764 0.00409375 0)
(-0.0216739 0.00403272 0)
(-0.0226545 0.00396065 0)
(-0.0236154 0.00387758 0)
(-0.0245539 0.00378347 0)
(-0.0254671 0.00367822 0)
(-0.0263524 0.0035617 0)
(-0.027207 0.00343373 0)
(-0.0280279 0.00329416 0)
(-0.0288123 0.00314281 0)
(-0.0295574 0.00297951 0)
(-0.0302604 0.00280416 0)
(-0.0309181 0.00261666 0)
(-0.0315279 0.00241701 0)
(-0.0320869 0.00220525 0)
(-0.0325921 0.00198151 0)
(-0.033041 0.00174603 0)
(-0.0334307 0.00149914 0)
(-0.0337587 0.0012413 0)
(-0.0340225 0.00097307 0)
(-0.03422 0.00069516 0)
(-0.034349 0.000408407 0)
(-0.0344077 0.000113786 0)
(-0.0343944 -0.000187591 0)
(-0.0343079 -0.00049447 0)
(-0.034147 -0.000805467 0)
(-0.0339112 -0.00111906 0)
(-0.0336002 -0.00143362 0)
(-0.033214 -0.00174739 0)
(-0.0327532 -0.00205852 0)
(-0.0322186 -0.00236507 0)
(-0.0316117 -0.00266504 0)
(-0.0309343 -0.00295637 0)
(-0.0301887 -0.00323697 0)
(-0.0293778 -0.00350474 0)
(-0.0285049 -0.00375762 0)
(-0.0275735 -0.00399356 0)
(-0.026588 -0.00421058 0)
(-0.025553 -0.00440682 0)
(-0.0244735 -0.0045805 0)
(-0.0233549 -0.00473 0)
(-0.022203 -0.00485386 0)
(-0.0210239 -0.00495082 0)
(-0.0198239 -0.00501982 0)
(-0.0186096 -0.00506003 0)
(-0.0173877 -0.00507085 0)
(-0.0161649 -0.00505197 0)
(-0.0149483 -0.00500331 0)
(-0.0137447 -0.0049251 0)
(-0.0125607 -0.00481783 0)
(-0.0114032 -0.00468229 0)
(-0.0102784 -0.00451952 0)
(-0.0091925 -0.00433089 0)
(-0.00815136 -0.00411801 0)
(-0.00716035 -0.00388277 0)
(-0.00622438 -0.00362736 0)
(-0.00534785 -0.00335419 0)
(-0.00453455 -0.00306596 0)
(-0.00378762 -0.00276566 0)
(-0.00310947 -0.00245654 0)
(-0.00250174 -0.00214214 0)
(-0.00196526 -0.00182636 0)
(-0.00149993 -0.00151345 0)
(-0.00110472 -0.00120808 0)
(-0.00077761 -0.000915413 0)
(-0.000515509 -0.000641201 0)
(-0.000314229 -0.000391872 0)
(-0.000168428 -0.000174666 0)
(-7.15695e-05 2.22403e-06 0)
(-1.59053e-05 0.00012948 0)
(7.56879e-06 0.000196505 0)
(9.7081e-06 0.000191198 0)
(3.48105e-06 9.89041e-05 0)
(-1.42548e-05 9.82138e-05 0)
(-0.0001004 0.000393888 0)
(-0.00029272 0.000749867 0)
(-0.000577535 0.00114011 0)
(-0.000948665 0.0015462 0)
(-0.00140329 0.00195383 0)
(-0.0019377 0.00235214 0)
(-0.00254751 0.00273327 0)
(-0.00322803 0.00309178 0)
(-0.00397426 0.00342412 0)
(-0.00478103 0.00372822 0)
(-0.00564301 0.00400311 0)
(-0.00655487 0.00424868 0)
(-0.00751129 0.00446541 0)
(-0.00850704 0.00465422 0)
(-0.00953703 0.00481632 0)
(-0.0105964 0.00495307 0)
(-0.0116803 0.00506588 0)
(-0.0127843 0.00515621 0)
(-0.0139042 0.00522543 0)
(-0.0150358 0.00527486 0)
(-0.0161751 0.00530568 0)
(-0.0173186 0.00531898 0)
(-0.0184625 0.00531566 0)
(-0.0196035 0.00529652 0)
(-0.0207383 0.00526219 0)
(-0.0218636 0.00521317 0)
(-0.0229762 0.00514982 0)
(-0.0240732 0.00507238 0)
(-0.0251514 0.004981 0)
(-0.0262078 0.00487572 0)
(-0.0272394 0.00475648 0)
(-0.0282431 0.0046232 0)
(-0.0292159 0.0044757 0)
(-0.0301547 0.00431381 0)
(-0.0310564 0.00413733 0)
(-0.0319179 0.00394607 0)
(-0.0327361 0.00373985 0)
(-0.0335077 0.00351854 0)
(-0.0342296 0.00328207 0)
(-0.0348988 0.00303044 0)
(-0.035512 0.00276373 0)
(-0.0360663 0.00248213 0)
(-0.0365586 0.00218594 0)
(-0.036986 0.00187562 0)
(-0.0373458 0.00155173 0)
(-0.0376353 0.001215 0)
(-0.037852 0.000866335 0)
(-0.0379938 0.000506777 0)
(-0.0380585 0.000137553 0)
(-0.0380446 -0.000239945 0)
(-0.0379506 -0.000624154 0)
(-0.0377753 -0.00101335 0)
(-0.0375181 -0.00140564 0)
(-0.0371787 -0.001799 0)
(-0.0367572 -0.00219125 0)
(-0.036254 -0.0025801 0)
(-0.0356703 -0.00296316 0)
(-0.0350076 -0.00333793 0)
(-0.0342678 -0.00370188 0)
(-0.0334535 -0.00405243 0)
(-0.0325677 -0.00438699 0)
(-0.0316139 -0.004703 0)
(-0.0305962 -0.00499793 0)
(-0.0295191 -0.00526936 0)
(-0.0283875 -0.00551496 0)
(-0.0272071 -0.00573256 0)
(-0.0259835 -0.00592014 0)
(-0.0247231 -0.00607592 0)
(-0.0234324 -0.00619831 0)
(-0.0221183 -0.00628602 0)
(-0.0207878 -0.00633802 0)
(-0.0194483 -0.00635357 0)
(-0.0181072 -0.00633227 0)
(-0.0167718 -0.00627404 0)
(-0.0154497 -0.00617915 0)
(-0.0141482 -0.00604819 0)
(-0.0128744 -0.00588215 0)
(-0.0116353 -0.00568234 0)
(-0.0104377 -0.00545043 0)
(-0.00928774 -0.00518842 0)
(-0.00819138 -0.00489867 0)
(-0.00715394 -0.00458388 0)
(-0.0061802 -0.00424705 0)
(-0.0052743 -0.00389156 0)
(-0.00443966 -0.00352108 0)
(-0.00367893 -0.00313964 0)
(-0.00299395 -0.00275163 0)
(-0.00238566 -0.00236182 0)
(-0.00185406 -0.00197542 0)
(-0.00139816 -0.00159808 0)
(-0.00101594 -0.00123603 0)
(-0.000704288 -0.000896086 0)
(-0.000458993 -0.000585823 0)
(-0.000274692 -0.000313637 0)
(-0.000144862 -8.89191e-05 0)
(-6.18107e-05 7.77858e-05 0)
(-1.66525e-05 0.000174614 0)
(8.38802e-07 0.000188157 0)
(2.02507e-06 0.000102409 0)
(-1.71024e-05 0.000153451 0)
(-0.000118234 0.000552724 0)
(-0.000341663 0.00100722 0)
(-0.000669378 0.00149155 0)
(-0.00109262 0.00198736 0)
(-0.00160707 0.00248021 0)
(-0.00220772 0.00295902 0)
(-0.00288913 0.0034157 0)
(-0.00364576 0.00384457 0)
(-0.004472 0.00424192 0)
(-0.00536212 0.00460554 0)
(-0.00631038 0.00493442 0)
(-0.00731108 0.00522848 0)
(-0.00835859 0.00548828 0)
(-0.00944738 0.00571487 0)
(-0.0105721 0.00590962 0)
(-0.0117276 0.00607406 0)
(-0.0129089 0.00620984 0)
(-0.0141113 0.00631858 0)
(-0.0153301 0.0064019 0)
(-0.0165612 0.00646128 0)
(-0.0178003 0.00649812 0)
(-0.0190434 0.00651365 0)
(-0.0202867 0.00650894 0)
(-0.0215266 0.0064849 0)
(-0.0227595 0.00644227 0)
(-0.023982 0.00638163 0)
(-0.0251906 0.00630341 0)
(-0.026382 0.00620791 0)
(-0.0275528 0.00609529 0)
(-0.0286999 0.00596559 0)
(-0.0298199 0.00581878 0)
(-0.0309096 0.00565474 0)
(-0.0319656 0.0054733 0)
(-0.0329846 0.00527425 0)
(-0.0339633 0.00505736 0)
(-0.0348982 0.00482243 0)
(-0.0357861 0.00456928 0)
(-0.0366234 0.00429775 0)
(-0.0374069 0.0040078 0)
(-0.0381331 0.00369943 0)
(-0.0387987 0.00337278 0)
(-0.0394004 0.00302809 0)
(-0.039935 0.00266576 0)
(-0.0403993 0.00228635 0)
(-0.0407904 0.00189056 0)
(-0.0411055 0.00147931 0)
(-0.0413419 0.00105368 0)
(-0.0414973 0.000614971 0)
(-0.0415695 0.000164663 0)
(-0.0415566 -0.000295546 0)
(-0.0414571 -0.000763761 0)
(-0.0412699 -0.00123789 0)
(-0.0409942 -0.00171565 0)
(-0.0406296 -0.00219459 0)
(-0.0401763 -0.00267207 0)
(-0.0396348 -0.00314534 0)
(-0.0390062 -0.00361151 0)
(-0.0382921 -0.00406757 0)
(-0.0374946 -0.00451047 0)
(-0.0366165 -0.0049371 0)
(-0.0356609 -0.00534435 0)
(-0.0346317 -0.00572912 0)
(-0.033533 -0.00608839 0)
(-0.0323697 -0.00641922 0)
(-0.0311473 -0.00671881 0)
(-0.0298714 -0.00698454 0)
(-0.0285484 -0.007214 0)
(-0.027185 -0.007405 0)
(-0.0257881 -0.00755567 0)
(-0.0243651 -0.00766442 0)
(-0.0229236 -0.00773 0)
(-0.0214715 -0.00775152 0)
(-0.0200167 -0.0077285 0)
(-0.0185671 -0.00766083 0)
(-0.0171307 -0.00754882 0)
(-0.0157155 -0.00739321 0)
(-0.0143292 -0.00719515 0)
(-0.0129793 -0.00695624 0)
(-0.0116729 -0.00667849 0)
(-0.0104169 -0.00636432 0)
(-0.00921765 -0.00601659 0)
(-0.00808082 -0.00563854 0)
(-0.00701163 -0.00523383 0)
(-0.00601454 -0.00480651 0)
(-0.00509329 -0.00436103 0)
(-0.00425078 -0.00390224 0)
(-0.00348904 -0.00343541 0)
(-0.00280918 -0.00296624 0)
(-0.00221131 -0.00250093 0)
(-0.00169452 -0.00204618 0)
(-0.00125683 -0.00160926 0)
(-0.000895161 -0.00119812 0)
(-0.000605321 -0.000821437 0)
(-0.00038198 -0.000488763 0)
(-0.000218685 -0.000210628 0)
(-0.000107852 1.28166e-06 0)
(-4.0767e-05 0.000133985 0)
(-7.86358e-06 0.000173 0)
(6.43898e-07 0.000101362 0)
(-1.97612e-05 0.00021755 0)
(-0.000135189 0.000735462 0)
(-0.000388577 0.00130104 0)
(-0.000757871 0.00188982 0)
(-0.00123189 0.00248389 0)
(-0.00180479 0.00306899 0)
(-0.00247028 0.00363416 0)
(-0.0032218 0.00417128 0)
(-0.00405296 0.00467465 0)
(-0.00495743 0.00514049 0)
(-0.00592893 0.00556663 0)
(-0.00696125 0.0059521 0)
(-0.0080483 0.00629689 0)
(-0.00918412 0.00660171 0)
(-0.0103629 0.00686775 0)
(-0.011579 0.00709656 0)
(-0.0128272 0.00728989 0)
(-0.014102 0.00744957 0)
(-0.0153987 0.00757745 0)
(-0.0167124 0.00767536 0)
(-0.0180386 0.00774498 0)
(-0.019373 0.00778788 0)
(-0.0207113 0.00780546 0)
(-0.0220495 0.00779894 0)
(-0.0233837 0.00776936 0)
(-0.0247102 0.00771756 0)
(-0.0260253 0.0076442 0)
(-0.0273253 0.00754979 0)
(-0.0286068 0.00743465 0)
(-0.0298661 0.00729898 0)
(-0.0310997 0.00714283 0)
(-0.0323043 0.00696617 0)
(-0.0334761 0.00676886 0)
(-0.0346118 0.00655071 0)
(-0.0357077 0.00631149 0)
(-0.0367603 0.00605096 0)
(-0.0377659 0.00576889 0)
(-0.038721 0.00546508 0)
(-0.039622 0.0051394 0)
(-0.0404651 0.00479177 0)
(-0.0412468 0.00442226 0)
(-0.0419636 0.00403103 0)
(-0.0426119 0.0036184 0)
(-0.0431883 0.00318486 0)
(-0.0436895 0.00273109 0)
(-0.0441123 0.00225796 0)
(-0.0444537 0.00176654 0)
(-0.0447109 0.00125815 0)
(-0.0448813 0.000734324 0)
(-0.0449627 0.00019684 0)
(-0.044953 -0.00035229 0)
(-0.0448506 -0.000910818 0)
(-0.0446543 -0.00147626 0)
(-0.0443632 -0.00204593 0)
(-0.043977 -0.0026169 0)
(-0.0434956 -0.00318608 0)
(-0.0429197 -0.00375019 0)
(-0.0422504 -0.00430583 0)
(-0.0414893 -0.00484945 0)
(-0.0406387 -0.00537745 0)
(-0.0397014 -0.00588615 0)
(-0.0386808 -0.00637187 0)
(-0.0375808 -0.00683096 0)
(-0.0364059 -0.00725985 0)
(-0.0351613 -0.00765506 0)
(-0.0338526 -0.00801329 0)
(-0.032486 -0.00833143 0)
(-0.0310681 -0.00860663 0)
(-0.0296059 -0.0088363 0)
(-0.028107 -0.00901821 0)