/*--------------------------------*- C++ -*----------------------------------*\
  =========                 |
  \\      /  F ield         | OpenFOAM: The Open Source CFD Toolbox
   \\    /   O peration     | Website:  https://openfoam.org
    \\  /    A nd           | Version:  7
     \\/     M anipulation  |
\*---------------------------------------------------------------------------*/
FoamFile
{
    version     2.0;
    format      ascii;
    class       volScalarField;
    location    "2.9997";
    object      p;
}
// * * * * * * * * * * * * * * * * * * * * * * * * * * * * * * * * * * * * * //

dimensions      [0 2 -2 0 0 0 0];

internalField   nonuniform List<scalar> 
18750
(
-0.25905
-0.275805
-0.307111
-0.354218
-0.415562
-0.490349
-0.577998
-0.677246
-0.783239
-0.886673
-0.973976
-1.03045
-1.04549
-1.01378
-0.936803
-0.265463
-0.281747
-0.312611
-0.359398
-0.420678
-0.495758
-0.584099
-0.68435
-0.791499
-0.896171
-0.984931
-1.04329
-1.06048
-1.03042
-0.952973
-0.278007
-0.293395
-0.323415
-0.369603
-0.430763
-0.506399
-0.596038
-0.698187
-0.807565
-0.914681
-1.00633
-1.06834
-1.08955
-1.06253
-0.984701
-0.296128
-0.310272
-0.339125
-0.384505
-0.445526
-0.521937
-0.61337
-0.718175
-0.83078
-0.941572
-1.03758
-1.10484
-1.13156
-1.10873
-1.03114
-0.319019
-0.331652
-0.359124
-0.403593
-0.464504
-0.541881
-0.635488
-0.743554
-0.860255
-0.975888
-1.07764
-1.15149
-1.18474
-1.16695
-1.09075
-0.345665
-0.356544
-0.382571
-0.426142
-0.487026
-0.565521
-0.661536
-0.773226
-0.894577
-1.01586
-1.1244
-1.20578
-1.2461
-1.23366
-1.15959
-0.374816
-0.383764
-0.408432
-0.45122
-0.512178
-0.591864
-0.690324
-0.805674
-0.931797
-1.05906
-1.17504
-1.26486
-1.31295
-1.306
-1.23374
-0.40501
-0.411995
-0.435534
-0.477718
-0.538829
-0.619667
-0.720397
-0.839156
-0.969865
-1.10317
-1.22716
-1.32669
-1.38408
-1.38332
-1.31227
-0.434691
-0.439865
-0.462641
-0.504418
-0.565707
-0.647545
-0.750217
-0.871979
-1.00698
-1.14632
-1.27887
-1.38965
-1.45878
-1.46578
-1.39545
-0.462313
-0.466044
-0.488549
-0.530084
-0.591515
-0.674121
-0.778314
-0.902598
-1.04152
-1.18676
-1.32805
-1.4511
-1.53445
-1.55184
-1.4823
-0.486496
-0.489443
-0.512149
-0.553545
-0.61503
-0.698103
-0.803309
-0.929498
-1.07176
-1.22229
-1.37167
-1.50689
-1.6055
-1.63583
-1.56792
-0.506147
-0.509315
-0.532449
-0.573769
-0.635171
-0.718333
-0.823914
-0.951162
-1.09581
-1.25048
-1.40655
-1.55294
-1.66544
-1.70944
-1.64377
-0.520847
-0.525001
-0.548626
-0.589955
-0.651074
-0.733839
-0.839008
-0.966217
-1.11191
-1.2692
-1.42997
-1.58588
-1.70906
-1.76469
-1.69995
-0.530692
-0.536058
-0.560259
-0.601616
-0.662132
-0.743874
-0.847702
-0.973572
-1.11864
-1.27669
-1.43983
-1.60264
-1.73343
-1.80244
-1.72999
-0.536095
-0.542609
-0.567392
-0.608551
-0.668016
-0.747942
-0.849393
-0.972469
-1.11494
-1.27142
-1.43422
-1.59846
-1.73238
-1.80388
-1.73273
-0.537896
-0.545329
-0.570369
-0.61083
-0.668557
-0.745834
-0.843694
-0.962382
-1.10011
-1.25215
-1.41073
-1.56935
-1.69787
-1.77004
-1.70696
-0.537361
-0.545193
-0.56975
-0.608804
-0.663976
-0.737614
-0.830609
-0.943189
-1.07398
-1.21831
-1.36881
-1.51579
-1.63305
-1.70326
-1.65353
-0.535975
-0.543258
-0.566208
-0.603051
-0.654844
-0.72374
-0.810574
-0.915251
-1.03702
-1.17044
-1.31022
-1.44498
-1.55045
-1.61497
-1.57695
-0.53509
-0.540404
-0.56042
-0.594302
-0.641991
-0.705044
-0.784483
-0.87952
-0.990366
-1.11098
-1.23786
-1.36158
-1.45572
-1.51216
-1.48224
-0.535265
-0.537002
-0.55302
-0.583365
-0.626416
-0.682662
-0.753522
-0.837748
-0.935571
-1.04332
-1.15437
-1.26654
-1.34988
-1.39884
-1.37564
-0.535848
-0.532728
-0.544654
-0.571072
-0.609123
-0.658053
-0.718983
-0.792301
-0.874466
-0.970689
-1.06309
-1.16312
-1.23549
-1.28129
-1.26527
-0.535343
-0.527295
-0.536078
-0.558275
-0.590984
-0.632867
-0.682211
-0.745136
-0.809853
-0.894726
-0.970318
-1.05927
-1.12292
-1.16691
-1.15857
-0.53281
-0.521872
-0.528142
-0.545858
-0.572816
-0.608504
-0.645093
-0.696851
-0.745442
-0.815437
-0.879976
-0.958068
-1.01609
-1.06062
-1.06098
-0.528619
-0.518458
-0.521311
-0.534751
-0.555772
-0.585503
-0.610127
-0.647414
-0.683985
-0.735171
-0.793007
-0.85765
-0.917154
-0.965538
-0.975572
-0.524423
-0.517138
-0.515843
-0.525851
-0.541648
-0.563814
-0.578722
-0.598933
-0.625953
-0.659903
-0.711358
-0.767057
-0.827638
-0.882146
-0.902548
-0.522426
-0.516823
-0.512794
-0.520133
-0.532095
-0.544704
-0.550357
-0.554208
-0.570043
-0.592947
-0.635092
-0.687547
-0.748546
-0.809035
-0.839003
-0.522975
-0.517485
-0.513439
-0.518825
-0.527669
-0.530146
-0.524419
-0.514237
-0.516468
-0.532535
-0.566298
-0.619733
-0.681003
-0.745207
-0.780826
-0.524903
-0.519988
-0.517673
-0.522725
-0.528123
-0.520735
-0.502688
-0.478225
-0.468015
-0.476902
-0.507579
-0.562218
-0.625665
-0.689079
-0.72554
-0.52727
-0.524202
-0.524977
-0.531129
-0.532707
-0.515897
-0.48646
-0.447612
-0.42666
-0.429183
-0.46044
-0.514616
-0.581539
-0.63775
-0.672516
-0.529617
-0.529499
-0.534337
-0.541707
-0.539861
-0.514848
-0.475383
-0.424823
-0.394041
-0.395361
-0.426109
-0.478871
-0.544279
-0.590904
-0.6211
-0.531544
-0.534747
-0.543923
-0.552068
-0.547463
-0.51628
-0.469284
-0.410372
-0.373232
-0.373502
-0.405708
-0.45525
-0.512578
-0.551321
-0.57066
-0.532327
-0.53838
-0.551224
-0.560093
-0.553657
-0.519278
-0.468403
-0.405066
-0.365389
-0.364032
-0.396774
-0.440443
-0.487024
-0.518363
-0.528338
-0.530992
-0.539026
-0.554302
-0.564046
-0.557152
-0.523741
-0.472804
-0.410633
-0.370312
-0.367199
-0.395395
-0.431586
-0.467649
-0.49039
-0.495288
-0.527003
-0.536308
-0.552531
-0.563092
-0.558047
-0.530602
-0.486068
-0.42412
-0.388316
-0.379445
-0.39934
-0.426762
-0.452658
-0.468003
-0.470305
-0.520723
-0.53039
-0.546121
-0.557365
-0.556988
-0.541406
-0.50783
-0.44896
-0.411171
-0.396397
-0.406341
-0.42414
-0.44133
-0.450242
-0.450162
-0.513363
-0.522529
-0.536497
-0.548472
-0.555606
-0.558305
-0.529941
-0.484214
-0.436199
-0.413908
-0.414081
-0.422882
-0.432309
-0.435815
-0.433971
-0.506668
-0.51481
-0.526806
-0.539799
-0.55447
-0.578546
-0.551562
-0.50981
-0.459278
-0.429832
-0.421256
-0.421942
-0.424903
-0.424132
-0.420011
-0.501973
-0.508873
-0.519296
-0.533378
-0.554289
-0.586131
-0.576211
-0.526857
-0.476591
-0.442643
-0.426923
-0.420964
-0.418543
-0.413897
-0.407952
-0.499776
-0.505592
-0.514777
-0.529509
-0.557619
-0.580983
-0.587638
-0.537625
-0.487962
-0.45165
-0.430838
-0.41956
-0.412662
-0.405043
-0.39712
-0.499806
-0.50473
-0.512942
-0.526378
-0.559995
-0.572634
-0.581872
-0.540707
-0.493783
-0.456974
-0.43282
-0.417578
-0.407177
-0.396815
-0.387282
-0.500962
-0.505128
-0.512238
-0.523668
-0.553791
-0.567488
-0.569572
-0.537334
-0.495015
-0.459049
-0.433049
-0.414996
-0.401696
-0.389265
-0.378222
-0.50244
-0.505853
-0.511201
-0.522404
-0.539432
-0.561533
-0.557326
-0.529686
-0.492325
-0.458312
-0.431651
-0.41172
-0.396303
-0.382044
-0.369705
-0.503659
-0.506288
-0.509106
-0.521475
-0.521833
-0.549605
-0.544548
-0.519903
-0.486977
-0.455341
-0.428868
-0.407874
-0.390759
-0.375131
-0.361712
-0.504435
-0.505902
-0.506579
-0.517519
-0.513214
-0.534791
-0.531177
-0.50934
-0.479936
-0.450672
-0.424907
-0.403382
-0.385147
-0.368418
-0.354029
-0.504863
-0.504811
-0.505421
-0.508899
-0.513154
-0.522478
-0.517799
-0.49844
-0.472027
-0.444898
-0.420026
-0.398409
-0.379349
-0.361818
-0.346693
-0.50518
-0.503286
-0.506405
-0.494929
-0.510961
-0.513281
-0.50577
-0.487845
-0.463745
-0.43841
-0.414461
-0.392928
-0.373411
-0.355339
-0.339539
-0.505451
-0.501637
-0.50754
-0.486051
-0.504139
-0.505018
-0.495409
-0.47789
-0.455428
-0.431548
-0.408418
-0.387114
-0.367311
-0.348872
-0.332584
-0.50567
-0.501418
-0.505482
-0.489243
-0.498121
-0.497112
-0.486297
-0.468812
-0.447347
-0.424517
-0.402075
-0.380985
-0.361068
-0.342451
-0.325719
-0.505962
-0.504006
-0.500017
-0.498926
-0.496257
-0.490379
-0.47812
-0.460461
-0.439573
-0.417479
-0.395551
-0.374682
-0.354716
-0.335983
-0.318928
-0.506607
-0.509917
-0.491119
-0.503999
-0.496205
-0.485258
-0.470904
-0.452811
-0.432179
-0.410518
-0.38895
-0.368222
-0.348252
-0.329504
-0.312158
-0.507746
-0.516434
-0.486978
-0.502241
-0.495068
-0.481216
-0.464709
-0.445805
-0.425123
-0.403675
-0.382313
-0.361687
-0.341725
-0.322958
-0.305378
-0.509821
-0.520889
-0.492822
-0.499108
-0.492354
-0.477387
-0.459263
-0.439421
-0.418435
-0.396974
-0.375686
-0.355079
-0.335116
-0.31637
-0.298574
-0.513281
-0.521905
-0.506559
-0.499496
-0.489316
-0.473419
-0.454224
-0.433496
-0.412034
-0.3904
-0.369063
-0.348431
-0.328459
-0.309703
-0.291714
-0.518462
-0.519052
-0.519252
-0.503622
-0.487582
-0.469577
-0.449355
-0.427857
-0.405873
-0.383938
-0.362458
-0.341734
-0.321723
-0.302961
-0.284803
-0.526385
-0.514263
-0.527234
-0.508685
-0.487415
-0.466323
-0.444668
-0.422352
-0.399814
-0.377526
-0.355837
-0.334989
-0.314928
-0.296127
-0.277821
-0.537756
-0.513881
-0.53061
-0.512836
-0.488047
-0.463749
-0.440222
-0.416916
-0.39379
-0.371115
-0.349185
-0.328178
-0.308043
-0.289205
-0.270792
-0.55174
-0.522075
-0.532241
-0.515332
-0.488541
-0.461541
-0.436008
-0.41152
-0.387716
-0.364634
-0.342449
-0.321281
-0.301079
-0.282205
-0.263729
-0.566481
-0.539171
-0.535237
-0.516278
-0.488204
-0.45922
-0.431858
-0.406117
-0.381569
-0.358049
-0.335601
-0.314269
-0.294003
-0.275126
-0.25667
-0.580213
-0.559745
-0.540726
-0.516376
-0.48677
-0.456377
-0.427552
-0.400629
-0.375297
-0.351312
-0.328595
-0.307113
-0.286811
-0.267965
-0.24961
-0.590168
-0.576977
-0.547254
-0.516262
-0.484366
-0.452814
-0.422879
-0.394943
-0.368862
-0.344401
-0.32141
-0.299782
-0.279456
-0.260688
-0.242521
-0.594619
-0.587862
-0.55222
-0.515846
-0.481296
-0.448544
-0.417724
-0.38896
-0.362199
-0.337276
-0.314009
-0.292246
-0.271921
-0.253264
-0.235321
-0.593868
-0.59216
-0.554526
-0.514708
-0.477743
-0.443699
-0.41206
-0.382604
-0.355257
-0.329905
-0.306371
-0.284475
-0.26416
-0.245645
-0.227941
-0.59072
-0.591652
-0.554221
-0.512577
-0.473726
-0.438382
-0.405916
-0.375837
-0.347978
-0.322242
-0.298459
-0.276442
-0.256153
-0.237795
-0.220312
-0.587334
-0.588671
-0.551871
-0.509384
-0.469177
-0.432629
-0.399318
-0.368642
-0.340331
-0.314257
-0.290249
-0.268123
-0.247862
-0.229657
-0.212353
-0.585188
-0.584944
-0.548168
-0.505221
-0.464028
-0.42642
-0.392275
-0.361012
-0.332281
-0.305911
-0.28171
-0.259501
-0.239281
-0.221201
-0.203955
-0.584783
-0.581349
-0.543654
-0.500222
-0.458239
-0.419709
-0.384766
-0.352927
-0.323804
-0.297174
-0.272817
-0.250558
-0.230402
-0.212442
-0.195042
-0.586
-0.578202
-0.538687
-0.494522
-0.451795
-0.412441
-0.376754
-0.34436
-0.314868
-0.288014
-0.263541
-0.241276
-0.221248
-0.203453
-0.185584
-0.588368
-0.575536
-0.53344
-0.488201
-0.444678
-0.404557
-0.368184
-0.335274
-0.305447
-0.278409
-0.253857
-0.231633
-0.211835
-0.194278
-0.175641
-0.591217
-0.573234
-0.527956
-0.481282
-0.436858
-0.395996
-0.359003
-0.325632
-0.295514
-0.268339
-0.243756
-0.221638
-0.20216
-0.184827
-0.165413
-0.593834
-0.571018
-0.522144
-0.473726
-0.428287
-0.386699
-0.34915
-0.315389
-0.285051
-0.257801
-0.233251
-0.211322
-0.192176
-0.174781
-0.155327
-0.59564
-0.568329
-0.515799
-0.465447
-0.418903
-0.37661
-0.338574
-0.304508
-0.274056
-0.246802
-0.22235
-0.200689
-0.181862
-0.164225
-0.145258
-0.596172
-0.564555
-0.508638
-0.456316
-0.408643
-0.36568
-0.327243
-0.292985
-0.262532
-0.23534
-0.211056
-0.189705
-0.171124
-0.153321
-0.135061
-0.595024
-0.559276
-0.50038
-0.446191
-0.397437
-0.353872
-0.315155
-0.280854
-0.25046
-0.223387
-0.199341
-0.178332
-0.159939
-0.142161
-0.124647
-0.59188
-0.55222
-0.490783
-0.434933
-0.385215
-0.341183
-0.302334
-0.268114
-0.237797
-0.210916
-0.187185
-0.166541
-0.148337
-0.130757
-0.113978
-0.586502
-0.543206
-0.479662
-0.422423
-0.371926
-0.327648
-0.288823
-0.254658
-0.224519
-0.19792
-0.174573
-0.154322
-0.136363
-0.11908
-0.103037
-0.57873
-0.532135
-0.466883
-0.408586
-0.357573
-0.313299
-0.274484
-0.240481
-0.210621
-0.184396
-0.161499
-0.141686
-0.124039
-0.10711
-0.0918236
-0.568479
-0.518987
-0.452339
-0.393407
-0.342258
-0.297931
-0.259292
-0.22558
-0.196104
-0.170345
-0.147966
-0.128644
-0.111373
-0.0948426
-0.080351
-0.555718
-0.503814
-0.435963
-0.376897
-0.325816
-0.281577
-0.243248
-0.209956
-0.180977
-0.155774
-0.133984
-0.115211
-0.0983781
-0.0822941
-0.0686486
-0.540462
-0.486699
-0.41778
-0.358991
-0.308166
-0.264242
-0.226366
-0.193623
-0.165249
-0.140694
-0.119567
-0.101404
-0.0850726
-0.0694962
-0.0567413
-0.522758
-0.467656
-0.397988
-0.339548
-0.289296
-0.245934
-0.208666
-0.176597
-0.148938
-0.125124
-0.104733
-0.0872378
-0.0714755
-0.0564868
-0.0446361
-0.502695
-0.446522
-0.376686
-0.318677
-0.269236
-0.226667
-0.190174
-0.158902
-0.132067
-0.109087
-0.0895056
-0.0727321
-0.0576005
-0.0432866
-0.0323512
-0.480415
-0.422997
-0.354033
-0.296541
-0.248051
-0.20647
-0.170913
-0.140567
-0.114664
-0.0926155
-0.0739164
-0.0579112
-0.0434579
-0.0298963
-0.0199867
-0.456087
-0.397055
-0.330013
-0.273279
-0.22583
-0.185386
-0.150917
-0.121623
-0.0967627
-0.0757393
-0.0579963
-0.0428091
-0.0290778
-0.0163335
-0.00769705
-0.429821
-0.369074
-0.304483
-0.24896
-0.20266
-0.163472
-0.130225
-0.102106
-0.0783931
-0.0584848
-0.0417692
-0.0274622
-0.0145265
-0.00268959
0.00452332
-0.401592
-0.339595
-0.277472
-0.223591
-0.178616
-0.140794
-0.108887
-0.0820556
-0.059588
-0.0408706
-0.0252411
-0.011889
0.000115056
0.0108829
0.016952
-0.37135
-0.309087
-0.249157
-0.197188
-0.153756
-0.11742
-0.08696
-0.0615189
-0.0403818
-0.0229109
-0.00840077
0.00393088
0.0148211
0.0242646
0.0296491
-0.339235
-0.277688
-0.219744
-0.169824
-0.128137
-0.093419
-0.0645071
-0.040548
-0.0208118
-0.00462199
0.00876436
0.020044
0.0296557
0.0374187
0.0416739
-0.305514
-0.245352
-0.1894
-0.141612
-0.10183
-0.0688598
-0.0415945
-0.019198
-0.000918609
0.0139708
0.0262403
0.0364556
0.0446767
0.0502719
0.0513789
-0.270434
-0.212087
-0.158253
-0.112678
-0.0749239
-0.0438165
-0.0182896
0.00247477
0.0192554
0.0328297
0.0439644
0.0530456
0.0597433
0.0627568
0.0589503
-0.234217
-0.17797
-0.126415
-0.0831455
-0.0475147
-0.0183685
0.00533844
0.0244132
0.0396641
0.0519013
0.0618289
0.0695898
0.0744985
0.0750536
0.0689488
-0.197063
-0.143124
-0.0939984
-0.0531287
-0.0197041
0.00739991
0.0292189
0.0465586
0.0602533
0.0711131
0.0797112
0.0859131
0.0887784
0.0874618
0.0859941
-0.159162
-0.107694
-0.061124
-0.022741
0.00840544
0.0334017
0.0532789
0.0688476
0.0809574
0.0903772
0.09751
0.102007
0.103004
0.10079
0.102859
-0.120694
-0.0718333
-0.0279185
0.00790436
0.0367115
0.0595484
0.077443
0.0912115
0.101701
0.109605
0.115171
0.117974
0.117481
0.115109
0.118697
-0.0818382
-0.0356969
0.00548705
0.0386928
0.0651119
0.0857504
0.101633
0.113576
0.122405
0.128728
0.132683
0.133885
0.132178
0.129754
0.133482
-0.0427688
0.000562865
0.0389603
0.0695087
0.0935046
0.111918
0.125768
0.135863
0.142996
0.147696
0.15005
0.149785
0.147084
0.144466
0.147406
-0.00365701
0.0367957
0.0723691
0.100236
0.121788
0.13796
0.149765
0.157997
0.163408
0.166467
0.167253
0.165606
0.161954
0.158883
0.160799
0.035329
0.0728545
0.105583
0.130761
0.149859
0.163786
0.173542
0.179901
0.183579
0.185005
0.184274
0.18133
0.176742
0.172974
0.173744
0.074025
0.108595
0.138474
0.160968
0.177618
0.189305
0.197017
0.201505
0.203452
0.203262
0.201045
0.196824
0.191263
0.186714
0.186354
0.11227
0.143877
0.170917
0.190746
0.204965
0.214429
0.220109
0.222737
0.22297
0.221195
0.217541
0.212078
0.205511
0.200073
0.198595
0.149909
0.178563
0.202788
0.219986
0.231803
0.239069
0.242741
0.24353
0.242071
0.238736
0.233665
0.226974
0.219409
0.213098
0.210487
0.18679
0.21252
0.23397
0.248581
0.258034
0.263139
0.264836
0.26382
0.260704
0.255849
0.2494
0.2415
0.232917
0.225694
0.221981
0.222766
0.24562
0.264348
0.276428
0.283568
0.286557
0.286321
0.283536
0.278799
0.272456
0.26466
0.255587
0.246027
0.237906
0.233067
0.257698
0.277739
0.293809
0.303426
0.308313
0.309243
0.307125
0.302621
0.296309
0.288524
0.27942
0.269196
0.258662
0.249644
0.24371
0.291449
0.308758
0.322249
0.32948
0.332184
0.331118
0.327177
0.321006
0.313168
0.303985
0.293621
0.2823
0.270833
0.260918
0.253884
0.323891
0.338564
0.349563
0.354497
0.355099
0.35211
0.346412
0.338638
0.329331
0.318802
0.30722
0.294836
0.282465
0.271679
0.263566
0.354902
0.367048
0.375657
0.378391
0.376977
0.372146
0.364765
0.355453
0.344737
0.332922
0.320187
0.306797
0.293554
0.2819
0.272729
0.384364
0.394109
0.400437
0.401078
0.397746
0.391161
0.382179
0.371402
0.359345
0.346303
0.332465
0.318121
0.304053
0.291561
0.281354
0.412168
0.41965
0.423817
0.42248
0.417333
0.40909
0.398592
0.38643
0.373105
0.358908
0.344037
0.328794
0.313934
0.300627
0.28942
0.438213
0.44358
0.445716
0.442525
0.435675
0.425876
0.413955
0.400491
0.385973
0.370691
0.354853
0.338775
0.323173
0.309081
0.29691
0.462402
0.465817
0.466059
0.461143
0.452708
0.44146
0.428215
0.413541
0.397915
0.381624
0.36489
0.348035
0.331736
0.316898
0.303809
0.484647
0.486283
0.484778
0.478274
0.468378
0.455795
0.441327
0.425535
0.408886
0.391669
0.374115
0.356549
0.339603
0.324058
0.310102
0.504868
0.504911
0.50181
0.49386
0.482633
0.468831
0.453251
0.43644
0.418859
0.400798
0.382499
0.364289
0.346749
0.330544
0.315779
0.52299
0.52164
0.517101
0.50785
0.495425
0.480528
0.463946
0.446219
0.4278
0.408983
0.390018
0.371232
0.353153
0.336341
0.320831
0.53895
0.536419
0.530602
0.520197
0.506712
0.490847
0.473379
0.454842
0.435683
0.416199
0.39665
0.377357
0.358798
0.341434
0.32525
0.552709
0.549189
0.542265
0.53086
0.516457
0.499754
0.481521
0.462283
0.442484
0.422424
0.402373
0.382645
0.363666
0.345813
0.329033
0.564243
0.559893
0.552046
0.5398
0.524627
0.50722
0.488345
0.468518
0.448182
0.427641
0.407171
0.387079
0.367744
0.349468
0.332177
0.573521
0.568493
0.55991
0.546988
0.531195
0.513223
0.493829
0.473529
0.452761
0.431833
0.411028
0.390644
0.371019
0.352394
0.334684
0.580509
0.574964
0.56583
0.5524
0.53614
0.517741
0.497958
0.477301
0.456207
0.434988
0.413932
0.393329
0.373483
0.354588
0.336559
0.585184
0.579288
0.569787
0.556017
0.539446
0.520761
0.500718
0.479822
0.45851
0.437097
0.415873
0.395123
0.375128
0.356049
0.337806
0.587525
0.581454
0.571768
0.557828
0.541101
0.522274
0.502099
0.481084
0.459664
0.438152
0.416845
0.396022
0.375951
0.356779
0.338428
0.587525
0.581454
0.571768
0.557828
0.541101
0.522274
0.502099
0.481084
0.459664
0.438152
0.416845
0.396022
0.375951
0.356779
0.338428
0.585184
0.579288
0.569787
0.556017
0.539446
0.520761
0.500717
0.479822
0.45851
0.437097
0.415873
0.395123
0.375128
0.356049
0.337806
0.580509
0.574964
0.56583
0.5524
0.53614
0.517741
0.497958
0.477301
0.456207
0.434988
0.413932
0.393329
0.373483
0.354588
0.336559
0.573521
0.568493
0.55991
0.546988
0.531195
0.513223
0.493829
0.473529
0.452761
0.431833
0.411028
0.390644
0.371019
0.352394
0.334684
0.564243
0.559893
0.552046
0.5398
0.524627
0.50722
0.488345
0.468518
0.448182
0.427641
0.407171
0.387079
0.367744
0.349468
0.332177
0.552709
0.549189
0.542265
0.53086
0.516457
0.499753
0.481521
0.462283
0.442484
0.422424
0.402373
0.382645
0.363666
0.345813
0.329033
0.53895
0.536419
0.530602
0.520197
0.506712
0.490847
0.473379
0.454842
0.435683
0.416198
0.39665
0.377357
0.358798
0.341434
0.32525
0.52299
0.52164
0.517101
0.50785
0.495425
0.480528
0.463946
0.446219
0.4278
0.408983
0.390018
0.371232
0.353153
0.336341
0.320831
0.504868
0.504911
0.50181
0.49386
0.482633
0.468831
0.453251
0.43644
0.418859
0.400798
0.382499
0.364289
0.346749
0.330544
0.315779
0.484647
0.486283
0.484778
0.478274
0.468378
0.455795
0.441327
0.425535
0.408886
0.391669
0.374114
0.356549
0.339603
0.324058
0.310102
0.462402
0.465817
0.466059
0.461143
0.452708
0.44146
0.428215
0.413541
0.397915
0.381624
0.36489
0.348035
0.331736
0.316898
0.303809
0.438213
0.44358
0.445716
0.442525
0.435675
0.425876
0.413955
0.400491
0.385973
0.370691
0.354853
0.338775
0.323173
0.309081
0.29691
0.412168
0.41965
0.423817
0.42248
0.417333
0.40909
0.398592
0.38643
0.373105
0.358908
0.344037
0.328794
0.313934
0.300627
0.28942
0.384364
0.394109
0.400437
0.401078
0.397746
0.391161
0.382179
0.371402
0.359344
0.346303
0.332465
0.318121
0.304053
0.291561
0.281354
0.354902
0.367048
0.375657
0.378391
0.376977
0.372146
0.364765
0.355452
0.344737
0.332922
0.320186
0.306797
0.293554
0.2819
0.272729
0.323891
0.338564
0.349563
0.354497
0.355099
0.35211
0.346412
0.338638
0.32933
0.318802
0.30722
0.294836
0.282465
0.271678
0.263566
0.291449
0.308758
0.322248
0.32948
0.332184
0.331118
0.327176
0.321006
0.313168
0.303985
0.29362
0.2823
0.270833
0.260918
0.253884
0.257698
0.277739
0.293809
0.303426
0.308313
0.309242
0.307125
0.302621
0.296309
0.288524
0.27942
0.269195
0.258662
0.249644
0.24371
0.222766
0.24562
0.264348
0.276428
0.283568
0.286557
0.286321
0.283536
0.278799
0.272456
0.26466
0.255587
0.246027
0.237906
0.233067
0.18679
0.21252
0.23397
0.248581
0.258034
0.263139
0.264836
0.263819
0.260704
0.255849
0.2494
0.241499
0.232917
0.225694
0.221981
0.149909
0.178562
0.202788
0.219986
0.231802
0.239068
0.242741
0.24353
0.242071
0.238736
0.233665
0.226974
0.219409
0.213098
0.210487
0.11227
0.143876
0.170916
0.190746
0.204965
0.214429
0.220109
0.222737
0.222969
0.221195
0.21754
0.212078
0.20551
0.200073
0.198595
0.0740248
0.108595
0.138474
0.160968
0.177618
0.189305
0.197016
0.201504
0.203451
0.203262
0.201045
0.196823
0.191263
0.186714
0.186354
0.0353288
0.0728543
0.105583
0.130761
0.149859
0.163786
0.173542
0.179901
0.183579
0.185005
0.184274
0.181329
0.176741
0.172974
0.173744
-0.00365725
0.0367955
0.0723689
0.100236
0.121787
0.13796
0.149765
0.157997
0.163407
0.166467
0.167253
0.165606
0.161954
0.158883
0.160798
-0.042769
0.000562623
0.0389601
0.0695085
0.0935044
0.111918
0.125768
0.135863
0.142996
0.147696
0.15005
0.149785
0.147084
0.144466
0.147406
-0.0818385
-0.0356971
0.00548681
0.0386926
0.0651117
0.0857502
0.101633
0.113576
0.122405
0.128728
0.132683
0.133885
0.132178
0.129754
0.133482
-0.120694
-0.0718335
-0.0279188
0.00790414
0.0367113
0.0595482
0.0774428
0.0912114
0.1017
0.109605
0.115171
0.117974
0.117481
0.115108
0.118697
-0.159162
-0.107694
-0.0611242
-0.0227412
0.00840522
0.0334015
0.0532787
0.0688474
0.0809572
0.0903771
0.0975098
0.102007
0.103004
0.10079
0.102859
-0.197064
-0.143124
-0.0939986
-0.0531289
-0.0197043
0.00739969
0.0292187
0.0465584
0.0602531
0.071113
0.079711
0.0859129
0.0887783
0.0874616
0.085994
-0.234217
-0.17797
-0.126415
-0.0831458
-0.0475149
-0.0183688
0.00533822
0.024413
0.0396639
0.0519011
0.0618287
0.0695896
0.0744983
0.0750534
0.0689487
-0.270434
-0.212088
-0.158253
-0.112679
-0.0749242
-0.0438167
-0.0182898
0.00247455
0.0192552
0.0328295
0.0439642
0.0530454
0.0597431
0.0627566
0.0589501
-0.305514
-0.245353
-0.189401
-0.141612
-0.101831
-0.06886
-0.0415947
-0.0191982
-0.000918821
0.0139706
0.0262401
0.0364554
0.0446766
0.0502717
0.0513788
-0.339235
-0.277688
-0.219745
-0.169824
-0.128137
-0.0934192
-0.0645074
-0.0405482
-0.0208121
-0.0046222
0.00876416
0.0200438
0.0296555
0.0374185
0.0416737
-0.37135
-0.309087
-0.249157
-0.197189
-0.153756
-0.11742
-0.0869602
-0.0615191
-0.040382
-0.0229111
-0.00840097
0.00393069
0.0148209
0.0242644
0.029649
-0.401592
-0.339596
-0.277473
-0.223591
-0.178617
-0.140794
-0.108887
-0.0820558
-0.0595883
-0.0408708
-0.0252413
-0.0118892
0.000114865
0.0108827
0.0169518
-0.429821
-0.369074
-0.304484
-0.24896
-0.202661
-0.163472
-0.130226
-0.102106
-0.0783933
-0.058485
-0.0417694
-0.0274624
-0.0145267
-0.00268977
0.00452314
-0.456087
-0.397056
-0.330013
-0.27328
-0.22583
-0.185386
-0.150917
-0.121624
-0.0967629
-0.0757396
-0.0579965
-0.0428093
-0.029078
-0.0163336
-0.00769724
-0.480416
-0.422997
-0.354034
-0.296541
-0.248051
-0.20647
-0.170913
-0.140567
-0.114665
-0.0926157
-0.0739166
-0.0579114
-0.0434581
-0.0298965
-0.0199869
-0.502695
-0.446522
-0.376686
-0.318678
-0.269236
-0.226667
-0.190174
-0.158902
-0.132067
-0.109087
-0.0895059
-0.0727323
-0.0576007
-0.0432868
-0.0323514
-0.522758
-0.467656
-0.397988
-0.339549
-0.289297
-0.245934
-0.208667
-0.176597
-0.148938
-0.125124
-0.104733
-0.087238
-0.0714757
-0.056487
-0.0446363
-0.540462
-0.4867
-0.41778
-0.358991
-0.308167
-0.264242
-0.226366
-0.193623
-0.16525
-0.140694
-0.119567
-0.101404
-0.0850728
-0.0694964
-0.0567415
-0.555718
-0.503815
-0.435964
-0.376897
-0.325816
-0.281577
-0.243248
-0.209957
-0.180978
-0.155774
-0.133985
-0.115211
-0.0983783
-0.0822943
-0.0686488
-0.568479
-0.518988
-0.45234
-0.393407
-0.342258
-0.297931
-0.259292
-0.22558
-0.196105
-0.170346
-0.147966
-0.128644
-0.111373
-0.0948428
-0.0803512
-0.578731
-0.532136
-0.466884
-0.408586
-0.357573
-0.313299
-0.274484
-0.240482
-0.210621
-0.184396
-0.161499
-0.141687
-0.124039
-0.10711
-0.0918238
-0.586502
-0.543206
-0.479663
-0.422424
-0.371926
-0.327649
-0.288823
-0.254659
-0.224519
-0.197921
-0.174573
-0.154323
-0.136364
-0.11908
-0.103037
-0.591881
-0.552221
-0.490783
-0.434934
-0.385216
-0.341184
-0.302335
-0.268115
-0.237797
-0.210916
-0.187185
-0.166541
-0.148337
-0.130757
-0.113979
-0.595025
-0.559277
-0.50038
-0.446192
-0.397438
-0.353872
-0.315156
-0.280854
-0.25046
-0.223388
-0.199341
-0.178332
-0.159939
-0.142161
-0.124648
-0.596172
-0.564555
-0.508638
-0.456317
-0.408644
-0.36568
-0.327243
-0.292986
-0.262533
-0.23534
-0.211056
-0.189705
-0.171124
-0.153322
-0.135061
-0.595641
-0.56833
-0.515799
-0.465448
-0.418903
-0.376611
-0.338574
-0.304508
-0.274056
-0.246802
-0.222351
-0.200689
-0.181863
-0.164226
-0.145258
-0.593834
-0.571019
-0.522145
-0.473727
-0.428287
-0.3867
-0.34915
-0.315389
-0.285051
-0.257801
-0.233251
-0.211322
-0.192176
-0.174781
-0.155327
-0.591218
-0.573235
-0.527956
-0.481282
-0.436859
-0.395996
-0.359003
-0.325632
-0.295514
-0.268339
-0.243756
-0.221638
-0.20216
-0.184827
-0.165413
-0.588369
-0.575537
-0.533441
-0.488201
-0.444678
-0.404557
-0.368185
-0.335274
-0.305447
-0.278409
-0.253857
-0.231633
-0.211836
-0.194278
-0.175641
-0.586001
-0.578202
-0.538687
-0.494522
-0.451795
-0.412441
-0.376754
-0.34436
-0.314868
-0.288015
-0.263541
-0.241276
-0.221248
-0.203454
-0.185585
-0.584783
-0.581349
-0.543655
-0.500223
-0.45824
-0.419709
-0.384766
-0.352927
-0.323804
-0.297174
-0.272817
-0.250559
-0.230402
-0.212442
-0.195042
-0.585188
-0.584945
-0.548168
-0.505221
-0.464028
-0.42642
-0.392275
-0.361012
-0.332282
-0.305911
-0.28171
-0.259501
-0.239281
-0.221202
-0.203955
-0.587335
-0.588672
-0.551871
-0.509385
-0.469177
-0.432629
-0.399318
-0.368642
-0.340332
-0.314258
-0.29025
-0.268123
-0.247862
-0.229658
-0.212353
-0.590721
-0.591652
-0.554221
-0.512577
-0.473726
-0.438383
-0.405917
-0.375837
-0.347979
-0.322243
-0.298459
-0.276443
-0.256153
-0.237796
-0.220313
-0.593869
-0.592161
-0.554526
-0.514709
-0.477743
-0.4437
-0.412061
-0.382604
-0.355257
-0.329905
-0.306371
-0.284475
-0.26416
-0.245645
-0.227941
-0.594619
-0.587863
-0.55222
-0.515846
-0.481296
-0.448545
-0.417724
-0.388961
-0.362199
-0.337276
-0.31401
-0.292246
-0.271922
-0.253264
-0.235321
-0.590168
-0.576978
-0.547255
-0.516262
-0.484367
-0.452814
-0.422879
-0.394943
-0.368862
-0.344402
-0.321411
-0.299782
-0.279456
-0.260688
-0.242522
-0.580213
-0.559745
-0.540727
-0.516376
-0.48677
-0.456377
-0.427553
-0.400629
-0.375297
-0.351312
-0.328595
-0.307113
-0.286811
-0.267966
-0.249611
-0.566482
-0.539172
-0.535237
-0.516278
-0.488205
-0.45922
-0.431859
-0.406118
-0.38157
-0.358049
-0.335601
-0.314269
-0.294003
-0.275127
-0.25667
-0.551741
-0.522075
-0.532241
-0.515332
-0.488542
-0.461541
-0.436009
-0.41152
-0.387717
-0.364635
-0.342449
-0.321281
-0.30108
-0.282206
-0.263729
-0.537757
-0.513881
-0.530611
-0.512837
-0.488048
-0.463749
-0.440223
-0.416916
-0.39379
-0.371116
-0.349186
-0.328179
-0.308043
-0.289205
-0.270792
-0.526385
-0.514263
-0.527234
-0.508686
-0.487415
-0.466324
-0.444669
-0.422353
-0.399814
-0.377526
-0.355838
-0.33499
-0.314929
-0.296127
-0.277821
-0.518463
-0.519052
-0.519252
-0.503622
-0.487583
-0.469578
-0.449356
-0.427857
-0.405873
-0.383938
-0.362458
-0.341734
-0.321723
-0.302961
-0.284803
-0.513282
-0.521906
-0.506559
-0.499496
-0.489317
-0.473419
-0.454225
-0.433497
-0.412035
-0.3904
-0.369063
-0.348432
-0.32846
-0.309704
-0.291714
-0.509821
-0.520889
-0.492822
-0.499109
-0.492355
-0.477388
-0.459263
-0.439422
-0.418435
-0.396974
-0.375686
-0.35508
-0.335116
-0.31637
-0.298574
-0.507747
-0.516434
-0.486979
-0.502242
-0.495068
-0.481216
-0.46471
-0.445806
-0.425123
-0.403676
-0.382314
-0.361687
-0.341725
-0.322959
-0.305378
-0.506607
-0.509918
-0.491119
-0.503999
-0.496205
-0.485258
-0.470904
-0.452811
-0.432179
-0.410518
-0.388951
-0.368222
-0.348252
-0.329505
-0.312158
-0.505962
-0.504006
-0.500018
-0.498927
-0.496257
-0.490379
-0.478121
-0.460461
-0.439573
-0.417479
-0.395552
-0.374682
-0.354716
-0.335983
-0.318928
-0.50567
-0.501418
-0.505483
-0.489243
-0.498122
-0.497112
-0.486298
-0.468813
-0.447347
-0.424517
-0.402075
-0.380985
-0.361068
-0.342451
-0.325719
-0.505451
-0.501637
-0.507541
-0.486051
-0.50414
-0.505018
-0.49541
-0.47789
-0.455429
-0.431549
-0.408418
-0.387115
-0.367312
-0.348872
-0.332584
-0.50518
-0.503287
-0.506405
-0.494929
-0.510961
-0.513282
-0.50577
-0.487846
-0.463746
-0.438411
-0.414461
-0.392928
-0.373411
-0.35534
-0.339539
-0.504863
-0.504812
-0.505421
-0.508899
-0.513155
-0.522478
-0.517799
-0.498441
-0.472027
-0.444899
-0.420027
-0.398409
-0.37935
-0.361819
-0.346693
-0.504435
-0.505902
-0.506579
-0.517519
-0.513215
-0.534792
-0.531177
-0.50934
-0.479936
-0.450672
-0.424908
-0.403382
-0.385147
-0.368419
-0.35403
-0.50366
-0.506288
-0.509107
-0.521476
-0.521833
-0.549605
-0.544549
-0.519903
-0.486978
-0.455341
-0.428869
-0.407874
-0.39076
-0.375132
-0.361712
-0.50244
-0.505854
-0.511202
-0.522405
-0.539432
-0.561533
-0.557327
-0.529686
-0.492325
-0.458313
-0.431651
-0.41172
-0.396304
-0.382045
-0.369705
-0.500963
-0.505129
-0.512238
-0.523668
-0.553792
-0.567488
-0.569573
-0.537335
-0.495015
-0.45905
-0.43305
-0.414996
-0.401697
-0.389265
-0.378223
-0.499807
-0.50473
-0.512943
-0.526378
-0.559996
-0.572635
-0.581873
-0.540707
-0.493783
-0.456975
-0.432821
-0.417578
-0.407177
-0.396815
-0.387282
-0.499777
-0.505593
-0.514778
-0.52951
-0.557619
-0.580983
-0.587639
-0.537626
-0.487963
-0.45165
-0.430839
-0.41956
-0.412662
-0.405043
-0.39712
-0.501974
-0.508874
-0.519297
-0.533379
-0.554289
-0.586132
-0.576211
-0.526857