/*--------------------------------*- C++ -*----------------------------------*\
  =========                 |
  \\      /  F ield         | OpenFOAM: The Open Source CFD Toolbox
   \\    /   O peration     | Website:  https://openfoam.org
    \\  /    A nd           | Version:  7
     \\/     M anipulation  |
\*---------------------------------------------------------------------------*/
FoamFile
{
    version     2.0;
    format      ascii;
    class       volVectorField;
    location    "2.9997";
    object      U;
}
// * * * * * * * * * * * * * * * * * * * * * * * * * * * * * * * * * * * * * //

dimensions      [0 1 -1 0 0 0 0];

internalField   nonuniform List<vector> 
18750
(
(-0.0529528 0.0324455 -8.91706e-20)
(-0.179877 0.0381039 2.53246e-20)
(-0.313243 0.0360142 1.87781e-19)
(-0.434517 0.0346672 3.49514e-20)
(-0.556101 0.0337924 -6.3506e-20)
(-0.673953 0.0339451 -1.41547e-19)
(-0.79681 0.0343498 1.30218e-19)
(-0.920292 0.0336609 8.13934e-20)
(-1.03934 0.0309479 -5.89304e-20)
(-1.14343 0.0261066 -1.54031e-19)
(-1.22487 0.0194299 5.57923e-19)
(-1.27492 0.0112031 -4.27066e-19)
(-1.29158 0.00151548 2.35718e-19)
(-1.27334 -0.00923801 -3.91782e-19)
(-1.22318 -0.0199155 9.28034e-20)
(-0.0549833 0.0968054 5.85168e-20)
(-0.18132 0.113914 5.07426e-20)
(-0.31344 0.107817 3.00259e-21)
(-0.433993 0.103919 1.99166e-19)
(-0.555307 0.10137 3.67298e-19)
(-0.673075 0.10175 4.45101e-19)
(-0.795376 0.102718 -3.48058e-19)
(-0.917191 0.100311 5.35924e-19)
(-1.0332 0.0919181 4.86674e-19)
(-1.13345 0.077462 -1.41701e-19)
(-1.2115 0.0579871 -5.86983e-19)
(-1.25977 0.0343185 4.1681e-20)
(-1.27653 0.00653484 1.30429e-19)
(-1.25961 -0.0244244 2.6872e-19)
(-1.21042 -0.0556204 -3.40261e-19)
(-0.0589314 0.159567 1.33169e-19)
(-0.184072 0.18851 1.32368e-19)
(-0.313672 0.178907 -4.12622e-19)
(-0.432677 0.172861 -4.4045e-22)
(-0.553251 0.168848 -7.01031e-19)
(-0.670602 0.169249 1.988e-19)
(-0.791749 0.170194 -5.20017e-19)
(-0.910868 0.165361 -6.6404e-20)
(-1.02254 0.150874 -3.72643e-19)
(-1.11789 0.127003 1.07471e-18)
(-1.19193 0.0955167 1.34984e-18)
(-1.23783 0.0574732 1.11231e-18)
(-1.25308 0.0128112 6.08595e-19)
(-1.23385 -0.0369072 3.68716e-19)
(-1.17932 -0.0873871 -5.45326e-19)
(-0.0645834 0.219664 -5.01016e-19)
(-0.187896 0.261047 5.23565e-19)
(-0.31365 0.248745 -3.43471e-19)
(-0.430092 0.24118 -6.25158e-19)
(-0.549112 0.236026 9.63371e-19)
(-0.665276 0.236226 -8.45739e-19)
(-0.7844 0.236553 1.15362e-18)
(-0.899994 0.228761 -9.3814e-19)
(-1.00674 0.208127 6.42739e-19)
(-1.09679 0.175306 -1.52928e-18)
(-1.16608 0.132332 -2.09652e-18)
(-1.20768 0.0799953 1.36047e-19)
(-1.21812 0.018334 -3.43665e-19)
(-1.1926 -0.0498672 -6.96421e-19)
(-1.12909 -0.11909 2.09929e-18)
(-0.0716443 0.27606 -2.90923e-19)
(-0.192432 0.330609 6.25926e-19)
(-0.312897 0.316696 1.75561e-19)
(-0.425487 0.308421 5.28773e-19)
(-0.541719 0.30257 -5.78913e-19)
(-0.655358 0.302444 2.36403e-19)
(-0.770912 0.301752 2.69585e-18)
(-0.881307 0.290782 3.97294e-19)
(-0.981321 0.264287 7.15148e-19)
(-1.06387 0.223216 -2.43776e-19)
(-1.12539 0.169415 1.97416e-19)
(-1.15891 0.103181 -1.68895e-20)
(-1.16087 0.0250678 -2.04652e-18)
(-1.12692 -0.060554 -1.08178e-18)
(-1.05445 -0.147404 -2.5585e-18)
(-0.0797707 0.327686 6.80377e-19)
(-0.197252 0.396222 8.96073e-20)
(-0.310885 0.382065 -2.83246e-19)
(-0.418167 0.374021 -1.89782e-19)
(-0.530043 0.368018 1.55415e-19)
(-0.639258 0.367524 -2.38287e-18)
(-0.748946 0.365558 -3.03666e-19)
(-0.851639 0.351411 1.47948e-19)
(-0.942326 0.319545 -1.03634e-18)
(-1.0147 0.271031 -1.45255e-18)
(-1.06587 0.20729 1.00698e-18)
(-1.08918 0.128116 -9.32456e-19)
(-1.08104 0.0345825 2.66152e-18)
(-1.03705 -0.0673049 -1.97364e-18)
(-0.953306 -0.169985 3.73711e-18)
(-0.0885212 0.373361 -5.13871e-19)
(-0.201869 0.456928 -9.29571e-19)
(-0.30708 0.444114 3.15726e-19)
(-0.407488 0.437279 2.28207e-18)
(-0.513202 0.431659 2.16789e-18)
(-0.615863 0.430772 -7.08087e-19)
(-0.717368 0.427406 3.58019e-19)
(-0.810244 0.410252 2.31702e-19)
(-0.890007 0.373492 2.2836e-18)
(-0.951476 0.318163 3.10255e-18)
(-0.99289 0.245176 -1.47993e-18)
(-1.00792 0.153661 -2.80303e-18)
(-0.99199 0.0447312 -4.92553e-18)
(-0.938903 -0.0742613 6.08409e-19)
(-0.842089 -0.192482 -4.73758e-18)
(-0.0973496 0.411876 -3.69889e-19)
(-0.205759 0.511789 -4.5624e-19)
(-0.301042 0.50208 -3.30328e-18)
(-0.39307 0.497427 1.0683e-18)
(-0.490902 0.49276 -1.33976e-18)
(-0.585151 0.491556 8.53757e-19)
(-0.67676 0.48681 8.7336e-19)
(-0.758703 0.46693 -3.87745e-18)
(-0.827414 0.425825 -2.58203e-18)
(-0.879126 0.36439 -4.39826e-18)
(-0.913222 0.282994 -7.4528e-19)
(-0.923405 0.179933 3.03082e-18)
(-0.90336 0.0552575 1.12026e-17)
(-0.843646 -0.0838081 -1.67435e-18)
(-0.734997 -0.220938 2.65119e-18)
(-0.105611 0.44203 2.04314e-18)
(-0.208395 0.559895 8.26552e-19)
(-0.292478 0.55525 3.55553e-18)
(-0.374821 0.553698 -2.53379e-18)
(-0.463323 0.550573 1.1247e-18)
(-0.54779 0.549212 -1.85735e-18)
(-0.628477 0.543295 -4.24372e-18)
(-0.699129 0.521318 3.80434e-18)
(-0.757268 0.476913 4.5897e-19)
(-0.800212 0.410787 6.56897e-18)
(-0.82798 0.322808 -2.14943e-18)
(-0.834504 0.210188 -9.50074e-18)
(-0.811883 0.0706998 -5.53505e-18)
(-0.746145 -0.0907849 4.29432e-19)
(-0.627006 -0.253167 -2.15297e-18)
(-0.112594 0.462858 -1.60567e-18)
(-0.209273 0.600518 -9.40083e-19)
(-0.281266 0.602953 1.07658e-18)
(-0.352908 0.605363 1.62104e-19)
(-0.430939 0.604478 -4.36923e-19)
(-0.504634 0.603382 -4.83418e-19)
(-0.57374 0.596811 1.9384e-18)
(-0.632887 0.573741 -2.31795e-18)
(-0.680334 0.527563 2.31329e-18)
(-0.71376 0.458622 2.95718e-18)
(-0.733549 0.366417 -5.26037e-18)
(-0.734623 0.24717 9.72654e-18)
(-0.707626 0.0953015 9.67018e-19)
(-0.633016 -0.0876682 1.16397e-18)
(-0.501415 -0.278908 2.83017e-18)
(-0.117422 0.47322 2.8052e-18)
(-0.207857 0.632954 -9.22595e-19)
(-0.267379 0.644567 -4.15005e-18)
(-0.327626 0.651762 1.57675e-18)
(-0.394289 0.653967 -9.18119e-19)
(-0.456522 0.653733 1.07565e-18)
(-0.513575 0.647198 8.07705e-18)
(-0.560702 0.624241 3.98537e-18)
(-0.596547 0.577908 2.70188e-18)
(-0.618573 0.508086 -9.17911e-18)
(-0.627676 0.413917 1.01449e-17)
(-0.620494 0.290251 3.73837e-18)
(-0.585072 0.127759 -5.85324e-18)
(-0.496187 -0.0721522 6.83805e-18)
(-0.34318 -0.287109 1.76528e-19)
(-0.119209 0.472747 4.4129e-19)
(-0.203815 0.656948 1.68249e-19)
(-0.251023 0.679451 -2.06881e-19)
(-0.299403 0.692271 -2.80466e-18)
(-0.354058 0.698525 5.51921e-18)
(-0.404309 0.699946 -2.84466e-18)
(-0.448831 0.69414 -8.46513e-18)
(-0.483298 0.67216 2.63473e-18)
(-0.506349 0.626793 -4.37465e-18)
(-0.51507 0.557021 6.92397e-18)
(-0.511086 0.461567 -1.26828e-17)
(-0.493649 0.335073 1.04373e-18)
(-0.445517 0.163249 5.33628e-18)
(-0.339428 -0.049458 -1.06249e-17)
(-0.150137 -0.273179 -2.18963e-18)
(-0.117268 0.461693 -1.75324e-18)
(-0.196769 0.671972 5.24611e-19)
(-0.232394 0.70695 1.54544e-18)
(-0.2687 0.726345 -6.66369e-20)
(-0.310909 0.737653 -7.36143e-18)
(-0.348863 0.741569 7.29847e-19)
(-0.380547 0.737074 2.78169e-18)
(-0.401671 0.71685 -7.58065e-18)
(-0.410896 0.673374 5.87311e-18)
(-0.404987 0.60495 -5.56312e-18)
(-0.386063 0.510596 1.55748e-17)
(-0.356879 0.384361 -6.53824e-18)
(-0.288855 0.202988 7.97536e-18)
(-0.170862 -0.0275121 1.52793e-17)
(0.0649403 -0.239655 5.81122e-18)
(-0.111251 0.440139 -6.46722e-19)
(-0.186487 0.677294 1.80923e-20)
(-0.211732 0.726683 -8.51709e-20)
(-0.236115 0.753526 -1.54945e-19)
(-0.265767 0.770794 -3.40251e-18)
(-0.291202 0.778109 -1.53679e-18)
(-0.30985 0.775508 2.66391e-18)
(-0.317199 0.757328 1.70025e-18)
(-0.311823 0.716329 -9.79694e-18)
(-0.290261 0.650279 -5.13357e-19)
(-0.253355 0.558484 -3.06904e-18)
(-0.206579 0.434278 6.32037e-18)
(-0.103936 0.249056 -8.75911e-18)
(0.0166064 -0.0190998 -9.58105e-19)
(0.285824 -0.197182 -6.51546e-18)
(-0.100986 0.408152 2.80427e-18)
(-0.172978 0.672648 -2.44699e-18)
(-0.189398 0.738496 -3.47325e-18)
(-0.202325 0.773372 6.21687e-18)
(-0.219553 0.797289 5.57545e-18)
(-0.232487 0.808904 7.28635e-18)
(-0.238058 0.808738 3.48746e-19)
(-0.231431 0.793039 5.22401e-18)
(-0.210836 0.755053 7.24698e-18)
(-0.172672 0.692402 1.12653e-17)
(-0.115394 0.605751 -5.43982e-18)
(-0.0459472 0.486726 1.15088e-17)
(0.094346 0.31817 -1.35875e-19)
(0.209719 0.00670605 -5.91885e-18)
(0.507407 -0.142779 -1.27258e-17)
(-0.0864402 0.366164 -1.70623e-18)
(-0.156418 0.658023 2.77827e-18)
(-0.165873 0.742272 1.82308e-18)
(-0.168199 0.785454 -5.73491e-18)
(-0.17331 0.816306 -2.76859e-18)
(-0.173899 0.833289 -5.24552e-19)
(-0.166547 0.83605 -3.78334e-18)
(-0.146119 0.822761 -6.78519e-18)
(-0.110407 0.787779 -1.20897e-17)
(-0.0553969 0.728299 -5.50361e-18)
(0.0227447 0.645692 7.81764e-18)
(0.112985 0.525157 -1.69115e-17)
(0.296932 0.386471 4.46795e-19)
(0.394841 0.0535982 1.02085e-17)
(0.71002 -0.0887467 1.34351e-17)
(-0.0679526 0.31505 -4.0223e-18)
(-0.137199 0.633437 3.18068e-18)
(-0.141766 0.737831 -5.53126e-18)
(-0.134675 0.789515 -2.61721e-18)
(-0.12818 0.827164 -1.96961e-19)
(-0.116871 0.850113 3.77735e-18)
(-0.0970084 0.856591 6.46896e-18)
(-0.0630732 0.845956 2.26707e-18)
(-0.012659 0.813796 3.43783e-18)
(0.058395 0.756076 -9.33204e-18)
(0.154594 0.676564 2.19601e-20)
(0.258278 0.534322 -7.57051e-18)
(0.474552 0.429129 -5.86204e-18)
(0.560887 0.0998485 -1.61798e-17)
(0.885431 -0.0393953 -4.31929e-19)
(-0.046519 0.256221 3.54213e-18)
(-0.115937 0.598702 5.52277e-19)
(-0.117663 0.724933 9.08271e-19)
(-0.102696 0.785473 6.5499e-18)
(-0.0855192 0.829388 2.71423e-18)
(-0.0627156 0.858639 -3.52684e-18)
(-0.0311978 0.869334 2.76041e-18)
(0.0154799 0.860889 -1.67376e-18)
(0.0790689 0.83126 -3.41117e-18)
(0.166066 0.773446 4.40439e-18)
(0.276741 0.703388 -1.42396e-17)
(0.390666 0.532769 -1.5517e-19)
(0.613563 0.446611 -7.82057e-18)
(0.707645 0.139117 1.23393e-17)
(1.02797 0.00517193 1.04573e-18)
(-0.0248019 0.190748 -1.3382e-18)
(-0.0935865 0.553364 -3.75238e-18)
(-0.0941663 0.703066 1.01588e-18)
(-0.0729268 0.7735 -7.36933e-18)
(-0.0465224 0.822793 -5.0913e-18)
(-0.0132581 0.857728 -2.8308e-18)
(0.0289816 0.873696 -5.17088e-18)
(0.0878304 0.867924 4.98244e-18)
(0.16255 0.839888 7.46235e-18)
(0.262839 0.779036 1.48097e-17)
(0.38913 0.725742 -3.17475e-19)
(0.512831 0.545649 1.75564e-17)
(0.727374 0.457304 7.2673e-18)
(0.843505 0.176006 4.75682e-18)
(1.13883 0.0445649 -1.10384e-17)
(-0.00979277 0.120754 2.30457e-18)
(-0.0714914 0.496162 5.69056e-18)
(-0.0716347 0.67139 3.86369e-18)
(-0.0458873 0.753807 5.09992e-18)
(-0.012134 0.807974 5.41382e-20)
(0.0305096 0.847314 2.04737e-18)
(0.0813818 0.867665 3.78175e-20)
(0.150315 0.865202 -3.93625e-18)
(0.237229 0.839846 5.95974e-18)
(0.341983 0.772825 -2.1651e-17)
(0.490661 0.735773 6.81021e-18)
(0.617731 0.564396 -4.75077e-18)
(0.825297 0.465642 9.89261e-19)
(0.962386 0.208285 -6.4288e-18)
(1.21329 0.0773298 -6.28985e-18)
(-0.00676242 0.0539361 -3.75605e-18)
(-0.0519614 0.425808 4.95349e-18)
(-0.0504157 0.628558 -1.25908e-18)
(-0.0213874 0.726426 -2.0858e-18)
(0.0170723 0.785487 4.39025e-18)
(0.0668442 0.828059 4.80511e-19)
(0.126528 0.852071 -1.3617e-18)
(0.1997 0.853953 -1.65705e-19)
(0.304549 0.828986 -3.87546e-18)
(0.394718 0.753179 1.02271e-17)
(0.580151 0.720994 5.92022e-18)
(0.690211 0.565569 2.88574e-18)
(0.907752 0.460852 -1.67512e-19)
(1.05003 0.230168 7.13134e-18)
(1.24955 0.100561 -4.14976e-19)
(-0.00880986 0.000543886 1.0977e-18)
(-0.0355844 0.340138 -1.18528e-18)
(-0.030719 0.573157 9.07115e-19)
(0.000442873 0.691074 3.86491e-18)
(0.0421825 0.756668 -2.4464e-18)
(0.0944508 0.801382 -1.5289e-18)
(0.163679 0.823776 -2.98429e-18)
(0.231062 0.834007 2.32118e-18)
(0.372943 0.817529 -2.48988e-18)
(0.418911 0.726411 -2.46106e-18)
(0.663453 0.691805 -5.27926e-18)
(0.722008 0.548696 -3.20329e-18)
(0.982133 0.445867 1.01366e-17)
(1.09738 0.242539 -1.39045e-17)
(1.25411 0.114453 -2.15761e-19)
(-0.00671541 -0.032949 4.70042e-18)
(-0.0239008 0.237057 -1.79943e-18)
(-0.0123039 0.502501 -4.64298e-18)
(0.0196219 0.645826 -1.20904e-18)
(0.0640176 0.721527 6.28014e-18)
(0.113194 0.772414 -1.02469e-19)
(0.198135 0.787854 2.8882e-18)
(0.235976 0.790258 -1.60208e-18)
(0.436057 0.803397 -6.10346e-18)
(0.431011 0.697798 1.45933e-17)
(0.727375 0.663512 -1.05875e-17)
(0.726664 0.520995 3.04613e-18)
(1.05279 0.427061 -1.4017e-17)
(1.09448 0.242137 5.03093e-18)
(1.23929 0.117116 3.71195e-18)
(-0.00203336 -0.046233 -1.67553e-18)
(-0.0211764 0.127821 -5.3729e-18)
(0.00282943 0.413261 2.43219e-18)
(0.0352845 0.588413 4.29936e-19)
(0.0846691 0.678063 -5.61401e-18)
(0.120116 0.737378 3.41343e-18)
(0.231924 0.761499 9.80118e-20)
(0.230019 0.728023 -7.5695e-19)
(0.459172 0.760843 -5.69516e-18)
(0.457892 0.663762 -8.29672e-19)
(0.738131 0.620188 7.87216e-18)
(0.737623 0.487275 4.61839e-19)
(1.09499 0.400053 1.8151e-18)
(1.03785 0.224072 5.06743e-18)
(1.22991 0.110718 -1.23523e-17)
(-0.000490682 -0.0440198 -2.54904e-18)
(-0.0176305 0.0406044 2.88246e-20)
(0.0139555 0.302172 -3.05057e-18)
(0.0448158 0.512627 2.44189e-18)
(0.104326 0.629835 3.16101e-18)
(0.12024 0.688121 -2.3018e-18)
(0.246184 0.737194 -3.84777e-19)
(0.246781 0.683307 -1.65251e-18)
(0.430299 0.687386 4.6e-18)
(0.503454 0.627539 7.44535e-19)
(0.696088 0.553119 -1.05849e-17)
(0.786046 0.454657 2.55421e-18)
(1.06964 0.357705 1.74996e-18)
(0.959298 0.194099 -8.13426e-18)
(1.25465 0.0990692 1.95816e-18)
(-0.000789418 -0.0338902 5.94625e-19)
(0.00133652 -0.00826459 1.54669e-18)
(0.0226469 0.18045 2.96518e-18)
(0.0483615 0.407956 -2.39584e-18)
(0.113328 0.570862 -2.53459e-20)
(0.123889 0.632922 5.63504e-18)
(0.232572 0.690987 -1.83067e-19)
(0.271394 0.660413 1.42888e-19)
(0.395256 0.612571 6.57691e-18)
(0.527429 0.586454 -3.49604e-18)
(0.65107 0.478878 2.79091e-18)
(0.834533 0.420957 -7.28864e-18)
(0.967042 0.297012 6.28725e-19)
(0.931395 0.163364 -1.78655e-18)
(1.32115 0.0840164 3.37918e-18)
(0.00325577 -0.0232462 -4.14683e-19)
(0.0343178 -0.0237909 2.02607e-18)
(0.042851 0.0939059 -2.53317e-18)
(0.0518279 0.285367 5.48875e-18)
(0.108836 0.487108 -4.33631e-18)
(0.120849 0.572837 -3.70735e-18)
(0.210166 0.623008 -2.25817e-18)
(0.26354 0.624347 -4.15822e-18)
(0.38543 0.552539 -7.53434e-18)
(0.498373 0.528434 1.22676e-18)
(0.647754 0.414844 5.55851e-18)
(0.801859 0.369753 4.48359e-18)
(0.847664 0.220727 8.01912e-19)
(1.01008 0.141784 -3.7306e-18)
(1.40582 0.0672436 -1.72627e-18)
(0.0165577 -0.0173636 1.11013e-18)
(0.0748107 -0.0252316 1.94542e-18)
(0.0822169 0.0618622 -8.14915e-18)
(0.0657296 0.187826 -5.52702e-18)
(0.0962456 0.386362 -1.68148e-19)
(0.102912 0.497121 4.02797e-18)
(0.177058 0.541216 -1.19517e-18)
(0.232573 0.559835 9.16002e-18)
(0.355192 0.484457 8.99828e-19)
(0.455172 0.453006 -4.25147e-18)
(0.629222 0.345662 -4.15845e-18)
(0.680895 0.28655 -6.7376e-18)
(0.837463 0.153898 7.51364e-18)
(1.1622 0.132818 5.01278e-18)
(1.47476 0.0484442 4.2846e-20)
(0.0392506 -0.019047 -3.07041e-18)
(0.116259 -0.0309682 -5.7271e-18)
(0.122646 0.0512646 4.10262e-18)
(0.0884403 0.140938 5.07361e-18)
(0.0752785 0.292379 3.07311e-18)
(0.0762433 0.412116 -2.70358e-18)
(0.118084 0.442175 6.61448e-18)
(0.194254 0.476071 -7.92422e-18)
(0.280719 0.387039 8.0971e-18)
(0.422339 0.36621 4.88453e-18)
(0.520523 0.246839 -1.46736e-18)
(0.617532 0.198855 -2.16935e-18)
(0.974405 0.122178 -3.01044e-18)
(1.30238 0.128201 -5.92115e-18)
(1.50928 0.0261728 6.85585e-18)
(0.0676541 -0.028998 8.81487e-18)
(0.150418 -0.0453103 6.83679e-18)
(0.144651 0.0323452 1.60079e-18)
(0.0975769 0.116772 -4.91582e-20)
(0.0449864 0.218628 -1.01826e-18)
(0.0331799 0.326775 -1.27249e-18)
(0.0483046 0.336635 -5.13926e-18)
(0.118413 0.368478 7.65548e-18)
(0.211252 0.277856 -5.28164e-18)
(0.323556 0.248221 -1.14795e-20)
(0.432038 0.140086 4.80787e-18)
(0.753373 0.150108 3.52246e-18)
(1.14442 0.113903 3.608e-18)
(1.38626 0.117571 -4.96011e-21)
(1.51315 0.00202686 -4.01779e-18)
(0.0949987 -0.045757 -5.3076e-18)
(0.169145 -0.0662373 -5.55286e-18)
(0.143061 0.00231272 1.86955e-18)
(0.0786461 0.0854325 -2.95515e-18)
(-9.16099e-05 0.157675 -1.27579e-18)
(-0.0302422 0.240943 4.31683e-18)
(-0.0351102 0.233644 -1.18989e-18)
(0.0210727 0.242576 -8.45672e-19)
(0.116432 0.153507 -2.23968e-18)
(0.208506 0.112071 -4.83399e-18)
(0.563834 0.0901399 2.27799e-18)
(0.9666 0.132471 -2.78687e-18)
(1.26146 0.106378 -4.24285e-18)
(1.42422 0.0982112 -1.86187e-18)
(1.49973 -0.0200132 7.11787e-18)
(0.114479 -0.0649437 6.06853e-18)
(0.168728 -0.0899426 -4.86638e-18)
(0.119375 -0.0333489 -8.18236e-18)
(0.0338394 0.042173 8.08138e-19)
(-0.0623666 0.0974849 2.00407e-18)
(-0.111882 0.154318 -1.13404e-18)
(-0.133557 0.130065 3.22971e-18)
(-0.0846989 0.115828 7.49507e-19)
(0.00827981 0.019186 -5.8487e-19)
(0.337359 0.0462696 -1.95293e-19)
(0.803652 0.0820767 -2.41678e-18)
(1.1203 0.117449 2.57603e-19)
(1.32849 0.093128 1.33634e-18)
(1.44095 0.0739775 -9.59699e-19)
(1.49741 0.0199057 6.80474e-18)
(0.122208 -0.0808767 1.29174e-18)
(0.150401 -0.111731 -2.77332e-18)
(0.0774898 -0.0699892 8.02356e-18)
(-0.028651 -0.00697935 6.31095e-18)
(-0.139841 0.0363522 -6.18884e-18)
(-0.210284 0.0689084 -2.83084e-19)
(-0.246984 0.0277103 -2.3841e-18)
(-0.186707 -0.0110562 -6.4844e-19)
(0.123598 -0.0342184 4.92901e-18)
(0.615705 0.039812 2.29821e-18)
(0.982494 0.0729383 3.59411e-18)
(1.21879 0.100864 -2.91809e-18)
(1.37086 0.077087 1.79175e-18)
(1.45029 0.0805718 -1.06161e-18)
(1.48214 0.00813945 -8.68348e-18)
(0.11743 -0.0895576 1.02293e-18)
(0.118552 -0.128504 1.69365e-18)
(0.0242278 -0.103882 -4.41836e-18)
(-0.0994807 -0.0542631 -5.11933e-18)
(-0.225859 -0.0205243 -4.58247e-18)
(-0.31685 -0.00982798 4.04368e-19)
(-0.340794 -0.0661606 2.85095e-18)
(-0.129448 -0.0941741 -4.90146e-18)
(0.43032 -0.0197862 -2.56345e-18)
(0.825311 0.0327933 1.32976e-18)
(1.10879 0.0628058 -3.52336e-18)
(1.29003 0.0866095 2.53031e-19)
(1.39909 0.0758856 2.28666e-18)
(1.44819 0.0630201 -2.79256e-18)
(1.46921 0.0302987 2.23779e-18)
(0.101231 -0.089623 -2.26511e-18)
(0.0772594 -0.136927 5.22423e-18)
(-0.0350965 -0.128583 3.55768e-18)
(-0.173791 -0.0900029 2.43105e-18)
(-0.313432 -0.0617206 3.94209e-18)
(-0.403894 -0.0660142 -3.96841e-19)
(-0.335337 -0.128022 -2.83757e-18)
(0.182864 -0.0605637 5.23372e-19)
(0.6574 -0.0160641 3.1902e-18)
(0.985548 0.0281079 -5.7203e-18)
(1.20838 0.0571553 -2.8455e-18)
(1.34068 0.0817721 7.64266e-20)
(1.41359 0.0633966 -7.22831e-19)
(1.44569 0.0738266 3.60624e-18)
(1.46021 0.0288022 -2.79548e-18)
(0.0763562 -0.08106 2.43467e-18)
(0.0319832 -0.134012 1.60442e-18)
(-0.0916175 -0.138446 -2.43356e-19)
(-0.236279 -0.107859 -1.57069e-18)
(-0.368232 -0.0839139 3.5331e-19)
(-0.415305 -0.0932468 -4.73566e-18)
(-0.166322 -0.13331 1.03725e-18)
(0.477519 -0.0349075 -2.07628e-18)
(0.85263 -0.00639407 -2.31524e-18)
(1.11664 0.0308145 4.08169e-18)
(1.28209 0.0580669 6.00432e-18)
(1.37392 0.0734967 2.73713e-18)
(1.42305 0.0694894 2.39965e-18)
(1.44096 0.0648467 -2.90016e-18)
(1.44615 0.0348988 -2.64078e-18)
(0.0468083 -0.065189 2.00288e-18)
(-0.0108415 -0.118269 -3.90018e-18)
(-0.135039 -0.128308 -1.91601e-18)
(-0.26986 -0.0980668 -4.28253e-18)
(-0.371684 -0.0672387 1.97479e-18)
(-0.359839 -0.0728874 4.96592e-18)
(0.147305 -0.0306779 -5.83011e-18)
(0.670986 -0.0163793 1.95017e-18)
(1.00719 0.00946436 3.45899e-18)
(1.21576 0.0389389 1.10548e-18)
(1.33563 0.0592671 -4.20101e-18)
(1.39762 0.0768677 -1.54445e-18)
(1.42665 0.0632287 1.61979e-20)
(1.43461 0.0718391 1.52439e-18)
(1.43969 0.0425318 5.34029e-18)
(0.0168039 -0.0447397 -3.24547e-18)
(-0.0471126 -0.0920619 -3.2843e-18)
(-0.162654 -0.103422 1.85918e-18)
(-0.275735 -0.0731672 7.64292e-18)
(-0.334838 -0.0412747 -5.13269e-18)
(-0.235841 -0.0669913 1.54501e-18)
(0.429048 0.0190217 2.35387e-18)
(0.862245 0.0120478 -2.06094e-19)
(1.13712 0.0299081 4.51705e-19)
(1.29373 0.0495543 2.24603e-18)
(1.375 0.0675206 -2.01645e-18)
(1.41179 0.0741159 -3.63156e-18)
(1.42752 0.0713829 -2.7801e-18)
(1.43011 0.0714263 2.23315e-18)
(1.4278 0.0424213 5.5168e-19)
(-0.00997396 -0.0227294 -8.08025e-19)
(-0.0737207 -0.0591474 6.50683e-18)
(-0.170954 -0.0674439 1.37947e-18)
(-0.251095 -0.03368 2.01642e-18)
(-0.268754 -0.00100917 1.93287e-18)
(-0.0324401 -0.0138307 1.95975e-18)
(0.622185 0.039037 -7.12575e-19)
(1.00569 0.0383524 1.32382e-18)
(1.2317 0.0501536 6.55274e-19)
(1.34801 0.0634378 2.84775e-18)
(1.40035 0.0729425 1.39422e-19)
(1.42075 0.0815695 2.54082e-18)
(1.42675 0.071503 -1.68832e-18)
(1.423 0.0749868 -1.4132e-18)
(1.42141 0.0535982 8.42706e-19)
(-0.0308251 -0.00280761 2.92341e-18)
(-0.0907632 -0.0252923 -2.66664e-18)
(-0.165578 -0.0280055 2.94731e-19)
(-0.209542 0.0127081 -4.09986e-18)
(-0.203732 0.0301572 -3.61236e-18)
(0.205181 0.0666436 6.3668e-18)
(0.787052 0.0757989 1.9078e-18)
(1.12977 0.0697311 -2.78702e-18)
(1.30881 0.0726509 7.38242e-19)
(1.38916 0.0765936 -7.63298e-18)
(1.41873 0.0844719 2.51055e-18)
(1.42548 0.0833316 -2.68104e-18)
(1.42395 0.0794354 2.76474e-18)
(1.41858 0.0802321 -4.04663e-19)
(1.4122 0.0541231 -1.28862e-18)
(-0.0446315 0.0126342 -4.58805e-18)
(-0.0997953 0.00425917 -4.69811e-18)
(-0.151825 0.00626219 -4.84357e-18)
(-0.166518 0.0483007 -3.73244e-18)
(-0.11731 0.025383 2.6232e-18)
(0.439463 0.0929328 -1.09579e-17)
(0.936272 0.094111 9.98698e-19)
(1.22233 0.0907729 9.30849e-19)
(1.35974 0.0903136 4.99482e-19)
(1.41383 0.0912576 3.56428e-18)
(1.42776 0.0918542 -2.68039e-18)
(1.42668 0.092118 5.78708e-18)
(1.42119 0.084446 -1.10367e-18)
(1.41181 0.0827154 -1.85216e-18)
(1.40528 0.0647326 9.84601e-19)
(-0.0521518 0.0228215 8.14602e-19)
(-0.102952 0.026594 3.81833e-18)
(-0.132433 0.0343498 5.48473e-18)
(-0.135981 0.0694494 9.07034e-19)
(-0.000124341 0.0333225 4.54085e-18)
(0.618856 0.110493 2.6823e-18)
(1.0526 0.119168 8.26101e-19)
(1.29246 0.115323 -4.26303e-18)
(1.39825 0.110503 -2.39827e-19)
(1.43179 0.104328 1.78631e-18)
(1.4343 0.104042 6.50881e-18)
(1.42683 0.0972555 -8.17035e-19)
(1.41696 0.0918196 1.83159e-18)
(1.40714 0.090398 1.5879e-18)
(1.39805 0.0684517 2.26155e-18)
(-0.0549186 0.0278482 1.51189e-18)
(-0.102145 0.039612 -5.05607e-18)
(-0.113383 0.0557061 -1.09442e-18)
(-0.116316 0.064451 6.80061e-20)
(0.165981 0.0731121 -8.29381e-18)
(0.775078 0.13166 2.21363e-18)
(1.15475 0.136987 -1.15397e-18)
(1.34627 0.131684 1.34556e-18)
(1.42136 0.124119 4.43286e-18)
(1.4394 0.117471 -1.59123e-18)
(1.43464 0.112074 -4.81376e-18)
(1.42397 0.106062 -5.93125e-19)
(1.41296 0.0996731 -6.13661e-19)
(1.40085 0.0935697 -1.30432e-18)
(1.39082 0.0772921 -2.4752e-18)
(-0.0551935 0.0284245 3.16206e-19)
(-0.0987676 0.0445739 1.36788e-18)
(-0.103539 0.0658042 -3.52777e-18)
(-0.0841095 0.0306011 1.52624e-18)
(0.374419 0.101384 3.38005e-18)
(0.914155 0.143936 -1.546e-18)
(1.23099 0.153874 -2.81605e-19)
(1.38168 0.149536 -3.42133e-18)
(1.43596 0.140586 6.15814e-19)
(1.444 0.129391 -2.48384e-18)
(1.43474 0.123626 2.2377e-18)
(1.42173 0.113403 -1.69635e-18)
(1.40816 0.106813 2.7318e-18)
(1.39584 0.101693 -9.1493e-19)
(1.38468 0.0839737 -1.71714e-18)
(-0.0544242 0.0258429 1.62094e-18)
(-0.0932837 0.0468411 1.01345e-18)
(-0.103493 0.0657078 9.10842e-19)
(-0.0164716 0.00597521 2.88792e-19)
(0.56361 0.118683 1.52359e-18)
(1.02823 0.158722 -3.71362e-18)
(1.29163 0.168193 2.11206e-18)
(1.40849 0.16233 4.80043e-18)
(1.44354 0.151021 -5.52561e-19)
(1.44314 0.140507 3.5016e-18)
(1.43085 0.131673 1.96188e-18)
(1.41673 0.121815 3.65088e-19)
(1.40321 0.115801 5.1468e-19)
(1.38983 0.10621 9.41706e-19)
(1.37748 0.0915119 2.02338e-18)
(-0.0530345 0.0211252 2.44541e-18)
(-0.0866362 0.0493912 3.45929e-18)
(-0.107439 0.0521465 -3.1163e-18)
(0.0982016 0.0268202 2.8195e-18)
(0.720217 0.138761 -6.52018e-18)
(1.12546 0.17206 1.64035e-18)
(1.33677 0.180443 -5.60491e-19)
(1.42322 0.174862 -2.94803e-18)
(1.44553 0.164058 -5.15956e-18)
(1.44095 0.151115 -1.9422e-18)
(1.42753 0.142186 -4.64146e-18)
(1.41301 0.130329 2.70806e-18)
(1.39808 0.122981 -3.32459e-18)
(1.3845 0.113984 2.02779e-18)
(1.37181 0.0999496 1.23772e-18)
(-0.0514401 0.0154287 -5.78072e-18)
(-0.0843382 0.0494953 1.85034e-19)
(-0.101629 0.0220369 4.15819e-19)
(0.268584 0.0689963 7.61811e-19)
(0.856161 0.154098 4.93179e-19)
(1.20184 0.184811 3.08764e-18)
(1.37001 0.191842 1.65592e-18)
(1.43365 0.18509 -4.44384e-19)
(1.44527 0.172612 2.2743e-18)
(1.43651 0.160637 1.41607e-18)
(1.42187 0.150092 6.1616e-19)
(1.4069 0.138345 -1.49282e-18)
(1.39237 0.132031 4.56392e-18)
(1.37854 0.119743 7.16592e-19)
(1.36484 0.107008 -1.39863e-18)
(-0.0500958 0.0120034 5.29526e-18)
(-0.090773 0.0427405 -3.75329e-18)
(-0.0681092 -0.0144986 1.22084e-18)
(0.462837 0.0991867 -1.1895e-19)
(0.973431 0.167219 6.0766e-18)
(1.26285 0.195875 -4.92452e-19)
(1.39402 0.201577 -2.00435e-18)
(1.43744 0.194545 4.7609e-18)
(1.44156 0.183226 4.38993e-19)
(1.43129 0.170202 1.78461e-18)
(1.41681 0.159656 -3.55048e-18)
(1.40217 0.147279 9.71747e-20)
(1.38694 0.13931 -1.37993e-18)
(1.37293 0.127084 -2.31946e-19)
(1.35925 0.116112 -7.72533e-19)
(-0.0492017 0.0141874 -1.41609e-18)
(-0.102833 0.0296823 3.92489e-18)
(0.00277731 -0.0319661 2.34372e-18)
(0.629469 0.122165 1.86203e-18)
(1.07303 0.180736 -9.838e-19)
(1.30962 0.206682 -3.84828e-19)
(1.40975 0.211019 2.53467e-18)
(1.43908 0.203437 -2.03188e-18)
(1.43776 0.190997 5.97351e-19)
(1.42557 0.178766 -3.05408e-18)
(1.41054 0.167469 2.15883e-19)
(1.39556 0.15503 4.10842e-19)
(1.3807 0.147945 -5.6651e-19)
(1.36685 0.133727 -3.17709e-18)
(1.35249 0.123233 1.23042e-18)
(-0.0488509 0.0224087 -2.47224e-18)
(-0.113318 0.0104903 -3.08816e-18)
(0.113616 -0.00668941 1.56501e-18)
(0.765147 0.144171 -2.08222e-19)
(1.15441 0.195761 -2.49792e-18)
(1.3462 0.217302 -8.54565e-20)
(1.42053 0.219515 -1.79726e-18)
(1.43749 0.211467 -3.46742e-18)
(1.43194 0.200219 -1.36763e-18)
(1.41921 0.187663 1.25888e-18)
(1.4046 0.176352 1.09254e-18)
(1.39012 0.163953 -1.08144e-19)
(1.37497 0.155298 -1.55185e-18)
(1.36098 0.140825 2.65043e-18)
(1.34677 0.132332 7.50636e-19)
(-0.0500777 0.0316131 2.42308e-18)
(-0.110094 -0.0120866 2.43995e-20)
(0.262557 0.0420649 -3.83253e-18)
(0.879492 0.162885 -9.072e-20)
(1.22042 0.210007 6.00921e-19)
(1.37354 0.227754 1.06698e-18)
(1.42632 0.228074 -1.87062e-18)
(1.43481 0.219782 9.48861e-19)
(1.42666 0.207842 -4.38317e-20)
(1.41309 0.195787 1.00063e-18)
(1.39817 0.184167 -8.60741e-19)
(1.38333 0.171587 -2.29551e-18)
(1.36839 0.163455 -1.03174e-19)
(1.3547 0.148014 -1.27254e-18)
(1.34012 0.139679 -1.01144e-18)
(-0.0541037 0.0356888 9.94112e-19)
(-0.0877611 -0.0295825 -2.05549e-18)
(0.429635 0.0830705 1.95051e-18)
(0.979597 0.179084 -6.34887e-19)
(1.27169 0.223261 -3.46135e-19)
(1.39324 0.2379 -9.42596e-19)
(1.42963 0.236359 1.4924e-18)
(1.43089 0.227484 9.30699e-19)
(1.42029 0.216438 -5.43226e-19)
(1.40641 0.204349 -1.48684e-18)
(1.39178 0.192648 -5.18339e-19)
(1.37736 0.180325 2.34792e-18)
(1.36236 0.170853 1.36789e-18)
(1.34858 0.155066 1.27028e-18)
(1.33415 0.148461 -3.59767e-19)
(-0.0611503 0.0299586 -6.1355e-19)
(-0.0449223 -0.0350558 2.30674e-19)
(0.582035 0.115111 -8.31409e-19)
(1.06658 0.195643 -1.91153e-20)
(1.31239 0.235625 -6.28183e-19)
(1.40689 0.247592 -9.15046e-19)
(1.42993 0.244756 3.19887e-19)
(1.42633 0.235828 -1.83535e-18)
(1.41445 0.224287 1.57709e-18)
(1.40013 0.212393 1.94713e-18)
(1.38527 0.200553 2.26841e-19)
(1.37047 0.18796 -2.01967e-18)
(1.35556 0.178657 -1.86003e-18)
(1.34209 0.162576 -1.32618e-18)
(1.3275 0.155983 4.91128e-19)
(-0.0716403 0.0121344 -2.00996e-18)
(0.0180354 -0.0307979 5.56062e-19)
(0.708765 0.142384 -4.04927e-19)
(1.14219 0.213913 -8.0898e-21)
(1.34466 0.248109 -1.65787e-19)
(1.41569 0.257086 -3.42333e-19)
(1.42883 0.253143 6.43755e-19)
(1.42137 0.24379 -3.49247e-19)
(1.40803 0.232789 -4.49809e-19)
(1.39338 0.220886 -8.48462e-19)
(1.37861 0.208858 -7.34878e-19)
(1.3641 0.19649 -3.23384e-19)
(1.34922 0.186091 1.15552e-18)
(1.33568 0.169712 -4.07459e-20)
(1.32122 0.164356 7.99866e-19)
(-0.0838253 -0.0144533 8.30715e-19)
(0.11058 -0.0118658 1.35819e-18)
(0.817081 0.166401 2.35924e-19)
(1.20471 0.232315 8.69916e-19)
(1.37025 0.260785 1.81543e-18)
(1.42134 0.266635 6.52012e-19)
(1.42604 0.261685 2.35608e-18)
(1.41585 0.252405 1.21244e-18)
(1.40185 0.241032 7.42156e-19)
(1.38694 0.229073 1.65572e-18)
(1.37195 0.216916 4.9809e-19)
(1.35708 0.204205 8.72875e-19)
(1.34222 0.193714 4.19247e-19)
(1.32893 0.177408 1.82059e-19)
(1.31445 0.171922 5.52193e-19)
(-0.0939674 -0.0421754 1.18852e-18)
(0.225998 0.0177775 -1.94034e-18)
(0.9099 0.18644 -4.04247e-19)
(1.25645 0.250594 8.8945e-19)
(1.38998 0.273926 -1.83347e-18)
(1.42433 0.276622 -7.25989e-19)
(1.42261 0.270566 -1.44389e-18)
(1.41021 0.260839 -4.11521e-20)
(1.39531 0.249698 -3.68781e-19)
(1.38008 0.237655 -1.3859e-18)
(1.36504 0.225201 1.02134e-18)
(1.35034 0.212578 7.3888e-20)
(1.33553 0.2012 -4.18727e-20)
(1.32219 0.184665 3.13715e-19)
(1.30784 0.179876 -6.79906e-19)
(-0.0980343 -0.0632854 -6.39523e-20)
(0.353095 0.0514946 8.52333e-19)
(0.991365 0.205194 2.44659e-19)
(1.29758 0.267871 -1.25064e-18)
(1.40439 0.287151 8.06736e-19)
(1.42548 0.287062 2.47701e-19)
(1.41833 0.279827 -6.42769e-19)
(1.40413 0.269905 -2.9743e-19)
(1.38876 0.258351 -8.7786e-19)
(1.37331 0.246065 1.49005e-19)
(1.35811 0.233427 -9.83958e-19)
(1.34311 0.220408 -6.67083e-19)
(1.32831 0.208768 1.6838e-19)
(1.31518 0.192438 1.63851e-19)
(1.30095 0.18733 -2.78935e-19)
(-0.0920574 -0.0703026 -4.53e-19)
(0.480466 0.087782 -2.64079e-19)
(1.06358 0.22465 6.18093e-19)
(1.3303 0.284616 1.0727e-18)
(1.41419 0.300533 2.0085e-19)
(1.4247 0.298032 -5.3924e-19)
(1.41365 0.289636 6.62258e-19)
(1.398 0.278998 5.63693e-19)
(1.38194 0.267303 2.86299e-19)
(1.36618 0.254791 5.20448e-20)
(1.35088 0.241763 3.1356e-19)
(1.33598 0.228676 1.34003e-19)
(1.32125 0.216298 -8.64558e-20)
(1.30813 0.199766 -1.07135e-19)
(1.2941 0.194856 8.81207e-20)
(-0.0768969 -0.0647574 -2.14224e-19)
(0.595099 0.124359 -2.38455e-19)
(1.1279 0.247079 1.90757e-19)
(1.35585 0.301352 -2.55088e-19)
(1.41995 0.313806 -5.26565e-19)
(1.4224 0.309326 4.03113e-20)
(1.40827 0.299815 3.06864e-19)
(1.39143 0.28866 -2.69702e-19)
(1.37494 0.276374 1.7454e-19)
(1.35898 0.263429 3.41152e-19)
(1.34355 0.250128 5.35332e-20)
(1.32844 0.236599 1.25487e-19)
(1.31375 0.223844 -1.44897e-19)
(1.30087 0.207479 9.34508e-20)
(1.28712 0.202044 -6.54367e-20)
(-0.0513316 -0.0515471 -6.93069e-20)
(0.692136 0.160648 -2.66443e-20)
(1.18306 0.271901 -3.3611e-19)
(1.3757 0.318615 3.75592e-20)
(1.42247 0.327188 -1.88126e-20)
(1.41852 0.320914 2.56036e-19)