/*--------------------------------*- C++ -*----------------------------------*\
  =========                 |
  \\      /  F ield         | OpenFOAM: The Open Source CFD Toolbox
   \\    /   O peration     | Website:  https://openfoam.org
    \\  /    A nd           | Version:  7
     \\/     M anipulation  |
\*---------------------------------------------------------------------------*/
FoamFile
{
    version     2.0;
    format      ascii;
    class       surfaceScalarField;
    location    "20";
    object      phi;
}
// * * * * * * * * * * * * * * * * * * * * * * * * * * * * * * * * * * * * * //

dimensions      [0 3 -1 0 0 0 0];

internalField   nonuniform List<scalar> 
16735
(
-1.33865e-06
1.3381e-06
5.44603e-10
-4.56285e-06
3.22265e-06
1.55148e-09
-9.30293e-06
4.73763e-06
2.44868e-09
-1.53112e-05
6.00509e-06
3.20146e-09
-2.24782e-05
7.16312e-06
3.87054e-09
-3.08387e-05
8.35595e-06
4.5669e-09
-4.05658e-05
9.72167e-06
5.39768e-09
-5.19613e-05
1.1389e-05
6.43872e-09
-6.54429e-05
1.34739e-05
7.73863e-09
1.61658e-05
9.32349e-09
-8.1618e-05
-1.29499e-06
2.63309e-06
-4.42933e-06
6.35699e-06
-9.04882e-06
9.35712e-06
-1.49093e-05
1.18655e-05
-2.18941e-05
1.4148e-05
-3.00225e-05
1.64843e-05
-3.94442e-05
1.91433e-05
-5.04321e-05
2.23769e-05
-6.3367e-05
2.64088e-05
3.15938e-05
-7.8795e-05
-1.21038e-06
3.84347e-06
-4.16962e-06
9.31624e-06
-8.55325e-06
1.37407e-05
-1.4124e-05
1.74362e-05
-2.0752e-05
2.0776e-05
-2.84263e-05
2.41586e-05
-3.72516e-05
2.79686e-05
-4.74447e-05
3.25701e-05
-5.93162e-05
3.82804e-05
4.5567e-05
-7.32894e-05
-1.09007e-06
4.93354e-06
-3.79803e-06
1.20242e-05
-7.84102e-06
1.77837e-05
-1.29919e-05
2.25871e-05
-1.91031e-05
2.68872e-05
-2.61212e-05
3.11766e-05
-3.40871e-05
3.59345e-05
-4.31371e-05
4.16201e-05
-5.34861e-05
4.86293e-05
5.74538e-05
-6.53729e-05
-9.41439e-07
5.87498e-06
-3.33494e-06
1.44177e-05
-6.94776e-06
2.13965e-05
-1.1566e-05
2.72054e-05
-1.70214e-05
3.23426e-05
-2.32095e-05
3.73647e-05
-3.00928e-05
4.28179e-05
-3.77063e-05
4.92336e-05
-4.61543e-05
5.70773e-05
6.67285e-05
-5.54291e-05
-7.73476e-07
6.64845e-06
-2.80563e-06
1.64499e-05
-5.91815e-06
2.45091e-05
-9.91287e-06
3.12001e-05
-1.45999e-05
3.70296e-05
-1.98197e-05
4.25845e-05
-2.54467e-05
4.84449e-05
-3.13968e-05
5.51837e-05
-3.76631e-05
6.33437e-05
7.29947e-05
-4.39293e-05
-5.96147e-07
7.2446e-06
-2.23873e-06
1.80924e-05
-4.80365e-06
2.7074e-05
-8.10979e-06
3.45063e-05
-1.19472e-05
4.0867e-05
-1.61007e-05
4.67379e-05
-2.03541e-05
5.26983e-05
-2.44891e-05
5.93187e-05
-2.83981e-05
6.72527e-05
7.60049e-05
-3.14083e-05
-4.19723e-07
7.66432e-06
-1.66458e-06
1.93373e-05
-3.65976e-06
2.90692e-05
-6.2411e-06
3.70876e-05
-9.18158e-06
4.38075e-05
-1.22146e-05
4.9771e-05
-1.50383e-05
5.55219e-05
-1.72881e-05
6.15685e-05
-1.87632e-05
6.87278e-05
7.56903e-05
-1.84486e-05
-2.54138e-07
7.91846e-06
-1.11342e-06
2.01966e-05
-2.54303e-06
3.04988e-05
-4.39376e-06
3.89383e-05
-6.42556e-06
4.58393e-05
-8.32838e-06
5.16738e-05
-9.72854e-06
5.69221e-05
-1.01147e-05
6.19547e-05
-9.13633e-06
6.77494e-05
7.22752e-05
-5.72124e-06
-1.08546e-07
8.027e-06
-6.13611e-07
2.07016e-05
-1.50782e-06
3.1393e-05
-2.6526e-06
4.00831e-05
-3.79906e-06
4.69858e-05
-4.60348e-06
5.24782e-05
-4.64245e-06
5.69611e-05
-3.32237e-06
6.06347e-05
3.49682e-07
6.40774e-05
6.6008e-05
6.61683e-06
8.68379e-09
8.01832e-06
-1.89621e-07
2.08999e-05
-6.02971e-07
3.18064e-05
-1.09508e-06
4.05752e-05
-1.41189e-06
4.73026e-05
-1.18707e-06
5.22534e-05
8.095e-08
5.5693e-05
2.88125e-06
5.78344e-05
8.33524e-06
5.86234e-05
5.60953e-05
1.8248e-05
9.69655e-08
7.92136e-06
1.37621e-07
2.08593e-05
1.3174e-07
3.18122e-05
2.1466e-07
4.04923e-05
6.45865e-07
4.68714e-05
1.79917e-06
5.11001e-05
4.16424e-06
5.3328e-05
8.39116e-06
5.36074e-05
1.55895e-05
5.14251e-05
4.29096e-05
2.87752e-05
1.4431e-07
7.77705e-06
3.54977e-07
2.06486e-05
6.65786e-07
3.15014e-05
1.22935e-06
3.99288e-05
2.31306e-06
4.57877e-05
4.29639e-06
4.91168e-05
7.68458e-06
4.99398e-05
1.30796e-05
4.82125e-05
2.19747e-05
4.25299e-05
2.63707e-05
3.85136e-05
1.54062e-07
7.62298e-06
4.56775e-07
2.03459e-05
9.8806e-07
3.09701e-05
1.93008e-06
3.89867e-05
3.56909e-06
4.41487e-05
6.3018e-06
4.63841e-05
1.0662e-05
4.55796e-05
1.71505e-05
4.17239e-05
2.80352e-05
3.16453e-05
6.10971e-06
4.82962e-05
1.26404e-07
7.49658e-06
4.45086e-07
2.00272e-05
1.10241e-06
3.03128e-05
2.32694e-06
3.77622e-05
4.44399e-06
4.20316e-05
7.89836e-06
4.29297e-05
1.33141e-05
4.01639e-05
2.10595e-05
3.39785e-05
3.49203e-05
1.77844e-05
-1.85636e-05
5.95936e-05
6.53433e-08
7.43124e-06
3.3206e-07
1.97605e-05
1.03438e-06
2.96105e-05
2.46798e-06
3.63286e-05
5.03065e-06
3.94689e-05
9.27452e-06
3.86858e-05
1.60374e-05
3.3401e-05
2.55887e-05
2.44272e-05
4.42698e-05
-8.96704e-07
-4.84319e-05
7.41382e-05
-2.61627e-08
7.4574e-06
1.41482e-07
1.95929e-05
8.33092e-07
2.89189e-05
2.4442e-06
3.47175e-05
5.49425e-06
3.64189e-05
1.07351e-05
3.3445e-05
1.94052e-05
2.47309e-05
3.18911e-05
1.19412e-05
5.77629e-05
-2.67685e-05
-8.37341e-05
9.30651e-05
-1.32348e-07
7.58975e-06
-9.22764e-08
1.95528e-05
5.72138e-07
2.82545e-05
2.39238e-06
3.28972e-05
6.07646e-06
3.27348e-05
1.26997e-05
2.68218e-05
2.4054e-05
1.33766e-05
4.13847e-05
-5.38951e-06
7.65564e-05
-6.19401e-05
-0.000123141
0.000115963
-2.44867e-07
7.83461e-06
-3.31611e-07
1.96395e-05
3.48018e-07
2.75748e-05
2.49298e-06
3.07523e-05
7.09081e-06
2.8137e-05
1.56925e-05
1.82202e-05
3.06905e-05
-1.62141e-06
5.54748e-05
-3.01739e-05
0.000100607
-0.000107073
-0.000163518
0.000140984
-3.47993e-07
8.18261e-06
-5.19325e-07
1.98109e-05
2.7396e-07
2.67816e-05
2.96004e-06
2.80662e-05
8.90556e-06
2.21915e-05
2.02975e-05
6.82819e-06
4.01435e-05
-2.14674e-05
7.50776e-05
-6.5108e-05
0.000128227
-0.000160222
-0.000203795
0.000168503
-4.26454e-07
8.60906e-06
-6.03827e-07
1.99882e-05
4.67554e-07
2.57102e-05
4.02145e-06
2.45123e-05
1.19088e-05
1.43041e-05
2.71076e-05
-8.37064e-06
5.34085e-05
-4.77682e-05
9.89846e-05
-0.000110684
0.000155286
-0.000216523
-0.000285281
0.000236772
-4.6669e-07
9.07575e-06
-5.35931e-07
2.00575e-05
1.04249e-06
2.41318e-05
5.89086e-06
1.96639e-05
1.64592e-05
3.73583e-06
3.66036e-05
-2.85151e-05
7.10879e-05
-8.22526e-05
0.000125269
-0.000164865
0.000188847
-0.0002801
-0.000371852
0.000275418
-4.58802e-07
9.53455e-06
-2.7458e-07
1.98733e-05
2.09035e-06
2.17668e-05
8.74094e-06
1.30133e-05
2.2841e-05
-1.03642e-05
4.90657e-05
-5.47398e-05
9.23902e-05
-0.000125577
0.000153655
-0.00022613
0.000221627
-0.000348072
-0.000450573
0.000300348
-3.98318e-07
9.93287e-06
2.00242e-07
1.92747e-05
3.67232e-06
1.82947e-05
1.26907e-05
3.995e-06
3.1223e-05
-2.88966e-05
6.44577e-05
-8.79745e-05
0.000115835
-0.000176954
0.000181232
-0.000291527
0.000247446
-0.000414286
-0.000518602
0.000315475
-2.87268e-07
1.02201e-05
8.91727e-07
1.80957e-05
5.82515e-06
1.33613e-05
1.78116e-05
-7.99148e-06
4.16279e-05
-5.27129e-05
8.21866e-05
-0.000128533
0.000139433
-0.000234201
0.000204572
-0.000356665
0.000265534
-0.000475249
-0.000575447
0.000322379
-1.17115e-07
1.03373e-05
1.82366e-06
1.61549e-05
8.57458e-06
6.61041e-06
2.41412e-05
-2.35581e-05
5.3883e-05
-8.24547e-05
0.000101025
-0.000175675
0.000160827
-0.000294003
0.000222067
-0.000417905
0.000275701
-0.000528883
-0.000621752
0.000322005
1.13165e-07
1.02241e-05
2.99611e-06
1.3272e-05
1.19408e-05
-2.33428e-06
3.16776e-05
-4.3295e-05
6.75146e-05
-0.000118292
0.000119329
-0.00022749
0.000178193
-0.000352867
0.000233214
-0.000472926
0.000278926
-0.000574594
-0.000659536
0.00031671
3.85678e-07
9.83841e-06
4.41566e-06
9.242e-06
1.59427e-05
-1.38613e-05
4.03309e-05
-6.76831e-05
8.16832e-05
-0.000159644
0.000135483
-0.00028129
0.000190614
-0.000407997
0.000238455
-0.000520768
0.000276742
-0.000612882
-0.000690412
0.000307618
7.20053e-07
9.11836e-06
6.09724e-06
3.8648e-06
2.05879e-05
-2.83519e-05
4.98378e-05
-9.6933e-05
9.52949e-05
-0.000205101
0.000148326
-0.000334321
0.000198015
-0.000457686
0.000238688
-0.00056144
0.000270442
-0.000644636
-0.000715948
0.000295978
1.12e-06
7.99836e-06
8.0526e-06
-3.06779e-06
2.58476e-05
-4.61469e-05
5.97115e-05
-0.000130797
0.00010727
-0.00025266
0.000157326
-0.000384376
0.000200848
-0.000501209
0.000234907
-0.0005955
0.000261209
-0.000670937
-0.000737364
0.000282624
1.59164e-06
6.40672e-06
1.02871e-05
-1.17633e-05
3.16148e-05
-6.74746e-05
6.92912e-05
-0.000168473
0.000116816
-0.000300185
0.00016248
-0.00043004
0.000199802
-0.000538531
0.000228068
-0.000623766
0.000249917
-0.000692787
-0.000755564
0.000268118
2.13988e-06
4.26684e-06
1.27924e-05
-2.24158e-05
3.76701e-05
-9.23522e-05
7.78812e-05
-0.000208684
0.000123543
-0.000345847
0.000164116
-0.000470613
0.000195624
-0.000570039
0.000218971
-0.000647113
0.000237229
-0.000711044
-0.000771218
0.000252883
2.76613e-06
1.50071e-06
1.55364e-05
-3.51861e-05
4.3691e-05
-0.000120507
8.49135e-05
-0.000249907
0.000127414
-0.000388348
0.000162725
-0.000505924
0.000189013
-0.000596327
0.000208264
-0.000666364
0.000223614
-0.000726394
-0.000784766
0.000237162
3.46681e-06
-1.9661e-06
1.84517e-05
-5.01709e-05
4.93008e-05
-0.000151356
9.00501e-05
-0.000290656
0.000128622
-0.000426919
0.000158842
-0.000536144
0.000180575
-0.00061806
0.00019644
-0.000682229
0.000209396
-0.00073935
-0.000796506
0.000221135
4.23286e-06
-6.19896e-06
2.14311e-05
-6.73692e-05
5.41367e-05
-0.000184062
9.319e-05
-0.000329709
0.000127482
-0.000461211
0.00015298
-0.000561641
0.000170805
-0.000635885
0.000183867
-0.000695291
0.000194799
-0.000750282
-0.000806616
0.00020491
5.05024e-06
-1.12492e-05
2.43348e-05
-8.66537e-05
5.79208e-05
-0.000217648
9.44071e-05
-0.000366196
0.00012436
-0.000491164
0.000145596
-0.000582877
0.000160099
-0.000650388
0.000170811
-0.000706004
0.000179976
-0.000759446
-0.000815209
0.000188568
5.90002e-06
-1.71492e-05
2.70076e-05
-0.000107761
6.04959e-05
-0.000251136
9.38745e-05
-0.000399574
0.000119624
-0.000516914
0.000137079
-0.000600332
0.000148758
-0.000662067
0.000157462
-0.000714708
0.000165029
-0.000767013
-0.000822345
0.000172165
6.7585e-06
-2.39077e-05
2.93016e-05
-0.000130304
6.18265e-05
-0.000283661
9.18162e-05
-0.000429564
0.000113614
-0.000538712
0.000127747
-0.000614465
0.000137012
-0.000671331
0.000143954
-0.000721651
0.000150032
-0.000773091
-0.00082806
0.000155747
7.59789e-06
-3.15056e-05
3.10972e-05
-0.000153804
6.19745e-05
-0.000314538
8.84746e-05
-0.000456064
0.000106631
-0.000556868
0.000117857
-0.000625692
0.000125029
-0.000678503
0.000130384
-0.000727005
0.000135041
-0.000777748
-0.000832375
0.000139356
8.38776e-06
-3.98934e-05
3.23162e-05
-0.000177732
6.10532e-05
-0.000343275
8.40884e-05
-0.000479099
9.8928e-05
-0.000571708
0.000107608
-0.000634371
0.000112935
-0.00068383
0.000116818
-0.000730888
0.000120095
-0.000781025
-0.000835308
0.000123028
9.09666e-06
-4.899e-05
3.29247e-05
-0.00020156
5.91996e-05
-0.00036955
7.88786e-05
-0.000498778
9.07173e-05
-0.000583546
9.7151e-05
-0.000640805
0.000100819
-0.000687499
0.000103308
-0.000733376
0.000105229
-0.000782946
-0.000836869
0.00010679
9.6935e-06
-5.86835e-05
3.2928e-05
-0.000224795
5.65562e-05
-0.000393178
7.30407e-05
-0.000515263
8.21706e-05
-0.000592676
8.66041e-05
-0.000645238
8.87483e-05
-0.000689643
8.98904e-05
-0.000734518
9.04685e-05
-0.000783524
-0.000837047
9.06466e-05
1.01492e-05
-6.88327e-05
3.23613e-05
-0.000247007
5.32613e-05
-0.000414078
6.67427e-05
-0.000528744
7.34262e-05
-0.00059936
7.60552e-05
-0.000647867
7.67701e-05
-0.000690358
7.65942e-05
-0.000734343
7.58342e-05
-0.000782764
-0.000835826
7.46134e-05
1.04393e-05
-7.92721e-05
3.12762e-05
-0.000267844
4.94435e-05
-0.000432246
6.01258e-05
-0.000539427
6.45937e-05
-0.000603828
6.55715e-05
-0.000648845
6.49218e-05
-0.000689708
6.34404e-05
-0.000732861
6.1343e-05
-0.000780667
-0.00083319
5.87075e-05
1.05491e-05
-8.98211e-05
2.97483e-05
-0.000287043
4.52222e-05
-0.00044772
5.33071e-05
-0.000547511
5.57579e-05
-0.000606278
5.52046e-05
-0.000648292
5.32358e-05
-0.000687739
5.04512e-05
-0.000730077
4.70069e-05
-0.000777222
-0.000829124
4.294e-05
1.04746e-05
-0.000100296
2.78613e-05
-0.00030443
4.07056e-05
-0.000460564
4.63819e-05
-0.000553188
4.69838e-05
-0.00060688
4.49929e-05
-0.000646301
4.17419e-05
-0.000684488
3.76631e-05
-0.000725998
3.28351e-05
-0.000772394
-0.000823593
2.73042e-05
1.02209e-05
-0.000110517
2.56801e-05
-0.000319889
3.59856e-05
-0.000470869
3.94274e-05
-0.000556629
3.8321e-05
-0.000605774
3.4964e-05
-0.000642944
3.04609e-05
-0.000679985
2.51259e-05
-0.000720663
1.8874e-05
-0.000766142
-0.000816456
1.17374e-05
9.80034e-06
-0.000120317
2.32658e-05
-0.000333354
3.11392e-05
-0.000478743
3.25059e-05
-0.000557996
2.9808e-05
-0.000603076
2.51398e-05
-0.000638276
1.93978e-05
-0.000674243
1.284e-05
-0.000714105
5.35302e-06
-0.000758655
-0.000807405
-3.6981e-06
9.23038e-06
-0.000129547
2.06745e-05
-0.000344798
2.62308e-05
-0.000484299
2.56662e-05
-0.000557432
2.14745e-05
-0.000598885
1.554e-05
-0.000632341
8.55937e-06
-0.000667263
5.46916e-07
-0.000706093
-8.04662e-06
-0.000750062
-0.000797427
-1.8025e-05
8.53225e-06
-0.00013808
1.79575e-05
-0.000354224
2.13135e-05
-0.000487655
1.89452e-05
-0.000555063
1.33421e-05
-0.000593281
6.16268e-06
-0.000625162
-2.05128e-06
-0.000659049
-1.09941e-05
-0.00069715
-2.12337e-05
-0.000739822
-0.000786369
-3.22913e-05
7.72868e-06
-0.000145808
1.51613e-05
-0.000361656
1.6431e-05
-0.000488925
1.23701e-05
-0.000551002
5.41413e-06
-0.000586325
-2.96335e-06
-0.000616784
-1.22252e-05
-0.000649787
-2.24767e-05
-0.000686898
-3.39853e-05
-0.000728314
-0.000774039
-4.6315e-05
6.84214e-06
-0.00015265
1.23279e-05
-0.000367142
1.16188e-05
-0.000488216
5.96945e-06
-0.000545353
-2.29472e-06
-0.000578061
-1.17508e-05
-0.000607328
-2.21966e-05
-0.000639341
-3.36873e-05
-0.000675408
-4.63938e-05
-0.000715607
-0.000760418
-6.00152e-05
5.89455e-06
-0.000158545
9.49263e-06
-0.00037074
6.91004e-06
-0.000485633
-2.27766e-07
-0.000538215
-9.66153e-06
-0.000568627
-2.03039e-05
-0.000596686
-3.19027e-05
-0.000627742
-4.45838e-05
-0.000662726
-5.84803e-05
-0.000701711
-0.000745532
-7.33661e-05
4.9102e-06
-0.000163455
6.68436e-06
-0.000372514
2.3628e-06
-0.000481311
-6.21067e-06
-0.000529642
-1.68344e-05
-0.000558004
-2.85943e-05
-0.000584926
-4.13231e-05
-0.000615014
-5.51625e-05
-0.000648887
-7.02357e-05
-0.000686637
-0.00072946
-8.63083e-05
3.91721e-06
-0.000167372
3.94578e-06
-0.000372543
-2.11336e-06
-0.000475252
-1.20063e-05
-0.000519749
-2.37696e-05
-0.00054624
-3.66147e-05
-0.000572081
-5.0447e-05
-0.000601181
-6.54178e-05
-0.000633916
-8.16351e-05
-0.00067042
-0.000712288
-9.88066e-05
2.92778e-06
-0.0001703
1.40133e-06
-0.000371016
-6.42044e-06
-0.00046743
-1.76035e-05
-0.000508566
-3.04604e-05
-0.000533383
-4.43606e-05
-0.000558181
-5.92674e-05
-0.000586274
-7.53396e-05
-0.000617844
-9.26652e-05
-0.000653094
-0.000694012
-0.000110941
1.90317e-06
-0.000172203
-1.26243e-06
-0.000367851
-1.05365e-05
-0.000458156
-2.29808e-05
-0.000496122
-3.69031e-05
-0.000519461
-5.18298e-05
-0.000543254
-6.77838e-05
-0.00057032
-8.49256e-05
-0.000600702
-0.000103358
-0.000634662
-0.000674529
-0.000122841
8.49905e-07
-0.000173053
-4.1477e-06
-0.000362853
-1.45865e-05
-0.000447718
-2.81378e-05
-0.00048257
-4.30875e-05
-0.000504511
-5.90199e-05
-0.000527322
-7.60065e-05
-0.000553334
-9.41938e-05
-0.000582515
-0.000113676
-0.00061518
-0.00065393
-0.000134275
-1.30975e-07
-0.000172922
-6.7496e-06
-0.000356235
-1.84858e-05
-0.000435981
-3.3078e-05
-0.000467978
-4.90085e-05
-0.000488581
-6.59252e-05
-0.000510405
-8.39403e-05
-0.000535319
-0.000103169
-0.000563286
-0.00012341
-0.000594939
-0.000632391
-0.000144949
-1.23536e-06
-0.000171687
-9.2087e-06
-0.000348261
-2.21963e-05
-0.000422994
-3.77971e-05
-0.000452377
-5.46661e-05
-0.000471712
-7.25359e-05
-0.000492535
-9.15425e-05
-0.000516312
-0.000111807
-0.000543022
-0.000133356
-0.000573391
-0.00061254
-0.000153207
-2.24201e-06
-0.000169445
-1.15498e-05
-0.000338953
-2.57151e-05
-0.000408828
-4.22879e-05
-0.000435805
-6.00614e-05
-0.000453938
-7.88471e-05
-0.000473749
-9.87594e-05
-0.0004964
-0.000119714
-0.000522067
-0.000141301
-0.000551804
-0.000585422
-0.000168419
-3.19853e-06
-0.000166246
-1.37757e-05
-0.000328376
-2.90482e-05
-0.000393556
-4.65492e-05
-0.000418304
-6.51943e-05
-0.000435293
-8.48554e-05
-0.000454088
-0.000105594
-0.000475661
-0.000127293
-0.000500368
-0.000150255
-0.000528842
-0.000559131
-0.000176546
-4.11027e-06
-0.000162136
-1.58866e-05
-0.0003166
-3.21979e-05
-0.000377245
-5.05799e-05
-0.000399922
-7.00588e-05
-0.000415814
-9.05536e-05
-0.000433594
-0.00011214
-0.000454075
-0.000134905
-0.000477603
-0.000159382
-0.000504365
-0.000532663
-0.000185849
-4.97726e-06
-0.000157159
-1.78814e-05
-0.000303696
-3.51656e-05
-0.00035996
-5.43804e-05
-0.000380707
-7.46513e-05
-0.000395543
-9.59329e-05
-0.000412312
-0.000118315
-0.000431693
-0.000141952
-0.000453966
-0.000167265
-0.000479051
-0.000505668
-0.00019426
-5.79786e-06
-0.000151361
-1.97589e-05
-0.000289735
-3.79521e-05
-0.000341767
-5.79508e-05
-0.000360708
-7.8973e-05
-0.000374521
-0.000101012
-0.000390273
-0.000124191
-0.000408514
-0.000148709
-0.000429448
-0.000174856
-0.000452904
-0.00047801
-0.000202514
-6.56989e-06
-0.000144791
-2.15178e-05
-0.000274787
-4.05576e-05
-0.000322727
-6.12911e-05
-0.000339975
-8.30205e-05
-0.000352792
-0.000105771
-0.000367523
-0.000129684
-0.000384601
-0.000154957
-0.000404175
-0.000181816
-0.000426046
-0.000449618
-0.000210208
-7.29046e-06
-0.000137501
-2.31569e-05
-0.00025892
-4.2983e-05
-0.000302901
-6.44028e-05
-0.000318555
-8.67971e-05
-0.000330398
-0.000110221
-0.000344098
-0.00013483
-0.000359992
-0.000160815
-0.00037819
-0.000188362
-0.000398498
-0.000420524
-0.000217456
-7.95949e-06
-0.000129541
-2.46763e-05
-0.000242204
-4.52292e-05
-0.000282348
-6.7286e-05
-0.000296498
-9.02998e-05
-0.000307384
-0.00011435
-0.000320048
-0.000139598
-0.000334745
-0.000166228
-0.00035156
-0.000194417
-0.00037031
-0.000390757
-0.000224184
-8.58278e-06
-0.000120958
-2.6077e-05
-0.000224709
-4.72972e-05
-0.000261128
-6.99423e-05
-0.000273853
-9.35305e-05
-0.000283796
-0.000118161
-0.000295417
-0.000143999
-0.000308907
-0.000171227
-0.000324332
-0.000200013
-0.000341524
-0.000360366
-0.000230403
-9.15724e-06
-0.000111801
-2.73595e-05
-0.000206507
-4.9188e-05
-0.0002393
-7.23722e-05
-0.000250669
-9.6488e-05
-0.00025968
-0.000121651
-0.000270254
-0.000148029
-0.00028253
-0.0001758
-0.00029656
-0.000205135
-0.000312189
-0.000329401
-0.0002361
-9.68117e-06
-0.00010212
-2.85241e-05
-0.000187664
-5.09027e-05
-0.000216921
-7.45768e-05
-0.000226995
-9.91732e-05
-0.000235083
-0.000124821
-0.000244606
-0.000151688
-0.000255663
-0.000179954
-0.000268294
-0.000209785
-0.000282357
-0.000297913
-0.000241273
-1.01537e-05
-9.19663e-05
-2.95708e-05
-0.000168247
-5.24425e-05
-0.000194049
-7.6557e-05
-0.00020288
-0.000101587
-0.000210054
-0.00012767
-0.000218523
-0.000154977
-0.000228356
-0.000183686
-0.000239585
-0.000213963
-0.00025208
-0.000265958
-0.000245918
-1.05743e-05
-8.1392e-05
-3.05e-05
-0.000148321
-5.38081e-05
-0.000170741
-7.8314e-05
-0.000178374
-0.000103729
-0.000184639
-0.000130199
-0.000192052
-0.000157896
-0.00020066
-0.000186997
-0.000210484
-0.000217668
-0.000221409
-0.000233589
-0.000250036
-1.09427e-05
-7.04493e-05
-3.1312e-05
-0.000127952
-5.50007e-05
-0.000147053
-7.98487e-05
-0.000153526
-0.0001056
-0.000158888
-0.000132409
-0.000165243
-0.000160446
-0.000172623
-0.000189889
-0.000181041
-0.000220901
-0.000190398
-0.000200863
-0.000253627
-1.12586e-05
-5.91907e-05
-3.20071e-05
-0.000107203
-5.60211e-05
-0.000123039
-8.1162e-05
-0.000128385
-0.000107202
-0.000132847
-0.000134301
-0.000138144
-0.000162629
-0.000144295
-0.000192363
-0.000151307
-0.000223664
-0.000159097
-0.000167834
-0.000256693
-1.1522e-05
-4.76687e-05
-3.25857e-05
-8.61398e-05
-5.687e-05
-9.87542e-05
-8.22548e-05
-0.000103001
-0.000108536
-0.000106566
-0.000135876
-0.000110804
-0.000164446
-0.000115725
-0.000194421
-0.000121332
-0.00022596
-0.000127558
-0.000134558
-0.000259237
-1.17328e-05
-3.59359e-05
-3.30481e-05
-6.48245e-05
-5.75483e-05
-7.4254e-05
-8.31281e-05
-7.74208e-05
-0.000109601
-8.00929e-05
-0.000137134
-8.32712e-05
-0.000165897
-8.69616e-05
-0.000196064
-9.11658e-05
-0.000227791
-9.58306e-05
-0.000101085
-0.000261263
-1.18909e-05
-2.40451e-05
-3.33946e-05
-4.33208e-05
-5.80564e-05
-4.95922e-05
-8.37823e-05
-5.16949e-05
-0.0001104
-5.34752e-05
-0.000138077
-5.55941e-05
-0.000166984
-5.80543e-05
-0.000197294
-6.08561e-05
-0.000229161
-6.39637e-05
-6.74691e-05
-0.000262777
-1.19963e-05
-1.20488e-05
-3.36255e-05
-2.16916e-05
-5.83949e-05
-2.48228e-05
-8.42182e-05
-2.58716e-05
-0.000110932
-2.67614e-05
-0.000138705
-2.78208e-05
-0.000167709
-2.90509e-05
-0.000198113
-3.04515e-05
-0.000230072
-3.20045e-05
-3.37578e-05
-0.000263784
-1.2049e-05
1.81396e-10
-3.37409e-05
3.42965e-10
-5.8564e-05
3.98181e-10
-8.4436e-05
4.14187e-10
-0.000111198
4.25467e-10
-0.000139019
4.38501e-10
-0.000168071
4.53058e-10
-0.000198522
4.69037e-10
-0.000230527
4.86165e-10
5.04037e-10
-0.000264286
-1.2049e-05
1.20492e-05
-3.37409e-05
2.16922e-05
-5.8564e-05
2.48236e-05
-8.4436e-05
2.58724e-05
-0.000111198
2.67623e-05
-0.000139019
2.78217e-05
-0.00016807
2.90518e-05
-0.000198522
3.04524e-05
-0.000230527
3.20055e-05
3.37588e-05
-0.000264286
-1.19963e-05
2.40454e-05
-3.36255e-05
4.33214e-05
-5.83949e-05
4.9593e-05
-8.42182e-05
5.16957e-05
-0.000110932
5.34761e-05
-0.000138705
5.5595e-05
-0.000167709
5.80552e-05
-0.000198113
6.08571e-05
-0.000230072
6.39646e-05
6.74701e-05
-0.000263784
-1.18909e-05
3.59363e-05
-3.33946e-05
6.48252e-05
-5.80564e-05
7.42548e-05
-8.37823e-05
7.74216e-05
-0.0001104
8.00937e-05
-0.000138077
8.32721e-05
-0.000166984
8.69625e-05
-0.000197294
9.11667e-05
-0.000229161
9.58316e-05
0.000101086
-0.000262777
-1.17328e-05
4.76691e-05
-3.30481e-05
8.61405e-05
-5.75483e-05
9.8755e-05
-8.3128e-05
0.000103001
-0.000109601
0.000106567
-0.000137134
0.000110805
-0.000165897
0.000115725
-0.000196064
0.000121333
-0.000227791
0.000127559
0.000134559
-0.000261263
-1.1522e-05
5.91911e-05
-3.25857e-05
0.000107204
-5.687e-05
0.000123039
-8.22548e-05
0.000128386
-0.000108536
0.000132848
-0.000135876
0.000138145
-0.000164446
0.000144295
-0.000194421
0.000151308
-0.00022596
0.000159098
0.000167835
-0.000259237
-1.12586e-05
7.04497e-05
-3.20071e-05
0.000127953
-5.60211e-05
0.000147053
-8.1162e-05
0.000153527
-0.000107202
0.000158889
-0.000134301
0.000165244
-0.000162629
0.000172624
-0.000192363
0.000181042
-0.000223664
0.000190399
0.000200864
-0.000256693
-1.09427e-05
8.13923e-05
-3.1312e-05
0.000148322
-5.50007e-05
0.000170742
-7.98486e-05
0.000178375
-0.0001056
0.00018464
-0.000132409
0.000192053
-0.000160446
0.000200661
-0.000189889
0.000210485
-0.000220901
0.00022141
0.00023359
-0.000253627
-1.05743e-05
9.19666e-05
-3.05e-05
0.000168248
-5.38081e-05
0.00019405
-7.8314e-05
0.000202881
-0.000103729
0.000210055
-0.000130199
0.000218523
-0.000157896
0.000228357
-0.000186997
0.000239586
-0.000217668
0.000252081
0.000265959
-0.000250036
-1.01537e-05
0.00010212
-2.95708e-05
0.000187665
-5.24424e-05
0.000216922
-7.6557e-05
0.000226995
-0.000101586
0.000235084
-0.00012767
0.000244607
-0.000154976
0.000255664
-0.000183686
0.000268295
-0.000213963
0.000282358
0.000297914
-0.000245918
-9.68116e-06
0.000111801
-2.8524e-05
0.000206508
-5.09027e-05
0.0002393
-7.45767e-05
0.00025067
-9.91732e-05
0.000259681
-0.000124821
0.000270255
-0.000151688
0.000282531
-0.000179954
0.000296561
-0.000209785
0.00031219
0.000329402
-0.000241273
-9.15723e-06
0.000120959
-2.73595e-05
0.00022471
-4.91879e-05
0.000261129
-7.23721e-05
0.000273854
-9.64879e-05
0.000283796
-0.000121651
0.000295418
-0.000148028
0.000308908
-0.0001758
0.000324333
-0.000205135
0.000341525
0.000360367
-0.0002361
-8.58277e-06
0.000129541
-2.60769e-05
0.000242204
-4.72971e-05
0.000282349
-6.99422e-05
0.000296499
-9.35304e-05
0.000307385
-0.000118161
0.000320049
-0.000143999
0.000334746
-0.000171226
0.00035156
-0.000200013
0.000370311
0.000390758
-0.000230403
-7.95947e-06
0.000137501
-2.46762e-05
0.000258921
-4.52292e-05
0.000302902
-6.7286e-05
0.000318556
-9.02998e-05
0.000330398
-0.00011435
0.000344099
-0.000139598
0.000359993
-0.000166228
0.000378191
-0.000194417
0.000398499
0.000420525
-0.000224184
-7.29044e-06
0.000144791
-2.31569e-05
0.000274787
-4.2983e-05
0.000322728
-6.44027e-05
0.000339975
-8.6797e-05
0.000352793
-0.000110221
0.000367523
-0.00013483
0.000384602
-0.000160814
0.000404176
-0.000188362
0.000426047
0.000449619
-0.000217456
-6.56987e-06
0.000151361
-2.15177e-05
0.000289735
-4.05575e-05
0.000341768
-6.1291e-05
0.000360709
-8.30204e-05
0.000374522
-0.000105771
0.000390274
-0.000129684
0.000408515
-0.000154957
0.000429449
-0.000181816
0.000452905
0.000478011
-0.000210208
-5.79784e-06
0.000157159
-1.97588e-05
0.000303696
-3.7952e-05
0.000359961
-5.79507e-05
0.000380707
-7.89729e-05
0.000395544
-0.000101012
0.000412313
-0.000124191
0.000431694
-0.000148709
0.000453967
-0.000174856
0.000479052
0.000505669
-0.000202514
-4.97724e-06
0.000162136
-1.78814e-05
0.0003166
-3.51656e-05
0.000377245
-5.43803e-05
0.000399922
-7.46511e-05
0.000415815
-9.59328e-05
0.000433594
-0.000118315
0.000454076
-0.000141952
0.000477604
-0.000167265
0.000504366
0.000532664
-0.00019426
-4.11024e-06
0.000166247
-1.58865e-05
0.000328377
-3.21978e-05
0.000393556
-5.05798e-05
0.000418304
-7.00587e-05
0.000435294
-9.05535e-05
0.000454089
-0.00011214
0.000475662
-0.000134905
0.000500369
-0.000159382
0.000528843
0.000559131
-0.000185849
-3.1985e-06
0.000169445
-1.37756e-05
0.000338954
-2.90481e-05
0.000408829
-4.6549e-05
0.000435805
-6.51942e-05
0.000453939
-8.48552e-05
0.00047375
-0.000105594
0.000496401
-0.000127293
0.000522068
-0.000150255
0.000551804
0.000585423
-0.000176546
-2.24198e-06
0.000171687
-1.15497e-05
0.000348262
-2.5715e-05
0.000422994
-4.22878e-05
0.000452378
-6.00613e-05
0.000471713
-7.8847e-05
0.000492536
-9.87592e-05
0.000516313
-0.000119714
0.000543023
-0.000141301
0.000573391
0.000612541
-0.000168419
-1.23533e-06
0.000172922
-9.20862e-06
0.000356235
-2.21962e-05
0.000435982
-3.7797e-05
0.000467979
-5.4666e-05
0.000488582
-7.25357e-05
0.000510406
-9.15423e-05
0.000535319
-0.000111807
0.000563287
-0.000133355
0.00059494
0.000632392
-0.000153206
-1.30933e-07
0.000173053
-6.74952e-06
0.000362853
-1.84857e-05
0.000447718
-3.30778e-05
0.000482571
-4.90084e-05
0.000504512
-6.5925e-05
0.000527322
-8.39401e-05
0.000553335
-0.000103169
0.000582516
-0.000123409
0.000615181
0.000653931
-0.000144949
8.49939e-07
0.000172203
-4.14761e-06
0.000367851
-1.45864e-05
0.000458157
-2.81376e-05
0.000496122
-4.30873e-05
0.000519462
-5.90197e-05
0.000543255
-7.60063e-05
0.000570321
-9.41935e-05
0.000600703
-0.000113676
0.000634663
0.00067453
-0.000134275
1.90321e-06
0.0001703
-1.26232e-06
0.000371016
-1.05364e-05
0.000467431
-2.29807e-05
0.000508566
-3.69029e-05
0.000533384
-5.18296e-05
0.000558181
-6.77836e-05
0.000586275
-8.49254e-05
0.000617845
-0.000103358
0.000653095
0.000694013
-0.00012284
2.92781e-06
0.000167372
1.40141e-06
0.000372543
-6.4203e-06
0.000475253
-1.76033e-05
0.000519749
-3.04602e-05
0.000546241
-4.43604e-05
0.000572081
-5.92671e-05
0.000601182
-7.53393e-05
0.000633917
-9.26649e-05
0.000670421
0.000712289
-0.000110941
3.91725e-06
0.000163455
3.94587e-06
0.000372514
-2.11321e-06
0.000481312
-1.20061e-05
0.000529642
-2.37694e-05
0.000558004
-3.66144e-05
0.000584926
-5.04467e-05
0.000615014
-6.54175e-05
0.000648888
-8.16348e-05
0.000686638
0.00072946
-9.88063e-05
4.91024e-06
0.000158545
6.68446e-06
0.00037074
2.36295e-06
0.000485633
-6.21047e-06
0.000538216
-1.68342e-05
0.000568628
-2.8594e-05
0.000596686
-4.13228e-05
0.000627743
-5.51622e-05
0.000662727
-7.02354e-05
0.000701711
0.000745533
-8.63079e-05
5.89459e-06
0.00015265
9.49274e-06
0.000367142
6.91021e-06
0.000488216
-2.27554e-07
0.000545353
-9.66128e-06
0.000578062
-2.03037e-05
0.000607329
-3.19024e-05
0.000639342
-4.45835e-05
0.000675408
-5.848e-05
0.000715608
0.000760419
-7.33657e-05
6.84218e-06
0.000145808
1.23281e-05
0.000361656
1.1619e-05
0.000488925
5.96968e-06
0.000551003
-2.29446e-06
0.000586326
-1.17505e-05
0.000616785
-2.21963e-05
0.000649787
-3.3687e-05
0.000686899
-4.63934e-05
0.000728314
0.00077404
-6.00148e-05
7.72872e-06
0.000138079
1.51614e-05
0.000354223
1.64312e-05
0.000487655
1.23704e-05
0.000555064
5.41442e-06
0.000593282
-2.96304e-06
0.000625162
-1.22248e-05
0.000659049
-2.24763e-05
0.00069715
-3.3985e-05
0.000739823
0.00078637
-4.63145e-05
8.53229e-06
0.000129547
1.79576e-05
0.000344798
2.13137e-05
0.000484299
1.89455e-05
0.000557432
1.33424e-05
0.000598885
6.16302e-06
0.000632342
-2.05092e-06
0.000667263
-1.09937e-05
0.000706093
-2.12333e-05
0.000750062
0.000797427
-3.22909e-05
9.23042e-06
0.000120317
2.06747e-05
0.000333354
2.6231e-05
0.000478743
2.56664e-05
0.000557996
2.14749e-05
0.000603076
1.55403e-05
0.000638276
8.55977e-06
0.000674244
5.47376e-07
0.000714106
-8.04616e-06
0.000758656
0.000807406
-1.80245e-05
9.80038e-06
0.000110516
2.32659e-05
0.000319888
3.11394e-05
0.000470869
3.25061e-05
0.00055663
2.98083e-05
0.000605774
2.51402e-05
0.000642944
1.93982e-05
0.000679986
1.28404e-05
0.000720663
5.35348e-06
0.000766143
0.000816457
-3.69763e-06
1.0221e-05
0.000100295
2.56802e-05
0.000304429
3.59858e-05
0.000460564
3.94277e-05
0.000553188
3.83214e-05
0.000606881
3.49644e-05
0.000646301
3.04613e-05
0.000684489
2.51264e-05
0.000725998
1.88745e-05
0.000772395
0.000823593
1.1738e-05
1.04746e-05
8.98207e-05
2.78614e-05
0.000287042
4.07058e-05
0.000447719
4.63822e-05
0.000547511
4.69842e-05
0.000606279
4.49934e-05
0.000648292
4.17424e-05
0.00068774
3.76636e-05
0.000730077
3.28356e-05
0.000777223
0.000829124
2.73047e-05
1.05491e-05
7.92716e-05
2.97484e-05
0.000267843
4.52225e-05
0.000432245
5.33074e-05
0.000539426
5.57583e-05
0.000603828
5.5205e-05
0.000648845
5.32363e-05
0.000689709
5.04518e-05
0.000732862
4.70074e-05
0.000780667
0.000833191
4.29406e-05
1.04394e-05
6.88322e-05
3.12763e-05
0.000247006
4.94437e-05
0.000414078
6.01262e-05
0.000528744
6.45941e-05
0.00059936
6.55719e-05
0.000647868
6.49223e-05
0.000690358
6.3441e-05
0.000734343
6.13436e-05
0.000782765
0.000835826
5.87082e-05
1.01492e-05
5.8683e-05
3.23614e-05
0.000224794
5.32615e-05
0.000393177
6.6743e-05
0.000515262
7.34266e-05
0.000592676