/*--------------------------------*- C++ -*----------------------------------*\
  =========                 |
  \\      /  F ield         | OpenFOAM: The Open Source CFD Toolbox
   \\    /   O peration     | Website:  https://openfoam.org
    \\  /    A nd           | Version:  7
     \\/     M anipulation  |
\*---------------------------------------------------------------------------*/
FoamFile
{
    version     2.0;
    format      ascii;
    class       volVectorField;
    location    "20";
    object      U;
}
// * * * * * * * * * * * * * * * * * * * * * * * * * * * * * * * * * * * * * //

dimensions      [0 1 -1 0 0 0 0];

internalField   nonuniform List<vector> 
8500
(
(-0.00227969 0.00190743 -6.68064e-20)
(-0.0119286 0.00411523 -1.54309e-19)
(-0.0292629 0.00534091 -2.57126e-19)
(-0.0493364 0.00597038 2.53445e-19)
(-0.0709559 0.0062699 -2.3166e-19)
(-0.0934241 0.00644457 -1.23172e-19)
(-0.116579 0.00663414 2.10507e-19)
(-0.140668 0.00692381 2.61357e-19)
(-0.166056 0.00735825 -4.34155e-20)
(-0.193534 0.00800665 1.28064e-19)
(-0.00249582 0.00565747 3.52813e-20)
(-0.0122145 0.0122346 2.17219e-19)
(-0.0293141 0.0159063 -6.15025e-19)
(-0.0490303 0.0178016 5.52906e-19)
(-0.0702054 0.0187061 2.42727e-20)
(-0.0921437 0.019229 4.02023e-19)
(-0.114662 0.019788 -6.98355e-19)
(-0.137978 0.0206402 -1.02531e-18)
(-0.162395 0.0219215 -2.02263e-19)
(-0.188612 0.0238328 4.60133e-19)
(-0.00291412 0.00920791 8.06468e-20)
(-0.0127723 0.0200015 5.81168e-19)
(-0.029418 0.0260901 1.35423e-18)
(-0.0484369 0.0292629 -1.21537e-18)
(-0.0687403 0.0307842 -2.72975e-19)
(-0.0896376 0.0316476 -2.47725e-19)
(-0.110905 0.0325423 1.26024e-18)
(-0.132706 0.0339009 7.8543e-19)
(-0.155224 0.0359572 1.94859e-19)
(-0.178963 0.0390217 -1.42599e-18)
(-0.0035079 0.0124399 2.86023e-19)
(-0.0135754 0.0272001 -3.41258e-19)
(-0.0295777 0.035653 -2.52297e-18)
(-0.0475926 0.0401177 2.21043e-19)
(-0.066631 0.0422733 6.81873e-19)
(-0.086013 0.0434645 -5.28771e-19)
(-0.105459 0.0446408 -2.84736e-20)
(-0.125058 0.0464145 -2.15164e-19)
(-0.14484 0.0491292 4.9039e-19)
(-0.16496 0.0531664 1.4253e-18)
(-0.00424035 0.0152549 1.99208e-19)
(-0.0145863 0.0336426 -1.09579e-18)
(-0.029798 0.0443774 2.6062e-18)
(-0.0465506 0.0501447 -1.17415e-18)
(-0.0639797 0.0529539 -4.83181e-21)
(-0.0814254 0.0544553 1.60659e-18)
(-0.0985421 0.0558414 -7.37261e-19)
(-0.115329 0.0579063 8.77338e-20)
(-0.131673 0.0611236 -3.01722e-19)
(-0.14713 0.0658852 1.07675e-19)
(-0.00506808 0.0175802 2.37696e-18)
(-0.0157603 0.0391782 2.81703e-18)
(-0.0300859 0.0520761 -7.12926e-19)
(-0.0453782 0.0591434 1.3479e-18)
(-0.0609156 0.0626223 4.20351e-19)
(-0.0760711 0.0644114 -5.97646e-19)
(-0.0904295 0.065921 -2.28479e-19)
(-0.103887 0.068124 -1.00624e-18)
(-0.11626 0.0716539 2.15902e-19)
(-0.126124 0.076829 -1.3245e-18)
(-0.00594528 0.0193731 -2.29064e-18)
(-0.0170496 0.0437005 -1.46777e-18)
(-0.0304512 0.058599 1.18282e-18)
(-0.0441543 0.0669406 -2.02849e-18)
(-0.0575899 0.0710947 2.30127e-19)
(-0.0701798 0.0731432 2.35525e-18)
(-0.0814444 0.0746794 -4.21061e-19)
(-0.0911558 0.0768418 -1.91736e-19)
(-0.0992249 0.0804634 1.27505e-18)
(-0.102687 0.0856897 -2.98305e-19)
(-0.0068282 0.0206222 1.91794e-18)
(-0.0184078 0.0471519 -3.38536e-18)
(-0.0309069 0.0638399 -1.33119e-18)
(-0.0429658 0.0733952 1.54888e-18)
(-0.0541685 0.0782121 5.07769e-20)
(-0.064003 0.0804833 -4.41683e-18)
(-0.0719438 0.0819434 1.40316e-18)
(-0.0775903 0.0838673 9.33752e-19)
(-0.081245 0.0873198 -2.5229e-18)
(-0.0776457 0.0922354 1.36296e-18)
(-0.00767962 0.0213466 -1.07254e-18)
(-0.0197949 0.0495259 5.04073e-19)
(-0.03147 0.0677404 1.22841e-18)
(-0.0419038 0.0784043 -1.08599e-18)
(-0.0508235 0.0838441 -3.79584e-18)
(-0.057801 0.0862914 1.30462e-18)
(-0.062302 0.087572 -6.53797e-19)
(-0.063666 0.0890545 5.40711e-19)
(-0.0629652 0.0919598 4.35841e-18)
(-0.0519361 0.0964008 -1.97739e-18)
(-0.00847304 0.021594 1.68416e-18)
(-0.0211823 0.0508645 1.49602e-18)
(-0.0321623 0.0702926 -2.13245e-19)
(-0.0410586 0.0819071 5.41365e-18)
(-0.047723 0.0878944 2.28381e-18)
(-0.0518246 0.0904571 1.70787e-18)
(-0.0528805 0.0914563 1.14051e-18)
(-0.0498944 0.0923284 -3.13403e-18)
(-0.0448295 0.0939867 -1.45565e-18)
(-0.0265002 0.0981552 -2.41962e-18)
(-0.00919631 0.0214345 -1.59781e-19)
(-0.0225563 0.0512543 -2.35608e-18)
(-0.0330104 0.0715389 -1.67876e-18)
(-0.0405138 0.0838887 -2.67038e-18)
(-0.0450181 0.0903051 -2.10415e-18)
(-0.0462957 0.0929035 2.10666e-18)
(-0.0439643 0.0935044 -1.60004e-18)
(-0.0368513 0.0936926 1.40588e-18)
(-0.0273097 0.0935446 1.82588e-19)
(-0.00144595 0.0969383 6.35266e-19)
(-0.0098511 0.0209502 -4.61915e-18)
(-0.0239244 0.0508239 2.15586e-18)
(-0.0340438 0.0715683 1.5556e-18)
(-0.0403389 0.0843817 1.9188e-18)
(-0.0428273 0.0910617 -2.69651e-18)
(-0.0413962 0.0935965 -1.57331e-18)
(-0.0357327 0.0937374 2.27078e-18)
(-0.0246994 0.0931829 6.35164e-19)
(-0.0110618 0.0909501 1.45321e-18)
(0.0235043 0.09226 -1.96655e-18)
(-0.0104518 0.0202395 3.85423e-18)
(-0.0253091 0.0497286 1.52746e-18)
(-0.0352959 0.0705099 9.08537e-20)
(-0.0405779 0.0834655 -9.20419e-19)
(-0.0412091 0.0901975 -6.40941e-19)
(-0.0371862 0.0925577 1.24135e-18)
(-0.0282599 0.0922221 -1.34794e-18)
(-0.0133679 0.0909 -2.11926e-18)
(0.00407662 0.0862124 -4.12625e-18)
(0.0493504 0.0845589 3.00177e-18)
(-0.0110338 0.0194049 2.58428e-18)
(-0.0267498 0.0481337 -4.11494e-18)
(-0.0367942 0.0685261 -3.13631e-18)
(-0.0412379 0.0812632 1.34352e-18)
(-0.0401402 0.0877946 2.726e-18)
(-0.0335815 0.0898479 3.044e-18)
(-0.0213121 0.0890429 -1.62449e-18)
(-0.00246609 0.0871722 4.7595e-18)
(0.0191898 0.0794444 -1.42539e-18)
(0.0787986 0.0749875 -3.52401e-18)
(-0.0116429 0.0185402 -1.84588e-19)
(-0.0282982 0.046211 2.29416e-18)
(-0.0385495 0.0657997 -1.07705e-18)
(-0.0422694 0.077938 1.10711e-19)
(-0.0394811 0.0839884 1.13491e-18)
(-0.030292 0.0855876 -3.62545e-18)
(-0.0142616 0.0843801 3.21998e-18)
(0.00895528 0.0824014 -3.12934e-18)
(0.0367123 0.0709016 5.07494e-18)
(0.116425 0.0657334 1.87339e-18)
(-0.0123313 0.017729 -1.1886e-18)
(-0.0300055 0.0441232 4.42487e-18)
(-0.0405424 0.0625233 -1.09263e-18)
(-0.0435408 0.0736878 1.10478e-18)
(-0.0389321 0.0789702 1.26841e-18)
(-0.0267457 0.0799647 -3.75088e-19)
(-0.0059618 0.0785073 2.73598e-18)
(0.0225408 0.0769949 1.29154e-19)
(0.0610217 0.061099 -3.27192e-18)
(0.167527 0.0597227 4.44652e-18)
(-0.013154 0.0170405 -2.18791e-18)
(-0.0319052 0.0420074 -4.17873e-18)
(-0.0427024 0.0588891 3.59259e-18)
(-0.0448088 0.0687391 1.7788e-18)
(-0.0379851 0.0729903 -8.23095e-18)
(-0.022014 0.0732426 6.67029e-18)
(0.00535361 0.0718063 -6.02152e-18)
(0.0407291 0.0712199 8.48533e-20)
(0.0988719 0.0513429 -1.38296e-18)
(0.235064 0.0595377 -4.13502e-18)
(-0.0141592 0.0165159 1.87168e-18)
(-0.0340004 0.0399687 -2.38921e-19)
(-0.0448831 0.0550795 -8.83018e-19)
(-0.0456887 0.0633398 -1.0817e-19)
(-0.0358794 0.0663605 -4.98633e-19)
(-0.0147528 0.0657793 -2.13498e-18)
(0.0220383 0.0648399 9.23426e-19)
(0.0668467 0.0649661 -1.42544e-18)
(0.158644 0.0450223 4.18304e-19)
(0.315805 0.0664494 1.02815e-19)
(-0.015374 0.0161696 -3.81432e-18)
(-0.036248 0.038081 -2.5659e-19)
(-0.0468391 0.0512488 3.98685e-19)
(-0.0456272 0.057748 1.57901e-19)
(-0.0315718 0.059453 2.68577e-18)
(-0.00315802 0.058069 -7.76649e-18)
(0.0468367 0.0584097 5.22692e-18)
(0.105604 0.0578728 -3.9383e-18)
(0.247134 0.0472422 3.34266e-18)
(0.400054 0.0789753 3.78519e-18)
(-0.0167998 0.0159906 -4.52312e-19)
(-0.0385418 0.0363671 2.08124e-18)
(-0.0482176 0.0475137 -2.58509e-18)
(-0.043889 0.0522172 -8.03774e-19)
(-0.0237369 0.0526866 1.53594e-18)
(0.0150148 0.0507755 7.36847e-18)
(0.0825693 0.0534197 -1.48479e-18)
(0.163327 0.0506774 7.20681e-19)
(0.362309 0.0610795 -3.83831e-18)
(0.478143 0.0893005 1.7927e-18)
(-0.0184065 0.0159378 -1.36866e-18)
(-0.0407022 0.0347972 -1.04279e-18)
(-0.0485599 0.04395 2.50918e-19)
(-0.0395679 0.0469698 1.01074e-18)
(-0.0108061 0.046495 -2.96228e-18)
(0.0423523 0.0447037 -1.1968e-18)
(0.132158 0.0504888 -3.73196e-18)
(0.24666 0.0478591 3.91063e-18)
(0.488244 0.082186 4.12108e-18)
(0.552217 0.0848851 -1.80047e-18)
(-0.0201296 0.0159445 -6.3927e-19)
(-0.0424789 0.0332957 2.61553e-18)
(-0.0473112 0.0405779 -2.90779e-18)
(-0.0316247 0.0421742 -3.3105e-19)
(0.0089463 0.041279 -1.34708e-18)
(0.081484 0.0406515 2.93843e-18)
(0.198835 0.0501711 3.79004e-18)
(0.35696 0.0554735 -3.65225e-18)
(0.605063 0.0980128 3.9121e-18)
(0.724997 0.0989233 5.35023e-19)
(-0.0218747 0.0159271 -1.85907e-18)
(-0.0435576 0.0317489 -5.2679e-18)
(-0.0438409 0.0373647 5.1069e-18)
(-0.018937 0.03794 7.35058e-19)
(0.0373109 0.037379 1.07657e-18)
(0.134776 0.0393732 6.29476e-19)
(0.285352 0.0539563 2.88985e-18)
(0.484685 0.0721948 2.14265e-18)
(0.730793 0.115368 -7.6076e-18)
(0.887445 0.131228 -3.76891e-18)
(-0.0235265 0.015797 2.55851e-18)
(-0.043577 0.0300275 -6.22537e-19)
(-0.037457 0.0342454 -2.86854e-18)
(-0.000336445 0.0343346 5.5913e-19)
(0.0760741 0.0351059 8.96668e-19)
(0.204099 0.0416739 -6.38373e-18)
(0.391345 0.0637536 2.80117e-18)
(0.620003 0.0938882 -1.92196e-18)
(0.855733 0.138044 2.01384e-18)
(1.00542 0.157546 -7.07231e-19)
(-0.024959 0.015475 2.55339e-18)
(-0.0421474 0.0280136 5.6916e-18)
(-0.0274095 0.0311519 1.69119e-19)
(0.0253836 0.0314376 -7.83103e-19)
(0.126942 0.034861 3.83531e-20)
(0.290315 0.048475 7.33993e-20)
(0.5118 0.0800574 -4.27121e-18)
(0.752737 0.118431 5.26719e-19)
(0.964289 0.16085 5.39093e-18)
(1.09713 0.178868 2.49512e-18)
(-0.0260255 0.0148938 -4.36965e-21)
(-0.0388481 0.0256147 -1.14739e-18)
(-0.0129064 0.0280665 4.68328e-18)
(0.0594769 0.0294284 1.23462e-19)
(0.191365 0.0373238 -2.00467e-18)
(0.392177 0.0605883 5.41669e-18)
(0.63802 0.101439 1.19202e-18)
(0.872762 0.143483 7.93019e-20)
(1.05357 0.181625 -2.34856e-18)
(1.15984 0.196263 -3.14024e-18)
(-0.026555 0.0140105 3.22764e-18)
(-0.0332096 0.0228015 -8.95827e-19)
(0.00689674 0.0250719 -2.81858e-18)
(0.103227 0.0286771 1.84054e-19)
(0.270063 0.0435085 3.28965e-18)
(0.505298 0.0780573 -3.27397e-18)
(0.760233 0.125477 -1.84445e-18)
(0.974807 0.167193 -4.20581e-19)
(1.12172 0.199588 -1.34825e-18)
(1.20221 0.209459 1.5333e-18)
(-0.0263796 0.0128295 -1.18992e-18)
(-0.0247036 0.0196206 -6.95253e-18)
(0.0329115 0.0223689 7.23286e-19)
(0.157836 0.0298452 1.87138e-18)
(0.362176 0.0544153 1.21714e-18)
(0.622595 0.0997413 -4.29845e-18)
(0.87093 0.149965 3.8971e-18)
(1.05707 0.188597 -4.39654e-18)
(1.17164 0.214518 -6.59165e-19)
(1.22919 0.220089 7.73081e-19)
(-0.0253288 0.0113726 -1.29745e-18)
(-0.0127632 0.0161884 2.46968e-18)
(0.0660906 0.0203132 3.19136e-18)
(0.224102 0.0339151 -3.91079e-18)
(0.464497 0.0703542 2.22801e-18)
(0.736492 0.12382 3.36035e-18)
(0.965993 0.17344 9.95688e-19)
(1.12072 0.207365 2.74306e-18)
(1.20643 0.226931 1.95402e-18)
(1.24514 0.228571 -2.14209e-18)
(-0.0231975 0.00967999 -1.67314e-18)
(0.00319701 0.012709 -5.56463e-19)
(0.107348 0.0194462 -5.77451e-18)
(0.301855 0.0419687 -9.01342e-19)
(0.571735 0.0906035 -1.10404e-19)
(0.841108 0.148612 2.994e-19)
(1.04429 0.195153 -6.07577e-18)
(1.16812 0.22364 1.10792e-18)
(1.22952 0.237248 4.49412e-20)
(1.25378 0.235783 1.46592e-18)
(-0.0197602 0.00781963 -4.37048e-19)
(0.0237681 0.00946503 2.01231e-18)
(0.157409 0.0205239 2.81817e-18)
(0.389403 0.0546994 1.75169e-18)
(0.677968 0.113804 -5.21279e-19)
(0.933044 0.17297 -4.30676e-19)
(1.10656 0.214861 4.63205e-18)
(1.20216 0.237732 4.37149e-19)
(1.2439 0.246057 6.72881e-19)
(1.25733 0.242193 -8.96498e-19)
(-0.0147791 0.00588369 4.16231e-18)
(0.0495128 0.0068179 2.66149e-18)
(0.21656 0.0244738 -2.6754e-18)
(0.483467 0.0720273 -5.30261e-19)
(0.778233 0.138603 2.7869e-19)
(1.01103 0.196253 -1.01582e-18)
(1.15458 0.232622 -8.07123e-19)
(1.2256 0.250068 -1.76704e-18)
(1.25197 0.253811 -2.90324e-18)
(1.25765 0.248201 1.43926e-18)
(-0.00801354 0.00398485 5.19603e-19)
(0.0809148 0.00522043 -1.44932e-18)
(0.284341 0.0321984 3.40695e-18)
(0.579826 0.0932009 2.21167e-18)
(0.869247 0.163989 6.94277e-20)
(1.07528 0.218185 1.57622e-18)
(1.19047 0.248658 -3.81597e-19)
(1.24088 0.261064 -1.43207e-18)
(1.25558 0.260922 3.63084e-18)
(1.25576 0.254084 9.72803e-19)
(0.000765645 0.00225463 -3.43962e-18)
(0.118305 0.00522858 -9.99916e-19)
(0.359362 0.0442838 -8.9456e-19)
(0.674329 0.117226 -1.55621e-18)
(0.949317 0.189317 3.65933e-19)
(1.12682 0.238728 1.06687e-20)
(1.2164 0.26327 1.23075e-18)
(1.25 0.271112 -1.45661e-18)
(1.25603 0.267701 -2.17726e-18)
(1.2524 0.259999 -1.48115e-18)
(0.0117616 0.0008469 2.81284e-19)
(0.161763 0.00748714 1.62558e-18)
(0.439375 0.0608243 7.84107e-19)
(0.763658 0.143208 -2.43845e-18)
(1.01794 0.21422 -1.25677e-19)
(1.1671 0.257981 -1.05093e-18)
(1.2343 0.276776 2.78761e-20)
(1.25453 0.28054 5.03206e-19)
(1.25426 0.27438 -5.76714e-19)
(1.24797 0.266054 1.64176e-18)
(0.0251355 -5.23606e-05 6.66686e-19)
(0.211016 0.0126677 -1.60061e-18)
(0.52162 0.0814857 -3.746e-18)
(0.845585 0.170466 3.43324e-18)
(1.07537 0.238516 -2.56754e-19)
(1.19768 0.27612 7.55827e-19)
(1.24584 0.289478 -1.09934e-19)
(1.25565 0.289614 7.47745e-19)
(1.25086 0.281121 -5.00961e-20)
(1.24269 0.272285 -1.27588e-18)
(0.0409909 -0.000214914 -1.37047e-18)
(0.265371 0.0213643 2.09494e-18)
(0.603291 0.105709 1.70749e-18)
(0.918852 0.198526 -2.45895e-18)
(1.12235 0.262144 -4.079e-19)
(1.22007 0.29335 1.53833e-19)
(1.25237 0.301641 1.57432e-18)
(1.2542 0.298537 8.4542e-20)
(1.24622 0.288024 3.20082e-19)
(1.2367 0.278706 -6.92131e-19)
(0.0593566 0.000633173 1.04093e-18)
(0.323724 0.0339942 -9.19637e-19)
(0.681917 0.132883 -7.84306e-19)
(0.982925 0.227062 1.32675e-18)
(1.15982 0.285119 4.5376e-19)
(1.2356 0.309875 3.44881e-19)
(1.25494 0.313481 -1.60335e-18)
(1.25077 0.307449 -5.59715e-19)
(1.24055 0.295141 -5.10313e-19)
(1.23003 0.28529 2.27393e-19)
(0.080166 0.00279857 -3.13497e-19)
(0.384646 0.0507455 -2.90908e-19)
(0.75558 0.162435 1.48646e-18)
(1.03775 0.255841 -5.3683e-19)
(1.1888 0.307498 -2.37132e-19)
(1.24541 0.325882 -1.54924e-19)
(1.25436 0.32516 3.89403e-19)
(1.24573 0.316438 6.80989e-19)
(1.23397 0.302485 -2.06965e-20)
(1.22271 0.292001 2.58168e-19)
(0.103243 0.00658907 -9.68312e-20)
(0.446518 0.0715796 3.81664e-19)
(0.822935 0.193866 -3.27778e-19)
(1.08357 0.284684 -2.01077e-19)
(1.21027 0.329348 1.56552e-19)
(1.25047 0.341522 1.09205e-19)
(1.25121 0.336787 -6.14256e-20)
(1.23934 0.325548 1.05983e-19)
(1.22654 0.310033 2.74687e-20)
(1.21475 0.298784 -8.29452e-20)
(0.128296 0.0122734 4.24389e-20)
(0.50769 0.0962676 3.18691e-19)
(0.883135 0.226747 -2.4849e-19)
(1.12084 0.313442 -2.37995e-19)
(1.22514 0.350728 1.57906e-19)
(1.25151 0.356908 1.02449e-19)
(1.24589 0.348425 -1.62399e-19)
(1.23174 0.334782 1.64722e-19)
(1.21828 0.317737 1.4796e-20)
(1.20614 0.305577 -7.95306e-20)
(0.154926 0.020048 1.65612e-19)
(0.56661 0.124434 -1.45764e-19)
(0.935721 0.260702 1.0549e-18)
(1.15009 0.34198 -4.60154e-19)
(1.23421 0.371675 -2.20028e-19)
(1.24914 0.372106 -2.4784e-19)
(1.23869 0.36009 5.07414e-19)
(1.22299 0.34411 3.41759e-19)
(1.20917 0.325529 2.76803e-19)
(1.19687 0.312324 1.54518e-19)
(0.182637 0.0300204 1.70595e-18)
(0.621924 0.155599 -9.13075e-19)
(0.980522 0.295381 -1.006e-18)
(1.17191 0.370174 1.34138e-18)
(1.23816 0.392199 6.95023e-19)
(1.24379 0.387141 -4.64595e-20)
(1.22979 0.371763 -8.49074e-19)
(1.21313 0.353475 -6.14542e-19)
(1.19921 0.333325 -6.51421e-19)
(1.18692 0.318963 3.92491e-19)
(0.210857 0.0422119 -2.3199e-18)
(0.672532 0.189209 2.1309e-18)
(1.01757 0.330446 2.39694e-18)
(1.18687 0.397904 -2.29075e-18)
(1.23757 0.412286 -7.75447e-19)
(1.2358 0.402001 4.94084e-19)
(1.21931 0.383393 8.9492e-19)
(1.20215 0.362801 1.41257e-19)
(1.18836 0.341026 -2.67648e-20)
(1.17626 0.325419 -5.3975e-19)
(0.238964 0.0565684 -3.45271e-19)
(0.717616 0.224675 -3.02758e-18)
(1.04702 0.365553 -3.14727e-18)
(1.19554 0.425046 3.41842e-18)
(1.23292 0.431892 -3.82464e-19)
(1.22543 0.416636 6.91986e-19)
(1.20731 0.394907 1.36427e-19)
(1.19004 0.372001 -3.84801e-19)
(1.17656 0.348533 2.04825e-19)
(1.16479 0.331612 -2.39427e-20)
(0.26632 0.0729664 6.97249e-19)
(0.756637 0.261416 1.89833e-18)
(1.0691 0.400361 1.03374e-18)
(1.19844 0.451466 -7.93995e-19)
(1.22461 0.450948 -1.20976e-18)
(1.21285 0.430969 -1.10544e-18)
(1.19384 0.406212 -2.22354e-19)
(1.17679 0.380991 5.87684e-19)
(1.16378 0.355774 -1.2236e-19)
(1.15232 0.33747 2.95104e-19)
(0.29231 0.0912151 -2.69065e-18)
(0.78928 0.298875 -2.40999e-18)
(1.08413 0.43454 -3.674e-19)
(1.19603 0.47701 -4.05782e-19)
(1.21298 0.469358 -8.93279e-19)
(1.19822 0.444895 5.35496e-19)
(1.17892 0.417196 -9.77272e-20)
(1.1624 0.389679 -9.39369e-19)
(1.15002 0.362745 -1.57235e-19)
(1.13868 0.342957 -1.26414e-18)
(0.316363 0.111065 6.11071e-19)
(0.815394 0.336521 2.04013e-18)
(1.09246 0.467765 1.69791e-18)
(1.18875 0.50151 1.79732e-18)
(1.1983 0.487005 3.51202e-20)
(1.18162 0.458293 1.50352e-18)
(1.16255 0.427729 -9.11473e-19)
(1.14686 0.397939 4.93684e-19)
(1.13535 0.369477 1.07006e-18)
(1.12399 0.34806 6.21898e-19)
(0.337978 0.132215 1.76759e-18)
(0.834965 0.373848 3.84289e-18)
(1.09447 0.499722 -4.74311e-19)
(1.177 0.524787 -2.27642e-18)
(1.1808 0.503755 9.98271e-19)
(1.16314 0.471032 -1.01816e-18)
(1.14478 0.43768 -7.91741e-19)
(1.1302 0.405612 -5.83768e-19)
(1.1197 0.375865 -1.02254e-18)
(1.10872 0.352692 3.9746e-19)
(0.356739 0.154326 8.44095e-19)
(0.848086 0.410377 6.19203e-19)
(1.09055 0.530107 4.55558e-18)
(1.16113 0.546655 8.04223e-19)
(1.16069 0.519458 -6.89799e-19)
(1.14289 0.482963 -3.47862e-19)
(1.12569 0.446922 2.12289e-18)
(1.1126 0.412652 -5.67718e-20)
(1.10293 0.38162 8.17368e-19)
(1.093 0.356855 -1.05701e-19)
(0.372321 0.177033 1.71201e-19)
(0.854941 0.445658 -3.93594e-18)
(1.08113 0.558636 -5.35383e-18)
(1.14151 0.566926 1.50217e-19)
(1.13815 0.533945 9.62687e-19)
(1.12099 0.493922 -1.31756e-18)
(1.10542 0.455283 -3.10717e-18)
(1.09394 0.418988 9.13784e-19)
(1.08515 0.386677 -4.94383e-20)
(1.07672 0.360313 3.80277e-19)
(0.384493 0.199951 -1.47994e-18)
(0.855783 0.479264 3.61542e-18)
(1.06664 0.585042 3.22407e-18)
(1.11844 0.585415 -1.06597e-18)
(1.11339 0.547038 -1.02169e-18)
(1.09759 0.503727 3.10827e-18)
(1.08395 0.46266 -6.40202e-19)
(1.0742 0.424481 1.08482e-18)
(1.06656 0.390923 4.48237e-19)
(1.05987 0.363018 -3.22297e-19)
(0.393117 0.222694 -3.3905e-18)
(0.850932 0.510795 -5.68308e-18)
(1.04749 0.60907 -1.05361e-18)
(1.09225 0.601935 2.01994e-18)
(1.08664 0.558575 1.09377e-18)
(1.07273 0.512207 -2.74385e-18)
(1.06132 0.468907 1.84997e-18)
(1.05347 0.429021 -1.16707e-18)
(1.04723 0.394254 -2.17375e-19)
(1.04248 0.364863 3.24733e-20)
(0.398157 0.244882 2.59355e-18)
(0.84078 0.539898 1.7027e-19)
(1.02405 0.630455 -5.30399e-19)
(1.06323 0.616274 -2.00445e-18)
(1.05806 0.568388 1.20115e-18)
(1.04651 0.519216 -3.91981e-19)
(1.03762 0.473894 -7.66798e-19)
(1.03184 0.432483 1.99425e-19)
(1.02722 0.396554 -1.22797e-19)
(1.02461 0.365781 6.38712e-21)
(0.399689 0.266152 2.04243e-19)
(0.825783 0.566323 -9.50741e-19)
(0.996549 0.648899 2.22754e-18)
(1.0317 0.628228 9.8796e-19)
(1.02784 0.576296 -1.26933e-18)
(1.01908 0.524622 1.60389e-18)
(1.01295 0.477503 1.52202e-19)
(1.00941 0.434761 2.08587e-19)
(1.0066 0.39771 2.01751e-19)
(1.00631 0.365673 3.30788e-20)
(0.397896 0.286125 2.06029e-18)
(0.806354 0.589925 3.36894e-18)
(0.965308 0.664194 -2.49447e-19)
(0.997983 0.637521 -4.31723e-19)
(0.996163 0.582142 -5.01533e-19)
(0.990584 0.528293 -2.32925e-19)
(0.987422 0.479626 2.08626e-19)
(0.986252 0.435759 9.73467e-20)
(0.985453 0.397633 -1.62539e-19)
(0.98767 0.364513 -3.42389e-19)
(0.392985 0.304376 4.4045e-19)
(0.782678 0.610377 6.10941e-19)
(0.930982 0.676411 -2.77449e-18)
(0.962445 0.643942 1.14916e-18)
(0.963261 0.585755 1.65173e-19)
(0.961178 0.530105 -3.18651e-19)
(0.961152 0.480159 1.54031e-19)
(0.962469 0.435384 1.07413e-19)
(0.963955 0.396257 -3.56004e-19)
(0.969087 0.362306 4.30998e-19)
(0.385057 0.320599 -1.79188e-18)
(0.754839 0.627049 -1.25283e-18)
(0.894223 0.685484 7.93179e-19)
(0.925425 0.647492 1.30264e-19)
(0.929356 0.587 -4.59514e-19)
(0.931009 0.52994 3.2204e-19)
(0.934228 0.478997 2.35291e-19)
(0.93817 0.433516 -9.03645e-19)
(0.942465 0.393494 2.08888e-18)
(0.951285 0.35907 8.03306e-19)
(0.374197 0.334684 -1.3812e-18)
(0.72338 0.639627 3.13604e-18)
(0.855409 0.691057 -1.72144e-18)
(0.887189 0.648189 -2.78862e-19)
(0.89466 0.585804 -1.39004e-19)
(0.900225 0.527706 -2.0634e-19)
(0.906756 0.476047 -7.99021e-19)
(0.913546 0.430007 4.12963e-19)
(0.921425 0.389122 -9.9798e-20)
(0.934518 0.354832 -3.65892e-19)
(0.360578 0.346443 -1.06654e-19)
(0.689176 0.648218 -9.57047e-19)
(0.814915 0.692903 3.51185e-19)
(0.848022 0.645926 -1.0754e-19)
(0.859388 0.582103 5.63408e-19)
(0.868985 0.523339 4.80968e-19)
(0.878906 0.471262 1.49156e-18)
(0.888882 0.424803 -1.09656e-18)
(0.90102 0.382806 -2.03889e-18)
(0.917432 0.34898 8.54371e-19)
(0.344439 0.355447 1.69817e-20)
(0.652708 0.652588 -2.21865e-19)
(0.773099 0.690937 9.14545e-20)
(0.8082 0.640615 7.44102e-19)
(0.823753 0.575839 -1.21873e-18)
(0.837475 0.516783 -1.9165e-18)
(0.850923 0.464615 -5.6769e-19)
(0.864453 0.418079 -1.2952e-19)
(0.881018 0.374926 2.7047e-18)
(0.897653 0.337208 -5.83539e-19)
(0.326263 0.361615 -2.03733e-19)
(0.614497 0.652685 -4.14657e-19)
(0.730372 0.685106 1.69658e-20)
(0.768017 0.632183 6.14827e-20)
(0.787978 0.566958 -8.19949e-19)
(0.805909 0.507977 3.61524e-18)
(0.823074 0.456005 -2.47876e-18)
(0.840356 0.409768 2.91567e-18)
(0.860133 0.36747 -2.02444e-18)
(0.875404 0.332124 -2.66771e-18)
(0.30642 0.364825 9.02295e-21)
(0.575004 0.648426 -1.03229e-19)
(0.687131 0.67539 3.93381e-20)
(0.727771 0.620593 1.31239e-18)
(0.752296 0.555427 -5.1924e-19)
(0.7745 0.496888 7.87706e-19)
(0.795503 0.44537 1.4549e-18)
(0.816492 0.399436 -7.59445e-19)
(0.83911 0.357108 -1.93021e-18)
(0.855354 0.321156 2.66521e-18)
(0.285275 0.364998 9.52823e-19)
(0.534707 0.639803 1.36308e-18)
(0.643776 0.661798 -1.37185e-18)
(0.68776 0.605836 -1.22748e-18)
(0.716947 0.541231 4.20541e-18)
(0.743455 0.48352 -4.21388e-18)
(0.768305 0.432803 4.98415e-18)
(0.792747 0.387669 -1.23514e-18)
(0.817684 0.346442 1.311e-18)
(0.83531 0.311679 2.44318e-18)
(0.26319 0.362093 2.2204e-18)
(0.49407 0.626836 -1.30849e-18)
(0.600693 0.64437 -8.13153e-19)
(0.648284 0.587929 -4.63947e-19)
(0.682174 0.524379 4.94044e-19)
(0.712977 0.467861 -1.08769e-18)
(0.741647 0.41821 -1.49214e-18)
(0.769423 0.37399 -3.19166e-18)
(0.796734 0.333694 3.14079e-18)
(0.81632 0.299874 -1.01936e-18)
(0.240519 0.356108 7.36962e-19)
(0.453542 0.609586 -3.34036e-19)
(0.55826 0.623168 -1.15939e-18)
(0.609636 0.566918 1.49016e-18)
(0.648213 0.504905 -2.65021e-18)
(0.683248 0.449962 6.98555e-18)
(0.715636 0.401729 -3.68693e-18)
(0.746565 0.358835 3.30057e-18)
(0.776178 0.319979 -6.0176e-18)
(0.79793 0.287391 -1.59575e-18)
(0.217609 0.347082 -7.26099e-19)
(0.413557 0.588149 2.68933e-18)
(0.516842 0.598287 6.42878e-19)
(0.572101 0.54287 -1.38062e-18)
(0.615299 0.48286 -2.35063e-18)
(0.654468 0.429853 -1.76677e-18)
(0.690464 0.383329 1.17051e-18)
(0.724432 0.341987 -2.97261e-18)
(0.756343 0.304704 1.45298e-18)
(0.780363 0.273458 1.98409e-19)
(0.194788 0.335087 -4.34387e-18)
(0.37453 0.562659 -1.07334e-18)
(0.47679 0.569843 -2.97126e-19)
(0.535958 0.515879 3.7511e-18)
(0.583657 0.458323 -3.50067e-18)
(0.626818 0.407614 8.08211e-19)
(0.666277 0.363126 -4.21618e-19)
(0.70314 0.323652 2.89782e-18)
(0.737294 0.288201 8.7882e-19)
(0.763624 0.258415 -1.81495e-18)
(0.172369 0.320219 3.8884e-18)
(0.336859 0.533287 -2.24212e-18)
(0.438443 0.537985 1.09933e-19)
(0.501472 0.486059 -3.40864e-18)
(0.553507 0.431387 4.11098e-18)
(0.600488 0.38332 -1.80683e-18)
(0.643249 0.341161 1.07354e-18)
(0.682861 0.303805 7.4332e-20)
(0.719183 0.270369 -3.56054e-19)
(0.747814 0.242195 -1.09272e-18)
(0.150648 0.30259 -1.59657e-18)
(0.300922 0.500232 4.62167e-18)
(0.402117 0.502887 2.61384e-18)
(0.468898 0.45355 4.23571e-18)
(0.525059 0.40217 -9.70088e-19)
(0.575655 0.357076 3.87897e-19)
(0.62153 0.317538 2.94694e-18)
(0.663727 0.282557 -2.96272e-18)
(0.702118 0.251325 6.53155e-20)
(0.733007 0.224903 -1.30729e-18)
(0.129914 0.282342 -3.70007e-18)
(0.267072 0.463717 -2.78867e-19)
(0.368106 0.464747 -1.53389e-18)
(0.438475 0.41851 -6.81188e-18)
(0.498512 0.370804 -6.51016e-18)
(0.55249 0.328994 1.07839e-18)
(0.601272 0.292349 -3.57429e-18)
(0.645872 0.259969 6.25244e-18)
(0.686213 0.231116 8.98707e-19)
(0.719283 0.206601 1.88185e-18)
(0.110437 0.259646 5.4668e-18)
(0.235636 0.423991 -4.43995e-18)
(0.336685 0.423789 -2.24722e-18)
(0.410424 0.38112 3.93794e-18)
(0.474053 0.33744 4.42893e-18)
(0.531153 0.299206 -1.45374e-18)
(0.582613 0.265705 1.74797e-18)
(0.629418 0.236141 -2.27549e-18)
(0.671571 0.20983 -2.91112e-18)
(0.706717 0.187375 1.1121e-18)
(0.0924664 0.234694 -3.10571e-18)
(0.206913 0.381326 1.30481e-18)
(0.308104 0.380251 4.76022e-18)
(0.384952 0.341576 -2.11116e-18)
(0.451854 0.302246 1.6393e-19)
(0.511792 0.267854 5.8565e-18)
(0.565682 0.237728 -5.62073e-19)
(0.61448 0.211172 -4.48538e-18)
(0.658289 0.187558 5.10684e-18)
(0.695376 0.167312 -1.87686e-18)
(0.0762288 0.207702 4.3313e-18)
(0.181174 0.336015 4.74519e-19)
(0.282587 0.334395 3.07674e-19)
(0.362243 0.300093 4.29829e-18)
(0.432073 0.265403 -5.68023e-19)
(0.494543 0.235092 -3.67474e-18)
(0.550597 0.208549 1.78448e-18)
(0.601163 0.185174 3.26748e-19)
(0.646459 0.164397 -2.1226e-18)
(0.68532 0.146506 3.6981e-19)
(0.061926 0.178904 -2.70088e-18)
(0.158658 0.288372 -5.15149e-18)
(0.260336 0.286495 1.17967e-18)
(0.342463 0.256898 -2.28228e-18)
(0.414849 0.227103 -1.36382e-18)
(0.479526 0.201086 3.27475e-18)
(0.537462 0.178309 -7.86439e-19)
(0.589562 0.158267 7.20488e-19)
(0.636159 0.140455 -8.7212e-19)
(0.676603 0.125054 1.73432e-18)
(0.0497335 0.148548 9.80495e-19)
(0.139572 0.238724 3.46972e-18)
(0.241524 0.23684 -4.77716e-18)
(0.325756 0.212233 2.23014e-18)
(0.400305 0.187552 -1.00629e-18)
(0.466846 0.166011 -2.80527e-18)
(0.526371 0.147157 2.27232e-18)
(0.57976 0.130578 4.72908e-19)
(0.627461 0.115843 -7.2375e-20)
(0.669271 0.103057 -2.01543e-18)
(0.0397994 0.1169 3.23569e-19)
(0.124091 0.187418 1.12135e-18)
(0.226296 0.185734 4.32401e-18)
(0.312242 0.16635 -8.1925e-19)
(0.388544 0.146964 -6.39e-19)
(0.456593 0.130051 2.34201e-19)
(0.517401 0.11525 1.03246e-19)
(0.57183 0.102242 8.4251e-19)
(0.620427 0.0906783 -1.10093e-18)
(0.663361 0.0806137 -7.01531e-19)
(0.0322433 0.0842343 -8.05449e-19)
(0.112357 0.134808 -1.36355e-18)
(0.214772 0.133488 -3.36308e-18)
(0.30202 0.119511 1.67289e-18)
(0.379649 0.105561 1.34961e-18)
(0.44884 0.0933947 5.69011e-20)
(0.510617 0.0827493 -2.21753e-18)
(0.565829 0.0733968 -9.78346e-19)
(0.615107 0.0650808 7.70763e-19)
(0.658903 0.0578258 8.26492e-19)
(0.0271554 0.0508354 -1.52459e-19)
(0.104474 0.0812614 -1.6462e-19)
(0.207039 0.080422 6.3873e-19)
(0.295164 0.0719829 -4.26943e-19)
(0.373683 0.063572 -3.73056e-19)
(0.44364 0.0562378 -2.50659e-19)
(0.506068 0.0498211 4.56421e-19)
(0.561804 0.0441851 1.7275e-18)
(0.611538 0.0391728 2.48749e-19)
(0.655919 0.0347928 -4.41593e-19)
(0.0245963 0.0169941 -1.80512e-20)
(0.100515 0.0271495 4.40676e-19)
(0.203158 0.0268617 3.34834e-19)
(0.291723 0.0240399 -2.57825e-19)
(0.37069 0.0212294 3.31099e-19)
(0.441031 0.018779 1.27354e-19)
(0.503784 0.0166352 7.31936e-21)
(0.559783 0.0147525 -5.66059e-19)
(0.609747 0.0130779 1.46948e-19)
(0.654424 0.0116134 -3.41508e-19)
(0.0245963 -0.0169951 1.00328e-19)
(0.100515 -0.0271513 3.31227e-19)
(0.203158 -0.0268637 3.54964e-19)
(0.291723 -0.0240418 -2.08215e-19)
(0.37069 -0.0212312 3.39214e-19)
(0.441031 -0.0187807 -4.9731e-21)
(0.503785 -0.0166368 1.36593e-19)
(0.559783 -0.014754 -6.3022e-19)
(0.609747 -0.0130794 1.29064e-19)
(0.654424 -0.0116148 -2.95877e-19)
(0.0271555 -0.0508364 -7.8324e-20)
(0.104474 -0.0812632 -4.60792e-19)
(0.207039 -0.0804239 1.24558e-18)
(0.295164 -0.0719848 -1.08043e-18)
(0.373683 -0.0635738 -5.04092e-20)
(0.44364 -0.0562395 -7.0394e-19)
(0.506068 -0.0498227 1.13505e-18)
(0.561804 -0.0441867 1.53304e-18)
(0.611538 -0.0391743 2.72549e-19)
(0.65592 -0.0347943 -5.87572e-19)
(0.0322434 -0.0842353 -1.63891e-19)
(0.112357 -0.13481 -1.19002e-18)
(0.214772 -0.13349 -2.73534e-18)
(0.30202 -0.119513 2.33627e-18)
(0.379649 -0.105563 4.76542e-19)
(0.44884 -0.0933964 4.17768e-19)
(0.510618 -0.0827509 -2.04308e-18)
(0.565829 -0.0733984 -1.19592e-18)
(0.615107 -0.0650823 -2.64253e-19)
(0.658903 -0.0578273 1.8152e-18)
(0.0397996 -0.116901 -5.76432e-19)
(0.124091 -0.187419 7.15166e-19)
(0.226297 -0.185736 4.96195e-18)
(0.312242 -0.166352 -4.39721e-19)
(0.388544 -0.146965 -1.24423e-18)
(0.456594 -0.130053 8.85115e-19)
(0.517402 -0.115252 5.90259e-20)
(0.57183 -0.102244 3.07493e-19)
(0.620427 -0.0906798 -6.68794e-19)
(0.663361 -0.0806152 -1.77046e-18)
(0.0497337 -0.148549 -3.86669e-19)
(0.139572 -0.238726 2.09615e-18)
(0.241524 -0.236842 -4.99795e-18)
(0.325756 -0.212235 2.14169e-18)
(0.400305 -0.187553 1.99001e-20)
(0.466846 -0.166013 -2.65865e-18)
(0.526371 -0.147159 1.16408e-18)
(0.57976 -0.13058 -1.06888e-19)
(0.627461 -0.115844 4.36459e-19)
(0.669271 -0.103058 -1.33166e-19)
(0.0619262 -0.178905 -4.45129e-18)
(0.158658 -0.288373 -5.27151e-18)
(0.260337 -0.286497 1.36585e-18)
(0.342464 -0.2569 -2.45166e-18)
(0.41485 -0.227105 -6.87983e-19)
(0.479526 -0.201088 1.01282e-18)
(0.537462 -0.178311 3.73852e-19)
(0.589562 -0.158268 1.37706e-18)
(0.636159 -0.140456 -2.94952e-19)
(0.676603 -0.125056 1.58686e-18)
(0.076229 -0.207703 4.25846e-18)
(0.181174 -0.336017 2.71288e-18)
(0.282588 -0.334397 -2.03621e-18)
(0.362244 -0.300094 3.3871e-18)
(0.432074 -0.265404 -2.88145e-19)
(0.494543 -0.235093 -3.5838e-18)
(0.550597 -0.20855 6.24395e-19)
(0.601163 -0.185175 2.47651e-19)
(0.646459 -0.164398 -1.52652e-18)
(0.68532 -0.146507 3.70453e-19)
(0.0924667 -0.234695 -3.1636e-18)
(0.206914 -0.381328 5.6237e-18)
(0.308104 -0.380253 2.18921e-18)
(0.384953 -0.341578 -2.66602e-18)
(0.451855 -0.302248 1.90412e-20)
(0.511792 -0.267855 6.61089e-18)
(0.565682 -0.237729 -1.98975e-18)
(0.61448 -0.211173 -1.27704e-18)
(0.65829 -0.187559 3.05671e-18)
(0.695376 -0.167313 -1.55345e-18)
(0.110437 -0.259646 1.76108e-18)
(0.235636 -0.423993 -8.51392e-19)
(0.336686 -0.423791 -1.98496e-18)
(0.410425 -0.381122 1.48601e-18)
(0.474053 -0.337442 5.61325e-18)
(0.531153 -0.299208 -1.94818e-18)
(0.582613 -0.265707 8.72522e-19)
(0.629418 -0.236142 -6.20277e-19)