/*--------------------------------*- C++ -*----------------------------------*\
  =========                 |
  \\      /  F ield         | OpenFOAM: The Open Source CFD Toolbox
   \\    /   O peration     | Website:  https://openfoam.org
    \\  /    A nd           | Version:  7
     \\/     M anipulation  |
\*---------------------------------------------------------------------------*/
FoamFile
{
    version     2.0;
    format      ascii;
    class       surfaceScalarField;
    location    "0.9999";
    object      phi;
}
// * * * * * * * * * * * * * * * * * * * * * * * * * * * * * * * * * * * * * //

dimensions      [0 3 -1 0 0 0 0];

internalField   nonuniform List<scalar> 
37105
(
-1.11245e-05
1.11245e-05
2.35721e-12
-2.41975e-05
1.3073e-05
-7.57701e-13
-3.44824e-05
1.0285e-05
-7.16507e-12
-4.06199e-05
6.13753e-06
-1.56002e-11
-4.17306e-05
1.1107e-06
-2.42859e-11
-3.7414e-05
-4.31657e-06
-3.06095e-11
-2.78728e-05
-9.54119e-06
-3.40075e-11
-1.44365e-05
-1.34363e-05
-3.27016e-11
4.08745e-06
-1.85239e-05
-3.0366e-11
2.36821e-05
-1.95946e-05
-2.39177e-11
4.6108e-05
-2.24259e-05
-1.6724e-11
6.84597e-05
-2.23517e-05
-9.53513e-12
9.21142e-05
-2.36545e-05
-2.86185e-12
0.000115039
-2.29252e-05
2.45008e-12
-2.35435e-05
6.39151e-12
0.000138583
-1.10758e-05
2.22003e-05
-2.4103e-05
2.61002e-05
-3.43365e-05
2.05184e-05
-4.03881e-05
1.21892e-05
-4.13523e-05
2.07495e-06
-3.68232e-05
-8.84568e-06
-2.70781e-05
-1.92863e-05
-1.33812e-05
-2.71332e-05
5.25246e-06
-3.71576e-05
2.49296e-05
-3.92717e-05
4.72682e-05
-4.47645e-05
6.95161e-05
-4.45996e-05
9.3025e-05
-4.71634e-05
0.000115797
-4.56976e-05
-4.68957e-05
0.00013915
-1.0979e-05
3.31794e-05
-2.3917e-05
3.90381e-05
-3.40529e-05
3.06543e-05
-3.99474e-05
1.80837e-05
-4.06427e-05
2.77027e-06
-3.57301e-05
-1.37583e-05
-2.55879e-05
-2.94285e-05
-1.14004e-05
-4.13207e-05
7.37671e-06
-5.59346e-05
2.72072e-05
-5.91022e-05
4.93861e-05
-6.69434e-05
7.14507e-05
-6.66642e-05
9.47002e-05
-7.0413e-05
0.000117194
-6.81914e-05
-6.98947e-05
0.000140193
-1.08351e-05
4.40145e-05
-2.36432e-05
5.18462e-05
-3.36437e-05
4.06549e-05
-3.93264e-05
2.37664e-05
-3.96771e-05
3.12092e-06
-3.42714e-05
-1.91641e-05
-2.35543e-05
-4.01456e-05
-8.69389e-06
-5.61811e-05
1.01417e-05
-7.47702e-05
3.01665e-05
-7.91271e-05
5.21561e-05
-8.8933e-05
7.40006e-05
-8.85087e-05
9.69166e-05
-9.33289e-05
0.000119041
-9.03159e-05
-9.24242e-05
0.000141571
-1.06445e-05
5.4659e-05
-2.32853e-05
6.4487e-05
-3.31202e-05
5.04898e-05
-3.85574e-05
2.92035e-05
-3.85076e-05
3.07114e-06
-3.25601e-05
-2.51115e-05
-2.11436e-05
-5.15621e-05
-5.50091e-06
-7.18238e-05
1.32371e-05
-9.35082e-05
3.34917e-05
-9.93816e-05
5.53175e-05
-0.000110759
7.69384e-05
-0.00011013
9.94567e-05
-0.000115847
0.000121139
-0.000111998
-0.000114409
0.000143124
-1.04067e-05
6.50656e-05
-2.28438e-05
7.69241e-05
-3.24868e-05
6.01328e-05
-3.76506e-05
3.43673e-05
-3.71614e-05
2.58195e-06
-3.0638e-05
-3.16349e-05
-1.85065e-05
-6.36936e-05
-2.06432e-06
-8.8266e-05
1.64753e-05
-0.000112048
3.70333e-05
-0.00011994
5.8737e-05
-0.000132463
8.01089e-05
-0.000131501
0.000102133
-0.000137871
0.000123301
-0.000133166
-0.000135821
0.000144713
-1.01213e-05
7.51869e-05
-2.23162e-05
8.9119e-05
-3.17423e-05
6.95589e-05
-3.66102e-05
3.92352e-05
-3.56393e-05
1.61104e-06
-2.84908e-05
-3.87833e-05
-1.5734e-05
-7.64504e-05
1.23677e-06
-0.000105237
1.98714e-05
-0.000130682
4.0798e-05
-0.000140866
6.23285e-05
-0.000153993
8.33498e-05
-0.000152523
0.000104757
-0.000159278
0.000125368
-0.000153778
-0.000156685
0.000146232
-9.79254e-06
8.49795e-05
-2.16953e-05
0.000101022
-3.08774e-05
7.8741e-05
-3.54349e-05
4.37928e-05
-3.39467e-05
1.22844e-07
-2.61082e-05
-4.66218e-05
-1.27763e-05
-8.97823e-05
4.79036e-06
-0.000122803
2.35664e-05
-0.000149459
4.47589e-05
-0.000162059
6.5914e-05
-0.000175148
8.64464e-05
-0.000173055
0.000107185
-0.000180016
0.000127281
-0.000173873
-0.000177069
0.000147664
-9.43474e-06
9.44142e-05
-2.09648e-05
0.000112552
-2.98739e-05
8.76502e-05
-3.41108e-05
4.80296e-05
-3.2085e-05
-1.903e-06
-2.35121e-05
-5.51947e-05
-9.56385e-06
-0.000103731
8.47857e-06
-0.000140846
2.75208e-05
-0.000168501
4.87349e-05
-0.000183273
6.92828e-05
-0.000195696
8.92837e-05
-0.000193056
0.000109448
-0.000200181
0.000129122
-0.000193547
-0.000197014
0.000149067
-8.9916e-06
0.000103406
-2.00943e-05
0.000123655
-2.87002e-05
9.6256e-05
-3.26011e-05
5.19306e-05
-3.0027e-05
-4.47718e-06
-2.07022e-05
-6.45194e-05
-6.05292e-06
-0.00011838
1.23161e-05
-0.000159215
3.16049e-05
-0.000187789
5.25618e-05
-0.00020423
7.24167e-05
-0.000215551
9.1999e-05
-0.000212639
0.000111733
-0.000219915
0.000130999
-0.000212812
-0.000216467
0.000150452
-8.43874e-06
0.000111845
-1.90537e-05
0.00013427
-2.73154e-05
0.000104518
-3.08519e-05
5.54671e-05
-2.77156e-05
-7.61345e-06
-1.76393e-05
-7.45957e-05
-2.17948e-06
-0.00013384
1.62996e-05
-0.000177694
3.57524e-05
-0.000207242
5.62695e-05
-0.000224747
7.54917e-05
-0.000234773
9.48001e-05
-0.000231947
0.000114102
-0.000239217
0.000132824
-0.000231534
-0.000235331
0.000151688
-7.7786e-06
0.000119623
-1.78202e-05
0.000144311
-2.56804e-05
0.000112378
-2.881e-05
5.85967e-05
-2.50884e-05
-1.13351e-05
-1.43076e-05
-8.53765e-05
1.5855e-06
-0.000149733
2.03937e-05
-0.000196502
3.99638e-05
-0.000226812
5.99679e-05
-0.000244751
7.86128e-05
-0.000253418
9.76676e-05
-0.000251002
0.000116356
-0.000257906
0.000134379
-0.000249557
-0.000253582
0.00015263
-7.00629e-06
0.000126629
-1.63742e-05
0.000153679
-2.37631e-05
0.000119767
-2.6431e-05
6.12646e-05
-2.20842e-05
-1.56819e-05
-1.06212e-05
-9.68395e-05
5.67706e-06
-0.000166031
2.46935e-05
-0.000215519
4.42172e-05
-0.000246336
6.36762e-05
-0.00026421
8.1731e-05
-0.000271473
0.000100434
-0.000269705
0.000118309
-0.000275781
0.000135623
-0.00026687
-0.000271288
0.000153329
-6.11758e-06
0.000132747
-1.47016e-05
0.000162263
-2.1542e-05
0.000126607
-2.36782e-05
6.34008e-05
-1.86485e-05
-2.07115e-05
-6.45776e-06
-0.00010903
1.02387e-05
-0.000182728
2.92388e-05
-0.000234519
4.85097e-05
-0.000265607
6.73752e-05
-0.000283075
8.48196e-05
-0.000288917
0.000103052
-0.000287937
0.000120021
-0.00029275
0.000136731
-0.00028358
-0.000288497
0.000153941
-5.10851e-06
0.000137856
-1.27947e-05
0.000169949
-1.90056e-05
0.000132818
-2.05417e-05
6.49369e-05
-1.47493e-05
-2.65039e-05
-1.59963e-06
-0.00012218
1.51897e-05
-0.000199517
3.40129e-05
-0.000253342
5.28802e-05
-0.000284474
7.10748e-05
-0.00030127
8.79097e-05
-0.000305752
0.000105543
-0.00030557
0.000121589
-0.000308796
0.000137782
-0.000299773
-0.000305207
0.000154492
-3.97538e-06
0.000141831
-1.0658e-05
0.000176632
-1.61541e-05
0.000138314
-1.70209e-05
6.58037e-05
-1.04461e-05
-3.30787e-05
3.0692e-06
-0.000135695
2.04061e-05
-0.000216854
3.90045e-05
-0.00027194
5.73374e-05
-0.000302807
7.47621e-05
-0.000318695
9.09748e-05
-0.000321965
0.000107852
-0.000322447
0.00012298
-0.000323924
0.000138707
-0.0003155
-0.000321415
0.000154914
-2.71282e-06
0.000144544
-8.31868e-06
0.000182238
-1.30003e-05
0.000142996
-1.31137e-05
6.59171e-05
-5.64868e-06
-4.05437e-05
8.30739e-06
-0.000149651
2.58954e-05
-0.000234442
4.41728e-05
-0.000290218
6.18426e-05
-0.000320477
7.84074e-05
-0.00033526
9.39564e-05
-0.000337514
0.000109934
-0.000338425
0.000124214
-0.000338203
0.000139525
-0.000330812
-0.000337113
0.000155223
-1.28192e-06
0.000145826
-5.8176e-06
0.000186773
-9.57906e-06
0.000146757
-8.83435e-06
6.51724e-05
-1.86435e-07
-4.91916e-05
1.41107e-05
-0.000163948
3.16722e-05
-0.000252003
4.94656e-05
-0.000308011
6.63622e-05
-0.000337373
8.20024e-05
-0.0003509
9.68316e-05
-0.000352343
0.000111838
-0.000353431
0.00012539
-0.000351755
0.000140298
-0.00034572
-0.000352258
0.000155444
2.98302e-07
0.000145527
-3.22966e-06
0.000190301
-5.97042e-06
0.000149498
-4.32555e-06
6.35275e-05
5.08464e-06
-5.86018e-05
2.02624e-05
-0.000179126
3.76919e-05
-0.000269433
5.485e-05
-0.000325169
7.086e-05
-0.000353384
8.55223e-05
-0.000365562
9.95702e-05
-0.000366391
0.000113591
-0.000367452
0.000126507
-0.000364671
0.000140962
-0.000360174
-0.000366801
0.000155504
1.47884e-06
0.000144048
-6.48346e-07
0.000192429
-2.33607e-06
0.000151186
3.40679e-07
6.08508e-05
1.09838e-05
-6.92449e-05
2.67191e-05
-0.000194862
4.38858e-05
-0.0002866
6.02674e-05
-0.000341551
7.52702e-05
-0.000368386
8.89177e-05
-0.00037921
0.000102125
-0.000379599
0.000115175
-0.000380501
0.0001275
-0.000376997
0.000141458
-0.000374132
-0.000380704
0.000155361
2.81222e-06
0.000141236
2.302e-06
0.000192939
1.51595e-06
0.000151972
5.76338e-06
5.66033e-05
1.72804e-05
-8.07619e-05
3.33998e-05
-0.000210981
5.01551e-05
-0.000303355
6.56281e-05
-0.000357024
7.95314e-05
-0.00038229
9.21522e-05
-0.00039183
0.000104475
-0.000391921
0.000116596
-0.000392623
0.000128373
-0.000388774
0.000141824
-0.000387583
-0.000393907
0.000155027
4.15247e-06
0.000137084
5.24894e-06
0.000191842
5.81861e-06
0.000151402
1.10848e-05
5.13372e-05
2.3796e-05
-9.34731e-05
4.01881e-05
-0.000227373
5.63872e-05
-0.000319554
7.084e-05
-0.000371477
8.35941e-05
-0.000395044
9.51858e-05
-0.000403422
0.0001066
-0.000403336
0.000117861
-0.000403883
0.000129126
-0.000400039
0.000142037
-0.000400494
-0.000406328
0.000154458
5.38904e-06
0.000131695
8.0017e-06
0.00018923
9.77945e-06
0.000149624
1.64156e-05
4.4701e-05
3.03878e-05
-0.000107445
4.69568e-05
-0.000243942
6.24652e-05
-0.000335062
7.58115e-05
-0.000384823
8.73955e-05
-0.000406628
9.79601e-05
-0.000413987
0.000108472
-0.000413848
0.000118937
-0.000414348
0.000129709
-0.000410812
0.000142023
-0.000412808
-0.000417916
0.000153611
6.42246e-06
0.000125272
1.04254e-05
0.000185227
1.33818e-05
0.000146668
2.16673e-05
3.64155e-05
3.69362e-05
-0.000122714
5.35696e-05
-0.000260575
6.82692e-05
-0.000349762
8.04518e-05
-0.000397006
9.08707e-05
-0.000417047
0.000100431
-0.000423547
0.000110077
-0.000423493
0.000119804
-0.000424075
0.000130111
-0.000421119
0.000141776
-0.000424474
-0.000428662
0.000152523
7.18414e-06
0.000118088
1.24319e-05
0.000179979
1.65217e-05
0.000142578
2.67522e-05
2.6185e-05
4.33249e-05
-0.000139287
5.98929e-05
-0.000277143
7.36843e-05
-0.000363553
8.46807e-05
-0.000408002
9.39678e-05
-0.000426334
0.000102571
-0.000432151
0.000111402
-0.000432324
0.000120455
-0.000433128
0.000130324
-0.000430988
0.000141281
-0.00043543
-0.000438597
0.000151216
7.64784e-06
0.00011044
1.3963e-05
0.000173664
1.91402e-05
0.000137401
3.16306e-05
1.36946e-05
4.94419e-05
-0.000157098
6.58012e-05
-0.000293503
7.86091e-05
-0.000376361
8.843e-05
-0.000417823
9.66417e-05
-0.000434546
0.000104353
-0.000439862
0.00011243
-0.000440401
0.000120876
-0.000441574
0.000130295
-0.000440407
0.000140478
-0.000445613
-0.000447813
0.000149694
7.81409e-06
0.000102626
1.49848e-05
0.000166493
2.12851e-05
0.000131101
3.62722e-05
-1.29248e-06
5.51873e-05
-0.000176013
7.11834e-05
-0.000309499
8.29595e-05
-0.000388137
9.16438e-05
-0.000426507
9.88574e-05
-0.000441759
0.000105755
-0.00044676
0.000113152
-0.000447798
0.000121065
-0.000449487
0.000130005
-0.000449348
0.00013935
-0.000454958
-0.000456447
0.000147984
7.69342e-06
9.49328e-05
1.54644e-05
0.000158722
2.30398e-05
0.000123525
4.06881e-05
-1.89408e-05
6.04803e-05
-0.000195805
7.59514e-05
-0.00032497
8.66723e-05
-0.000398858
9.42853e-05
-0.00043412
0.000100597
-0.000448071
0.000106773
-0.000452936
0.00011357
-0.000454594
0.000121026
-0.000456942
0.000129479
-0.000457802
0.000137919
-0.000463397
-0.000464525
0.000145997
7.30528e-06
8.76275e-05
1.53597e-05
0.000150668
2.45199e-05
0.000114365
4.48674e-05
-3.92883e-05
6.52424e-05
-0.00021618
8.00371e-05
-0.000339765
8.97085e-05
-0.00040853
9.63375e-05
-0.000440749
0.000101855
-0.000453588
0.000107404
-0.000458485
0.00011368
-0.000460871
0.000120736
-0.000463998
0.00012872
-0.000465785
0.000136359
-0.000471036
-0.00047197
0.000143804
6.68667e-06
8.09409e-05
1.46439e-05
0.00014271
2.58671e-05
0.000103142
4.87808e-05
-6.22021e-05
6.94111e-05
-0.000236811
8.34011e-05
-0.000353755
9.20548e-05
-0.000417184
9.78007e-05
-0.000446495
0.000102634
-0.000458421
0.000107647
-0.000463499
0.000113478
-0.000466701
0.000120171
-0.000470692
0.000127708
-0.000473322
0.000135091
-0.000478419
-0.000478464
0.000141584
5.89801e-06
7.50429e-05
1.33225e-05
0.000135286
2.72525e-05
8.92119e-05
5.23743e-05
-8.73238e-05
7.29385e-05
-0.000257375
8.6031e-05
-0.000366847
9.37212e-05
-0.000424874
9.86923e-05
-0.000451466
0.000102948
-0.000462677
0.000107511
-0.000468062
0.000112957
-0.000472147
0.000119325
-0.00047706
0.000126398
-0.000480396
0.000132857
-0.000484878
-0.000486434
0.000140827
5.04269e-06
7.00002e-05
1.14465e-05
0.000128882
2.88633e-05
7.17951e-05
5.56111e-05
-0.000114072
7.58037e-05
-0.000277568
8.79411e-05
-0.000378985
9.47379e-05
-0.000431671
9.90427e-05
-0.000455771
0.000102819
-0.000466453
0.000107003
-0.000472246
0.000112099
-0.000477243
0.000118147
-0.000483109
0.000124952
-0.000487201
0.000131998
-0.000491924
-0.00049531
0.000140874
4.25877e-06
6.57414e-05
9.81292e-06
0.000123328
3.08788e-05
5.07291e-05
5.85151e-05
-0.000141708
7.80186e-05
-0.000297071
8.91657e-05
-0.000390132
9.51483e-05
-0.000437653
9.88903e-05
-0.000459513
0.000102273
-0.000469836
0.000106133
-0.000476106
0.000110901
-0.000482011
0.000116649
-0.000488856
0.000123327
-0.000493879
0.000130709
-0.000499305
-0.000502757
0.000138156
3.64504e-06
6.20964e-05
8.81514e-06
0.000118158
3.34111e-05
2.61332e-05
6.11132e-05
-0.00016941
7.96152e-05
-0.000315573
8.97515e-05
-0.000400268
9.50034e-05
-0.000442905
9.82785e-05
-0.000462788
0.000101341
-0.000472898
0.000104922
-0.000479686
0.000109382
-0.000486471
0.000114851
-0.000494325
0.000121345
-0.000500373
0.00012816
-0.00050612
-0.000510952
0.000136355
3.22261e-06
5.88738e-05
8.70125e-06
0.000112679
3.644e-05
-1.60557e-06
6.34065e-05
-0.000196376
8.06318e-05
-0.000332798
8.97513e-05
-0.000409388
9.43574e-05
-0.000447511
9.72529e-05
-0.000465683
0.000100056
-0.000475701
0.000103392
-0.000483022
0.00010756
-0.000490639
0.000112729
-0.000499494
0.000118875
-0.000506519
0.00012577
-0.000513015
-0.000518008
0.000132826
2.88892e-06
5.59848e-05
9.50456e-06
0.000106064
3.97153e-05
-3.18164e-05
6.53625e-05
-0.000222024
8.11049e-05
-0.000348541
8.92221e-05
-0.000417505
9.32672e-05
-0.000451556
9.58603e-05
-0.000468276
9.8453e-05
-0.000478294
0.000101572
-0.000486142
0.000105451
-0.000494518
0.000110268
-0.000504311
0.000116154
-0.000512405
0.000122333
-0.000519194
-0.000525022
0.000129347
2.32061e-06
5.36642e-05
1.10955e-05
9.72888e-05
4.28107e-05
-6.35316e-05
6.68752e-05
-0.000246088
8.10669e-05
-0.000362732
8.82281e-05
-0.000424666
9.17925e-05
-0.000455121
9.4148e-05
-0.000470632
9.65692e-05
-0.000480715
9.94918e-05
-0.000489065
0.000103078
-0.000498104
0.000107539
-0.000508772
0.000112911
-0.000517777
0.000119011
-0.000525295
-0.000531649
0.000125639
1.27257e-06
5.23917e-05
1.34768e-05
8.50845e-05
4.52776e-05
-9.53325e-05
6.77994e-05
-0.00026861
8.05484e-05
-0.000375481
8.68388e-05
-0.000430956
8.99949e-05
-0.000458277
9.21632e-05
-0.0004728
9.44417e-05
-0.000482994
9.71825e-05
-0.000491805
0.000100481
-0.000501403
0.000104504
-0.000512794
0.000109559
-0.000522832
0.000115067
-0.000530803
-0.000537904
0.000121322
3.52424e-08
5.23564e-05
1.61008e-05
6.9019e-05
4.69035e-05
-0.000126135
6.80819e-05
-0.000289788
7.95885e-05
-0.000386988
8.51204e-05
-0.000436488
8.79326e-05
-0.000461089
8.99506e-05
-0.000474818
9.21066e-05
-0.00048515
9.46778e-05
-0.000494376
9.76833e-05
-0.000504409
0.00010132
-0.000516431
0.000105809
-0.000527321
0.000111089
-0.000536084
-0.000544192
0.000117378
-1.36947e-06
5.37259e-05
1.86306e-05
4.90189e-05
4.81408e-05
-0.000155645
6.78354e-05
-0.000309483
7.82362e-05
-0.000397389
8.31274e-05
-0.000441379
8.56556e-05
-0.000463617
8.75508e-05
-0.000476713
8.95984e-05
-0.000487198
9.20094e-05
-0.000496787
9.47516e-05
-0.000507151
9.79321e-05
-0.000519611
0.00010207
-0.000531458
0.000106936
-0.00054095
-0.000550089
0.000112833
-2.24201e-06
5.59679e-05
2.12194e-05
2.55575e-05
4.91039e-05
-0.00018353
6.71829e-05
-0.000327562
7.65501e-05
-0.000406756
8.09037e-05
-0.000445733
8.32042e-05
-0.000465918
8.49989e-05
-0.000478508
8.69483e-05
-0.000489147
8.92143e-05
-0.000499053
9.17004e-05
-0.000509637
9.45316e-05
-0.000522443
9.81476e-05
-0.000535074
0.000102737
-0.00054554
-0.000556187
0.000108834
-2.39445e-06
5.83623e-05
2.37847e-05
-6.21606e-07
4.97492e-05
-0.000209494
6.61996e-05
-0.000344012
7.45943e-05
-0.000415151
7.84901e-05
-0.000449629
8.06108e-05
-0.000468038
8.23236e-05
-0.000480221
8.41848e-05
-0.000491008
8.63158e-05
-0.000501185
8.86048e-05
-0.000511926
9.10522e-05
-0.00052489
9.43424e-05
-0.000538364
9.86955e-05
-0.000549893
-0.000561963
0.000104472
-1.73093e-06
6.00933e-05
2.61789e-05
-2.85315e-05
5.01356e-05
-0.000233451
6.49589e-05
-0.000358835
7.24289e-05
-0.000422621
7.59246e-05
-0.000453125
7.79014e-05
-0.000470015
7.95479e-05
-0.000481867
8.13293e-05
-0.00049279
8.33464e-05
-0.000503202
8.54579e-05
-0.000514037
8.76637e-05
-0.000527096
9.0558e-05
-0.000541259
9.4675e-05
-0.00055401
-0.00056788
0.000100593
-1.70629e-07
6.02639e-05
2.83075e-05
-5.70096e-05
5.03195e-05
-0.000255463
6.35262e-05
-0.000372042
7.01087e-05
-0.000429203
7.32428e-05
-0.000456259
7.50993e-05
-0.000471872
7.669e-05
-0.000483458
7.8401e-05
-0.000494501
8.03142e-05
-0.000505115
8.23206e-05
-0.000516044
8.42838e-05
-0.000529059
8.69431e-05
-0.000543918
9.09559e-05
-0.000558023
-0.000573441
9.65161e-05
1.34439e-06
5.89195e-05
3.0026e-05
-8.56912e-05
5.03117e-05
-0.000275749
6.19526e-05
-0.000383683
6.7682e-05
-0.000434933
7.0478e-05
-0.000459055
7.22247e-05
-0.000473618
7.3764e-05
-0.000484997
7.54099e-05
-0.000496146
7.72399e-05
-0.000506945
7.91559e-05
-0.00051796
8.10174e-05
-0.000530921
8.34393e-05
-0.00054634
8.72427e-05
-0.000561826
-0.000578895
9.26966e-05
3.31022e-06
5.56093e-05
3.12246e-05
-0.000113606
5.00212e-05
-0.000294545
6.02558e-05
-0.000393918
6.51864e-05
-0.000439863
6.76586e-05
-0.000461527
6.92947e-05
-0.000475254
7.07799e-05
-0.000486482
7.23655e-05
-0.000497732
7.41151e-05
-0.000508694
7.5999e-05
-0.000519844
7.77657e-05
-0.000532687
8.00503e-05
-0.000548624
8.37589e-05
-0.000565535
-0.000583843
8.87073e-05
5.62259e-06
4.99867e-05
3.178e-05
-0.000139763
4.9345e-05
-0.00031211
5.8424e-05
-0.000402997
6.26425e-05
-0.000444082
6.48045e-05
-0.000463689
6.6322e-05
-0.000476772
6.77454e-05
-0.000487906
6.92684e-05
-0.000499255
7.09501e-05
-0.000510376
7.27927e-05
-0.000521686
7.45619e-05
-0.000534456
7.67214e-05
-0.000550784
8.01583e-05
-0.000568972
-0.000588391
8.47065e-05
8.3335e-06
4.16532e-05
3.2143e-05
-0.000163573
4.83542e-05
-0.000328322
5.64372e-05
-0.00041108
6.00472e-05
-0.000447692
6.19231e-05
-0.000465565
6.33148e-05
-0.000478164
6.46648e-05
-0.000489256
6.61222e-05
-0.000500712
6.77265e-05
-0.00051198
6.95516e-05
-0.000523511
7.13074e-05
-0.000536212
7.33655e-05
-0.000552842
7.65913e-05
-0.000572198
-0.00059231
8.05104e-05
1.06e-05
3.10532e-05
3.26491e-05
-0.000185622
4.71987e-05
-0.000342871
5.42986e-05
-0.00041818
5.73878e-05
-0.000450781
5.90126e-05
-0.000467189
6.02766e-05
-0.000479428
6.15415e-05
-0.000490521
6.29227e-05
-0.000502093
6.4451e-05
-0.000513509
6.62218e-05
-0.000525282
6.79982e-05
-0.000537989
6.99496e-05
-0.000554793
7.27855e-05
-0.000575033
-0.000595677
7.61526e-05
1.24649e-05
1.85883e-05
3.29592e-05
-0.000206116
4.5899e-05
-0.000355811
5.20346e-05
-0.000424315
5.46626e-05
-0.000453409
5.60696e-05
-0.000468597
5.7208e-05
-0.000480566
5.83765e-05
-0.000491689
5.96716e-05
-0.000503389
6.11057e-05
-0.000514943
6.28155e-05
-0.000526992
6.45637e-05
-0.000539737
6.63785e-05
-0.000556608
6.88663e-05
-0.000577521
-0.000598431
7.16196e-05
1.39305e-05
4.65778e-06
3.29709e-05
-0.000225156
4.44338e-05
-0.000367274
4.9669e-05
-0.00042955
5.18802e-05
-0.00045562
5.30937e-05
-0.00046981
5.41082e-05
-0.00048158
5.51706e-05
-0.000492752
5.6364e-05
-0.000504582
5.76984e-05
-0.000516277
5.92992e-05
-0.000528593
6.10044e-05
-0.000541442
6.26678e-05
-0.000558272
6.46861e-05
-0.000579539
-0.000600661
6.69163e-05
1.49788e-05
-1.0321e-05
3.26549e-05
-0.000242832
4.27883e-05
-0.000377407
4.72166e-05
-0.000433979
4.9053e-05
-0.000457457
5.00877e-05
-0.000470845
5.09773e-05
-0.00048247
5.19233e-05
-0.000493698
5.30025e-05
-0.000505661
5.4217e-05
-0.000517492
5.56934e-05
-0.000530069
5.7294e-05
-0.000543043
5.87645e-05
-0.000559742
6.03773e-05
-0.000581152
-0.00060239
6.21068e-05
1.55947e-05
-2.59157e-05
3.20201e-05
-0.000259258
4.09692e-05
-0.000386356
4.46901e-05
-0.0004377
4.61926e-05
-0.000458959
4.70568e-05
-0.000471709
4.78168e-05
-0.00048323
4.86364e-05
-0.000494517
4.95838e-05
-0.000506608
5.067e-05
-0.000518578
5.19835e-05
-0.000531383
5.34513e-05
-0.00054451
5.47268e-05
-0.000561018
5.5878e-05
-0.000582304
-0.000603679
5.71663e-05
1.58614e-05
-4.17771e-05
3.1108e-05
-0.000274504
3.89981e-05
-0.000394246
4.21032e-05
-0.000440805
4.3309e-05
-0.000460165
4.40069e-05
-0.000472407
4.46297e-05
-0.000483853
4.53107e-05
-0.000495198
4.61118e-05
-0.00050741
4.70493e-05
-0.000519516
4.81936e-05
-0.000532527
4.94818e-05
-0.000545799
5.05355e-05
-0.000562071
5.13082e-05
-0.000583076
-0.00060455
5.21797e-05
1.58415e-05
-5.76186e-05
2.99586e-05
-0.000288621
3.69003e-05
-0.000401188
3.94698e-05
-0.000443374
4.04105e-05
-0.000461106
4.09432e-05
-0.000472939
4.14193e-05
-0.000484329
4.19495e-05
-0.000495728
4.25861e-05
-0.000508046
4.3363e-05
-0.000520293
4.43149e-05
-0.000533479
4.54055e-05
-0.000546889
4.62527e-05
-0.000562919
4.66336e-05
-0.000583457
-0.000605012
4.70951e-05
1.55953e-05
-7.32139e-05
2.86215e-05
-0.000301648
3.47051e-05
-0.000407272
3.68049e-05
-0.000445474
3.75044e-05
-0.000461805
3.7871e-05
-0.000473306
3.81899e-05
-0.000484648
3.85554e-05
-0.000496094
3.90123e-05
-0.000508503
3.96053e-05
-0.000520886
4.0363e-05
-0.000534237
4.12307e-05
-0.000547757
4.18549e-05
-0.000563543
4.19283e-05
-0.000583531
-0.000605084
4.2001e-05
1.51746e-05
-8.83885e-05
2.7144e-05
-0.000313617
3.24424e-05
-0.00041257
3.41232e-05
-0.000447155
3.45985e-05
-0.00046228
3.47954e-05
-0.000473503
3.49459e-05
-0.000484799
3.51327e-05
-0.000496281
3.53921e-05
-0.000508762
3.5785e-05
-0.000521278
3.63289e-05
-0.00053478
3.69648e-05
-0.000548393
3.73814e-05
-0.000563959
3.7149e-05
-0.000583298
-0.000604773
3.68377e-05
1.46212e-05
-0.00010301
2.55658e-05
-0.000324562
3.01384e-05
-0.000417143
3.14392e-05
-0.000448456
3.17007e-05
-0.000462542
3.17222e-05
-0.000473524
3.1692e-05
-0.000484768
3.16842e-05
-0.000496273
3.17319e-05
-0.00050881
3.18998e-05
-0.000521446
3.22212e-05
-0.000535102
3.26099e-05
-0.000548782
3.28001e-05
-0.00056415
3.23083e-05
-0.000582806
-0.000604132
3.16673e-05
1.39689e-05
-0.000116979
2.39211e-05
-0.000334514
2.7818e-05
-0.00042104
2.87676e-05
-0.000449405
2.88199e-05
-0.000462594
2.8657e-05
-0.000473362
2.84323e-05
-0.000484544
2.8215e-05
-0.000496056
2.80344e-05
-0.00050863
2.79598e-05
-0.000521372
2.80333e-05
-0.000535175
2.81661e-05
-0.000548914
2.81341e-05
-0.000564118
2.73848e-05
-0.000582057
-0.000603173
2.64257e-05
1.32405e-05
-0.000130219
2.22346e-05
-0.000343508
2.55028e-05
-0.000424308
2.61235e-05
-0.000450026
2.59642e-05
-0.000462435
2.56048e-05
-0.000473002
2.51714e-05
-0.00048411
2.47299e-05
-0.000495614
2.43071e-05
-0.000508207
2.3968e-05
-0.000521033
2.37741e-05
-0.000534981
2.36393e-05
-0.00054878
2.33533e-05
-0.000563832
2.2389e-05
-0.000581093
-0.000601901
2.11171e-05
1.24305e-05
-0.00014265
2.05219e-05
-0.000351599
2.32136e-05
-0.000427
2.35211e-05
-0.000450333
2.31405e-05
-0.000462054
2.25701e-05
-0.000472432
2.1915e-05
-0.000483455
2.12357e-05
-0.000494935
2.0554e-05
-0.000507525
1.9937e-05
-0.000520415
1.94473e-05
-0.000534492
1.90337e-05
-0.000548366
1.84893e-05
-0.000563287
1.72989e-05
-0.000579902
-0.000600261
1.56588e-05
1.14648e-05
-0.000154114
1.87965e-05
-0.000358931
2.09667e-05
-0.00042917
2.0966e-05
-0.000450333
2.03532e-05
-0.000461442
1.95579e-05
-0.000471636
1.86688e-05
-0.000482566
1.77369e-05
-0.000494003
1.67827e-05
-0.000506571
1.58704e-05
-0.000519503
1.50674e-05
-0.000533689
1.43529e-05
-0.000547652
1.35437e-05
-0.000562478
1.21176e-05
-0.000578476
-0.00059824
1.00969e-05
1.05749e-05
-0.000164689
1.70877e-05
-0.000365444
1.8762e-05
-0.000430844
1.84574e-05
-0.000450028
1.76057e-05
-0.00046059
1.65738e-05
-0.000470605
1.54375e-05
-0.00048143
1.42377e-05
-0.000492803
1.29995e-05
-0.000505333
1.17757e-05
-0.000518279
1.06371e-05
-0.00053255
9.59808e-06
-0.000546613
8.53072e-06
-0.000561411
6.87937e-06
-0.000576825
-0.000595781
4.42024e-06
9.76543e-06
-0.000174455
1.54247e-05
-0.000371103
1.66024e-05
-0.000432022
1.59979e-05
-0.000449424
1.4901e-05
-0.000459493
1.3622e-05
-0.000469326
1.22248e-05
-0.000480033
1.0742e-05
-0.00049132
9.21101e-06
-0.000503802
7.65783e-06
-0.000516726
6.16272e-06
-0.000531055
4.78271e-06
-0.000545233
3.39725e-06
-0.000560025
1.70142e-06
-0.000575129
-0.00059279
-1.28936e-06
8.97786e-06
-0.000183433
1.38148e-05
-0.00037594
1.44974e-05
-0.000432704
1.35917e-05
-0.000448518
1.22422e-05
-0.000458144
1.07051e-05
-0.000467788
9.03344e-06
-0.000478361
7.25844e-06
-0.000489545
5.41344e-06
-0.000501957
3.5249e-06
-0.000514838
1.64214e-06
-0.000529172
-1.48295e-07
-0.000543442
-1.75345e-06
-0.00055842
-3.75591e-06
-0.000573127
-0.000589775
-6.77141e-06
8.20679e-06
-0.000191639
1.22614e-05
-0.000379995
1.24569e-05
-0.0004329
1.12436e-05
-0.000447305
9.63241e-06
-0.000456532
7.82475e-06
-0.000465981
5.86203e-06
-0.000476398
3.79262e-06
-0.000487476
1.59033e-06
-0.000499754
-6.09947e-07
-0.000512637
-2.802e-06
-0.00052698
-4.88012e-06
-0.000541364
-6.84069e-06
-0.000556459
-9.26159e-06
-0.000570706
-0.000586675
-1.23615e-05
7.45276e-06
-0.000199092
1.07638e-05
-0.000383306
1.04859e-05
-0.000432622
8.95789e-06
-0.000445777
7.07413e-06
-0.000454649
4.98099e-06
-0.000463888
2.70916e-06
-0.000474126
2.76588e-07
-0.000485043
-2.1276e-06
-0.00049735
-4.64223e-06
-0.000510123
-7.22494e-06
-0.000524398
-9.70124e-06
-0.000538888
-1.20592e-05
-0.000554101
-1.47448e-05
-0.00056802
-0.00058339
-1.80293e-05
6.71967e-06
-0.000205812
9.32191e-06
-0.000385908
8.58453e-06
-0.000431885
6.73785e-06
-0.00044393
4.56608e-06
-0.000452477
2.16006e-06
-0.000461482
-4.02342e-07
-0.000471564
-3.00434e-06
-0.000482441
-5.79686e-06
-0.000494558
-8.68213e-06
-0.000507238
-1.16416e-05
-0.000521438
-1.45492e-05
-0.00053598
-1.73402e-05
-0.00055131
-2.02527e-05
-0.000565108
-0.000579919
-2.37245e-05
6.01028e-06
-0.000211822
7.93493e-06
-0.000387833
6.75073e-06
-0.0004307
4.58595e-06
-0.000441765
2.098e-06
-0.000449989
-6.01067e-07
-0.000458783
-3.36611e-06
-0.000468799
-6.31311e-06
-0.000479494
-9.4437e-06
-0.000491427
-1.26965e-05
-0.000503985
-1.60428e-05
-0.000518092
-1.93968e-05
-0.000532626
-2.26257e-05
-0.000548081
-2.58084e-05
-0.000561925
-0.000576282
-2.9445e-05
5.32743e-06
-0.00021715
6.60418e-06
-0.000389109
4.98316e-06
-0.000429079
2.49137e-06
-0.000439273
-3.21101e-07
-0.000447176
-3.20361e-06
-0.0004559
-6.31279e-06
-0.00046569
-9.58991e-06
-0.000476217
-1.30538e-05
-0.000487963
-1.66682e-05
-0.00050037
-2.04095e-05
-0.00051435
-2.42142e-05
-0.000528821
-2.79019e-05
-0.000544394
-3.14089e-05
-0.000558418
-0.000572488
-3.52032e-05
4.67251e-06
-0.000221822
5.32861e-06
-0.000389765
3.28729e-06
-0.000427038
4.03975e-07
-0.00043639
-2.56582e-06
-0.000444207
-5.78808e-06
-0.000452678
-9.21436e-06
-0.000462263
-1.2817e-05
-0.000472614
-1.66143e-05
-0.000484166
-2.05881e-05
-0.000496397
-2.47252e-05
-0.000510213
-2.89771e-05
-0.00052457
-3.31434e-05
-0.000540227
-3.70319e-05
-0.000554529
-0.000568525
-4.09944e-05
4.04721e-06
-0.000225869
4.10645e-06
-0.000389825
1.66151e-06
-0.000424593
-1.47343e-06
-0.000433255
-4.79728e-06
-0.000440883
-8.32802e-06
-0.000449147
-1.20648e-05
-0.000458527
-1.59899e-05
-0.000468689
-2.01169e-05
-0.000480039
-2.44433e-05
-0.00049207
-2.8973e-05
-0.000505684
-3.36633e-05
-0.000519879
-3.83272e-05
-0.000535563
-4.26607e-05
-0.000550196
-0.000564348
-4.68384e-05
3.45375e-06
-0.000229323
2.94223e-06
-0.000389313
-7.12258e-09
-0.000421644
-3.33457e-06
-0.000429928
-6.97144e-06
-0.000437246
-1.08144e-05
-0.000445304
-1.48608e-05
-0.00045448
-1.91041e-05
-0.000464446
-2.35572e-05
-0.000475586
-2.82263e-05
-0.000487401
-3.3136e-05
-0.000500774
-3.82552e-05
-0.00051476
-4.34289e-05
-0.00053039
-4.82604e-05
-0.000545364
-0.000559892
-5.27163e-05
2.89039e-06
-0.000232213
1.85781e-06
-0.000388281
-1.3717e-06
-0.000418414
-5.1413e-06
-0.000426158
-9.09329e-06
-0.000433294
-1.32456e-05
-0.000441152
-1.76e-05
-0.000450126
-2.21563e-05
-0.00045989
-2.69296e-05
-0.000470813
-3.19298e-05
-0.000482401
-3.72035e-05
-0.0004955
-4.27351e-05
-0.000509229
-4.84151e-05
-0.00052471
-5.3799e-05
-0.000539981
-0.00055507
-5.86204e-05
2.3468e-06
-0.00023456
8.71512e-07
-0.000386805
-2.74973e-06
-0.000414793
-6.88907e-06
-0.000422019
-1.11665e-05
-0.000429017
-1.56233e-05
-0.000436695
-2.02803e-05
-0.000445469
-2.51444e-05
-0.000455026
-3.02312e-05
-0.000465726
-3.55495e-05
-0.000477082
-4.11645e-05
-0.000489885
-4.70874e-05
-0.000503306
-5.32565e-05
-0.000518541
-5.92277e-05
-0.000534009
-0.000549783
-6.45152e-05
1.81625e-06
-0.000236376
-2.27888e-09
-0.000384987
-4.0971e-06
-0.000410698
-8.58579e-06
-0.00041753
-1.3184e-05
-0.000424418
-1.79451e-05
-0.000431934
-2.29017e-05
-0.000440512
-2.80667e-05
-0.000449861
-3.34583e-05
-0.000460334
-3.90826e-05
-0.000471458
-4.50154e-05
-0.000483952
-5.12989e-05
-0.000497022
-5.79229e-05
-0.000511916
-6.44961e-05
-0.000527436
-0.000543921
-7.03578e-05
1.30132e-06
-0.000237678
-1.28431e-06
-0.000382401
-5.45522e-06
-0.000406527
-1.02311e-05
-0.000412754
-1.51444e-05
-0.000419505
-2.02093e-05
-0.000426869
-2.54622e-05
-0.000435259
-3.09227e-05
-0.0004444
-3.66109e-05
-0.000454646
-4.25288e-05
-0.00046554
-4.87551e-05
-0.000477726
-5.53623e-05
-0.000490415
-6.23916e-05
-0.000504887
-6.95506e-05
-0.000520277
-0.000537381
-7.60902e-05
8.35736e-07
-0.000238513
-2.33685e-06
-0.000379229
-6.82671e-06
-0.000402037
-1.18403e-05
-0.000407741
-1.70478e-05
-0.000414298
-2.24138e-05
-0.000421503
-2.79617e-05
-0.000429711
-3.3712e-05
-0.00043865
-3.96879e-05
-0.00044867
-4.58899e-05
-0.000459338
-5.2388e-05
-0.000471228
-5.92777e-05
-0.000483525
-6.66505e-05
-0.000497514
-7.43431e-05
-0.000512585
-0.000530116
-8.16087e-05
4.46656e-07