/*--------------------------------*- C++ -*----------------------------------*\
  =========                 |
  \\      /  F ield         | OpenFOAM: The Open Source CFD Toolbox
   \\    /   O peration     | Website:  https://openfoam.org
    \\  /    A nd           | Version:  7
     \\/     M anipulation  |
\*---------------------------------------------------------------------------*/
FoamFile
{
    version     2.0;
    format      ascii;
    class       volVectorField;
    location    "0.9999";
    object      U;
}
// * * * * * * * * * * * * * * * * * * * * * * * * * * * * * * * * * * * * * //

dimensions      [0 1 -1 0 0 0 0];

internalField   nonuniform List<vector> 
18750
(
(-0.0402729 0.0236162 -1.45405e-20)
(-0.132794 0.0252587 4.51153e-21)
(-0.213394 0.0174206 3.36918e-20)
(-0.253146 0.00818006 5.6448e-21)
(-0.262186 -0.00140345 -5.00838e-21)
(-0.238986 -0.0103962 -5.6866e-21)
(-0.186233 -0.0177951 -6.84862e-21)
(-0.117257 -0.0221175 -8.68713e-21)
(-0.0272683 -0.0274337 7.72888e-21)
(0.0691916 -0.0263539 2.25718e-20)
(0.164425 -0.0276199 -8.7137e-20)
(0.258168 -0.0248573 6.81844e-20)
(0.345646 -0.0239181 -3.80573e-20)
(0.425535 -0.0206619 6.48478e-20)
(0.497181 -0.0191392 -1.5093e-20)
(-0.0423861 0.0707091 8.82027e-21)
(-0.134992 0.0756489 1.0468e-20)
(-0.214609 0.0521501 3.27585e-21)
(-0.253057 0.0243984 2.96061e-20)
(-0.260412 -0.0044212 4.21684e-20)
(-0.235232 -0.0314265 1.62698e-20)
(-0.180327 -0.0535067 1.00108e-20)
(-0.110368 -0.0665329 -4.32182e-20)
(-0.0181366 -0.0821713 -5.44984e-20)
(0.0775094 -0.0788994 2.05701e-20)
(0.173301 -0.082437 9.2063e-20)
(0.265912 -0.0741749 -7.43538e-21)
(0.352638 -0.0713357 -1.92907e-20)
(0.431345 -0.0616167 -4.44255e-20)
(0.502202 -0.0570332 5.63548e-20)
(-0.0465905 0.117385 2.50347e-20)
(-0.139371 0.125662 3.33422e-20)
(-0.21705 0.086555 -8.75161e-20)
(-0.252936 0.0402208 -4.52848e-21)
(-0.257012 -0.0079944 -8.73611e-20)
(-0.228045 -0.0531248 2.14892e-20)
(-0.169156 -0.0896148 -1.75645e-21)
(-0.0968455 -0.111455 4.17954e-21)
(-0.000911531 -0.136492 4.59494e-20)
(0.0932923 -0.13101 -1.41835e-19)
(0.189942 -0.136078 -1.9223e-19)
(0.280511 -0.122389 -1.59877e-19)
(0.365847 -0.1176 -8.63616e-20)
(0.442406 -0.10153 -5.47183e-20)
(0.511754 -0.0938639 8.39455e-20)
(-0.0528402 0.163372 -1.26726e-19)
(-0.145898 0.175058 1.38581e-19)
(-0.220716 0.120445 -9.22846e-20)
(-0.252844 0.0554391 -1.35799e-19)
(-0.252199 -0.0124066 1.38433e-19)
(-0.217897 -0.0757985 -6.35355e-20)
(-0.15371 -0.126489 -1.30149e-20)
(-0.077107 -0.157128 5.10328e-20)
(0.0227555 -0.189975 -5.1428e-20)
(0.115132 -0.182503 1.80314e-19)
(0.212629 -0.188037 2.75339e-19)
(0.300634 -0.169021 -3.64247e-21)
(0.384114 -0.162205 5.59594e-20)
(0.457831 -0.139908 9.80601e-20)
(0.525049 -0.129133 -3.0923e-19)
(-0.0610639 0.208404 -9.70654e-20)
(-0.154514 0.223615 2.06548e-19)
(-0.225594 0.153662 4.62523e-20)
(-0.252841 0.0699102 1.20477e-19)
(-0.246118 -0.017796 -9.0221e-20)
(-0.205097 -0.0995757 4.66285e-20)
(-0.134786 -0.164525 9.58523e-20)
(-0.0518127 -0.203714 -3.60621e-20)
(0.0511146 -0.242006 -3.17893e-20)
(0.141672 -0.233261 1.5911e-20)
(0.239827 -0.238112 -3.40009e-20)
(0.325132 -0.213833 2.1371e-20)
(0.406365 -0.204841 2.45195e-19)
(0.476669 -0.176438 1.24882e-19)
(0.541206 -0.162516 3.41776e-19)
(-0.0711608 0.252224 2.2118e-19)
(-0.165122 0.271122 7.36019e-20)
(-0.231626 0.186071 -9.67194e-20)
(-0.252896 0.0835459 -8.57192e-20)
(-0.238789 -0.0242001 -5.64208e-21)
(-0.189695 -0.124435 -3.28895e-19)
(-0.112594 -0.203864 4.7382e-20)
(-0.0220902 -0.251269 2.01399e-20)
(0.082772 -0.291992 9.99552e-20)
(0.172337 -0.28324 9.12949e-20)
(0.270773 -0.286323 -1.05626e-19)
(0.353276 -0.256702 1.12321e-19)
(0.431711 -0.24525 -3.16548e-19)
(0.49799 -0.210903 2.03226e-19)
(0.559387 -0.193861 -4.37466e-19)
(-0.0830022 0.294582 -2.02627e-19)
(-0.177595 0.317373 -3.35562e-19)
(-0.238719 0.217555 9.37661e-20)
(-0.252935 0.0962815 7.2637e-19)
(-0.230127 -0.031697 5.71744e-19)
(-0.171563 -0.150322 -1.40473e-19)
(-0.0869069 -0.244146 8.42706e-20)
(0.010887 -0.299359 7.06682e-21)
(0.117193 -0.34007 -8.59043e-20)
(0.207424 -0.332408 -2.51041e-19)
(0.305187 -0.332622 1.29653e-19)
(0.384305 -0.297449 2.35996e-19)
(0.459198 -0.283134 4.3337e-19)
(0.520886 -0.243158 -8.82553e-20)
(0.578962 -0.223158 4.88499e-19)
(-0.0964368 0.335239 -1.87441e-19)
(-0.191765 0.362152 -2.17039e-19)
(-0.24673 0.248014 -1.38178e-18)
(-0.252827 0.108078 4.90061e-19)
(-0.220002 -0.0403627 -3.52717e-19)
(-0.150607 -0.177273 1.12127e-19)
(-0.0574062 -0.284783 1.1548e-19)
(0.04684 -0.347543 -1.9671e-19)
(0.15453 -0.386737 5.37596e-20)
(0.247234 -0.380521 1.61945e-19)
(0.342396 -0.376626 3.29827e-20)
(0.41696 -0.335803 -2.40168e-19)
(0.487872 -0.318268 -9.17185e-19)
(0.544806 -0.273193 1.09044e-19)
(0.599727 -0.250504 -2.25159e-19)
(-0.111316 0.37399 1.00299e-18)
(-0.207424 0.405193 3.91033e-19)
(-0.255443 0.27736 1.56137e-18)
(-0.25237 0.118948 -9.54617e-19)
(-0.208211 -0.0501946 3.82274e-19)
(-0.126777 -0.205373 -4.1068e-19)
(-0.024119 -0.325524 -5.57391e-19)
(0.0865884 -0.395433 2.33224e-19)
(0.195311 -0.432206 -1.462e-20)
(0.29077 -0.427044 -2.43756e-19)
(0.381222 -0.417707 8.82366e-20)
(0.450125 -0.371556 5.57895e-19)
(0.517501 -0.350671 3.77038e-19)
(0.569999 -0.301114 -5.70504e-20)
(0.621879 -0.275988 1.73701e-19)
(-0.127504 0.410555 -8.6654e-19)
(-0.224338 0.446228 -4.7618e-19)
(-0.264543 0.305552 6.33e-19)
(-0.251252 0.128973 1.12035e-19)
(-0.194422 -0.0610499 -1.45516e-19)
(-0.0998587 -0.234572 -1.85708e-19)
(0.0131213 -0.36642 2.83443e-19)
(0.130451 -0.44236 -1.99697e-19)
(0.239706 -0.476365 7.30522e-20)
(0.336413 -0.471238 -1.18285e-21)
(0.421061 -0.455376 1.17266e-19)
(0.483975 -0.404735 -4.65397e-19)
(0.548839 -0.380542 -9.89616e-20)
(0.597087 -0.326967 -9.28899e-20)
(0.645429 -0.299577 -1.53379e-19)
(-0.144784 0.444524 1.70622e-18)
(-0.242211 0.485033 -5.55138e-19)
(-0.273654 0.332575 -2.2899e-18)
(-0.249088 0.13826 8.36383e-19)
(-0.178208 -0.0727044 -4.30452e-19)
(-0.0694355 -0.264606 4.13015e-19)
(0.0547306 -0.407462 1.86492e-18)
(0.178112 -0.487611 4.55496e-19)
(0.287718 -0.518814 1.61413e-19)
(0.383393 -0.512422 -1.25764e-19)
(0.462274 -0.489535 -1.58645e-19)
(0.519636 -0.435552 -8.12713e-20)
(0.582409 -0.407989 1.92769e-19)
(0.625804 -0.350631 -2.92871e-19)
(0.669714 -0.321164 5.05962e-20)
(-0.162871 0.475451 4.38831e-19)
(-0.260704 0.52137 6.66507e-20)
(-0.282392 0.358394 -2.14024e-19)
(-0.245496 0.1469 -1.48721e-18)
(-0.159161 -0.0849425 2.74173e-18)
(-0.0351323 -0.295033 -1.09932e-18)
(0.100889 -0.447895 -2.27018e-18)
(0.229729 -0.530859 5.19814e-19)
(0.33916 -0.559245 -3.17812e-19)
(0.431935 -0.550231 1.85371e-19)
(0.505144 -0.520328 -4.14296e-20)
(0.557576 -0.464133 2.85942e-20)
(0.617378 -0.432858 -1.46987e-19)
(0.65483 -0.371916 3.46154e-19)
(0.69401 -0.340712 1.11342e-19)
(-0.181419 0.502878 -1.18793e-18)
(-0.279425 0.554963 3.11997e-19)
(-0.290378 0.382945 1.02929e-18)
(-0.240118 0.154918 -3.14279e-20)
(-0.136881 -0.0975724 -3.95376e-18)
(0.00358233 -0.325314 3.06617e-19)
(0.151359 -0.486867 6.6459e-19)
(0.285398 -0.571858 -1.48684e-18)
(0.39364 -0.597168 6.66417e-19)
(0.48228 -0.584462 -3.2636e-19)
(0.549282 -0.547824 2.58115e-19)
(0.59726 -0.490299 -2.71021e-21)
(0.652461 -0.454806 -5.38294e-20)
(0.683389 -0.390704 -3.5172e-19)
(0.718457 -0.358233 -1.46399e-19)
(-0.200046 0.526363 -5.22716e-19)
(-0.297975 0.585517 -5.19006e-20)
(-0.29726 0.406136 -1.02786e-20)
(-0.232648 0.16233 -1.72881e-19)
(-0.110983 -0.110417 -2.26738e-18)
(0.0471485 -0.355091 -7.96091e-19)
(0.206384 -0.523976 7.89784e-19)
(0.344819 -0.609996 2.11262e-19)
(0.450658 -0.631887 -1.4436e-18)
(0.534306 -0.614883 -1.63035e-19)
(0.594331 -0.571918 -4.67063e-20)
(0.638201 -0.513693 1.08962e-19)
(0.687295 -0.473531 1.26557e-19)
(0.711983 -0.407036 1.14061e-19)
(0.743642 -0.373731 1.57576e-19)
(-0.218326 0.545447 2.45954e-18)
(-0.315917 0.61271 -2.28214e-18)
(-0.302713 0.427871 -2.82633e-18)
(-0.222829 0.169128 4.77e-18)
(-0.08114 -0.12338 3.73494e-18)
(0.0960093 -0.384272 3.89468e-18)
(0.266034 -0.558384 2.42828e-20)
(0.407445 -0.644674 1.43832e-18)
(0.510002 -0.662789 1.33572e-18)
(0.587756 -0.641254 1.2177e-18)
(0.640314 -0.592513 -2.47998e-19)
(0.680122 -0.534065 4.09883e-19)
(0.722003 -0.488952 1.92596e-20)
(0.741043 -0.421144 5.11362e-20)
(0.769558 -0.387233 8.33941e-20)
(-0.235816 0.559734 -1.70319e-18)
(-0.332854 0.636302 2.41085e-18)
(-0.306461 0.448044 1.67115e-18)
(-0.210502 0.175325 -4.79552e-18)
(-0.0473354 -0.136322 -1.85062e-18)
(0.150322 -0.411784 -2.50382e-19)
(0.330544 -0.590003 -1.78861e-18)
(0.472902 -0.675517 -2.11289e-18)
(0.571349 -0.689457 -2.32807e-18)
(0.642188 -0.66336 -5.50662e-19)
(0.687113 -0.609604 5.7586e-19)
(0.722392 -0.55124 -6.10591e-19)
(0.756334 -0.501152 8.2178e-20)
(0.770235 -0.433275 1.07775e-19)
(0.795881 -0.398754 -4.14811e-20)
(-0.25199 0.568712 -4.39775e-18)
(-0.348406 0.656004 3.23239e-18)
(-0.308315 0.466507 -5.50223e-18)
(-0.195497 0.180894 -2.67626e-18)
(-0.00914336 -0.148973 5.14104e-20)
(0.209384 -0.436571 2.75022e-18)
(0.399288 -0.618618 2.92473e-18)
(0.541079 -0.702047 4.93226e-19)
(0.634071 -0.711563 5.2449e-19)
(0.697103 -0.680977 -1.75071e-18)
(0.734349 -0.62316 1.28274e-19)
(0.764314 -0.564963 -4.98502e-19)
(0.790123 -0.510226 -1.72047e-19)
(0.799499 -0.443474 -2.72709e-19)
(0.822663 -0.40822 4.31746e-20)
(-0.26628 0.57217 3.8668e-18)
(-0.362302 0.671881 6.55286e-19)
(-0.3081 0.482968 7.07789e-19)
(-0.177681 0.185634 6.58165e-18)
(0.0340724 -0.161813 2.78141e-18)
(0.273134 -0.458681 -2.38924e-18)
(0.47165 -0.643414 1.73106e-18)
(0.611319 -0.723788 -6.52941e-19)
(0.697563 -0.728829 -9.23398e-19)
(0.752147 -0.693937 6.16533e-19)
(0.781629 -0.633129 -1.61299e-18)
(0.805608 -0.575034 -1.84378e-19)
(0.823634 -0.516338 -4.18679e-19)
(0.829188 -0.451736 3.56464e-19)
(0.849883 -0.415591 1.09517e-19)
(-0.277867 0.569556 -1.62857e-18)
(-0.37419 0.683612 -4.45018e-18)
(-0.30598 0.497202 1.01955e-18)
(-0.157259 0.189273 -8.10322e-18)
(0.082258 -0.17421 -4.98184e-18)
(0.34164 -0.478227 -2.58487e-18)
(0.546734 -0.663942 -3.19829e-18)
(0.682853 -0.74038 2.68195e-18)
(0.761302 -0.741042 2.387e-18)
(0.80688 -0.702205 3.2438e-18)
(0.828511 -0.639525 -1.57872e-19)
(0.846112 -0.581467 1.64554e-18)
(0.856945 -0.519802 3.21886e-19)
(0.859076 -0.45813 2.54558e-19)
(0.877083 -0.42092 -2.62909e-19)
(-0.286257 0.561492 2.95294e-18)
(-0.383964 0.691375 6.92803e-18)
(-0.302182 0.508484 4.78728e-18)
(-0.134156 0.191523 5.7361e-18)
(0.134774 -0.185867 -2.20235e-19)
(0.414332 -0.495341 1.62825e-18)
(0.623968 -0.679724 2.39169e-19)
(0.754898 -0.751603 -1.51612e-18)
(0.824566 -0.748066 2.28515e-18)
(0.860696 -0.705866 -5.5167e-18)
(0.874502 -0.642388 9.19427e-19)
(0.885588 -0.584382 -4.36378e-19)
(0.889795 -0.520888 1.84996e-20)
(0.888679 -0.462608 -2.93265e-19)
(0.903975 -0.424165 -2.53275e-19)
(-0.291286 0.548559 -4.8741e-18)
(-0.391144 0.694315 6.63156e-18)
(-0.296575 0.516831 -1.33775e-18)
(-0.108608 0.191197 -2.72587e-18)
(0.191341 -0.196917 5.0833e-18)
(0.49043 -0.509268 1.42345e-19)
(0.702426 -0.690513 -1.14085e-18)
(0.826523 -0.757361 -1.07715e-19)
(0.886558 -0.749869 -1.35935e-18)
(0.913089 -0.705106 2.69937e-18)
(0.919231 -0.641765 1.25342e-18)
(0.923904 -0.583927 6.21981e-19)
(0.922034 -0.519711 -3.26172e-20)
(0.918017 -0.465046 6.06936e-19)
(0.930452 -0.425269 -4.23225e-20)
(-0.293155 0.530761 1.47715e-18)
(-0.395276 0.691845 -1.32135e-18)
(-0.290181 0.522884 1.43285e-18)
(-0.0812626 0.188515 5.08471e-18)
(0.251926 -0.207384 -3.08622e-18)
(0.568837 -0.519975 -1.92639e-18)
(0.781026 -0.696255 -2.3598e-18)
(0.896765 -0.757677 1.59166e-18)
(0.946605 -0.746606 -1.16822e-18)
(0.963628 -0.700217 -1.20837e-18)
(0.962377 -0.637763 -1.08952e-18)
(0.960942 -0.580328 -4.41377e-19)
(0.95359 -0.516429 1.30468e-18)
(0.947037 -0.465538 -1.29576e-18)
(0.956132 -0.424329 -2.01074e-21)
(-0.292029 0.508065 6.6685e-18)
(-0.396549 0.683752 -2.35513e-18)
(-0.282641 0.524572 -6.4615e-18)
(-0.0517406 0.183116 -1.61978e-18)
(0.316261 -0.217983 8.31437e-18)
(0.648614 -0.527487 -4.40021e-19)
(0.858643 -0.697038 2.72208e-18)
(0.964722 -0.752738 -1.386e-18)
(1.00407 -0.738618 -3.29303e-18)
(1.01183 -0.691526 5.66944e-18)
(1.0036 -0.630545 -3.16975e-18)
(0.996517 -0.573886 6.6688e-19)
(0.984227 -0.511305 -2.01728e-18)
(0.975361 -0.464245 6.32137e-19)
(0.980683 -0.421387 4.30792e-19)
(-0.288234 0.480826 -2.29559e-18)
(-0.395409 0.669948 -7.7479e-18)
(-0.274456 0.521105 3.55607e-18)
(-0.0196607 0.17418 6.39836e-19)
(0.384057 -0.229007 -7.73392e-18)
(0.728765 -0.531938 4.26083e-18)
(0.934184 -0.693085 1.04193e-19)
(1.02953 -0.742905 -9.97211e-19)
(1.05833 -0.726342 -4.21251e-18)
(1.05729 -0.679348 -4.41456e-19)
(1.04268 -0.620356 2.58751e-18)
(1.03049 -0.564925 2.41025e-19)
(1.01374 -0.504563 3.78643e-19)
(1.00286 -0.461087 8.19986e-19)
(1.00406 -0.416412 -1.45489e-18)
(-0.282247 0.449849 -3.70896e-18)
(-0.392293 0.650715 2.38879e-20)
(-0.266381 0.512558 -4.49104e-18)
(0.0156406 0.160561 3.67371e-18)
(0.455063 -0.240684 4.4928e-18)
(0.80829 -0.533521 -2.98249e-18)
(1.00663 -0.684756 -3.22887e-19)
(1.09046 -0.728666 -1.55367e-18)
(1.10895 -0.710263 3.05777e-18)
(1.09977 -0.664075 7.25811e-19)
(1.07953 -0.607546 -4.17634e-18)
(1.06275 -0.553784 1.10601e-18)
(1.04208 -0.496405 3.79406e-19)
(1.02944 -0.455915 -1.44272e-18)
(1.02607 -0.409564 7.29424e-20)
(-0.274587 0.416243 8.82215e-19)
(-0.387538 0.626663 2.28242e-18)
(-0.258798 0.498819 4.46718e-18)
(0.0551446 0.141783 -3.64235e-18)
(0.52894 -0.253034 8.58143e-20)
(0.886209 -0.532451 7.9237e-18)
(1.07507 -0.672513 -1.62797e-20)
(1.14691 -0.710595 2.5949e-19)
(1.1556 -0.690934 5.30975e-18)
(1.13911 -0.646177 -2.41419e-18)
(1.11399 -0.592481 9.59453e-19)
(1.09317 -0.54084 -2.498e-18)
(1.06915 -0.486994 1.41973e-19)
(1.05479 -0.448668 -4.33106e-19)
(1.04639 -0.401012 5.21991e-19)
(-0.265793 0.381192 -6.23309e-19)
(-0.381395 0.598507 2.98119e-18)
(-0.251474 0.479689 -3.84365e-18)
(0.100452 0.117811 8.3236e-18)
(0.605229 -0.26602 -6.44687e-18)
(0.961587 -0.528964 -5.1771e-18)
(1.1388 -0.656882 -3.05858e-18)
(1.19849 -0.689325 -4.92061e-18)
(1.19808 -0.668949 -7.04036e-18)
(1.17519 -0.626111 5.12723e-19)
(1.14601 -0.575527 3.12567e-18)
(1.12171 -0.526457 1.88999e-18)
(1.09487 -0.476353 1.2763e-19)
(1.07869 -0.439211 -9.73866e-19)
(1.0649 -0.390852 -2.68125e-19)
(-0.256428 0.34583 1.63133e-18)
(-0.374174 0.56697 2.82451e-18)
(-0.243867 0.454686 -1.20457e-17)
(0.153494 0.0888636 -8.30984e-18)
(0.683364 -0.279282 -2.28341e-19)
(1.03358 -0.523256 5.79753e-18)
(1.19729 -0.638424 -1.48206e-18)
(1.24498 -0.665508 1.06877e-17)
(1.23636 -0.644887 2.0957e-19)
(1.20807 -0.604337 -3.76526e-18)
(1.17563 -0.557083 -2.4963e-18)
(1.1484 -0.51094 -2.9407e-18)
(1.11929 -0.464431 2.82961e-18)
(1.10108 -0.427492 1.32961e-18)
(1.08163 -0.379445 -7.05263e-20)
(-0.247025 0.311267 -4.52233e-18)
(-0.366441 0.53284 -8.314e-18)
(-0.234993 0.423087 6.02068e-18)
(0.215845 0.0558401 7.4122e-18)
(0.762498 -0.292397 4.47149e-18)
(1.10145 -0.51554 -3.81504e-18)
(1.25022 -0.617704 8.97472e-18)
(1.28634 -0.639776 -9.86591e-18)
(1.27052 -0.619309 8.85464e-18)
(1.23782 -0.581312 4.39983e-18)
(1.20287 -0.537525 -1.08422e-18)
(1.1733 -0.494543 -1.14779e-18)
(1.14242 -0.451192 -1.16374e-18)
(1.12186 -0.413794 -1.72755e-18)
(1.09685 -0.367601 1.69911e-18)
(-0.237984 0.278627 1.28102e-17)
(-0.359099 0.497025 9.67018e-18)
(-0.222949 0.38417 2.21649e-18)
(0.288399 0.02 -1.42503e-19)
(0.841691 -0.304858 -1.5568e-18)
(1.16462 -0.506018 -1.83075e-18)
(1.29748 -0.595261 -6.98676e-18)
(1.32271 -0.61272 9.95889e-18)
(1.30075 -0.592735 -6.25786e-18)
(1.2646 -0.557441 2.21275e-19)
(1.22781 -0.517175 3.79975e-18)
(1.19648 -0.47745 1.97697e-18)
(1.16426 -0.436673 1.55903e-18)
(1.14113 -0.398772 3.28981e-20)
(1.11109 -0.356761 -1.15901e-18)
(-0.229511 0.24902 -7.71653e-18)
(-0.353307 0.460539 -7.8453e-18)
(-0.204516 0.337738 2.39209e-18)
(0.370869 -0.0171723 -4.01432e-18)
(0.919936 -0.316152 -1.86852e-18)
(1.22274 -0.494874 5.982e-18)
(1.33918 -0.571579 -1.64588e-18)
(1.35436 -0.584861 -1.11622e-18)
(1.3273 -0.565603 -2.92029e-18)
(1.28858 -0.533066 -5.16153e-18)
(1.25057 -0.496309 2.06429e-18)
(1.21803 -0.459786 -1.90807e-18)
(1.1849 -0.421147 -2.09768e-18)
(1.15917 -0.383553 -6.74033e-19)
(1.12523 -0.346645 2.14724e-18)
(-0.22155 0.223421 8.6462e-18)
(-0.349999 0.42458 -6.65241e-18)
(-0.174611 0.28422 -1.09176e-17)
(0.461596 -0.0542132 1.16648e-18)
(0.996229 -0.325765 2.60883e-18)
(1.27566 -0.482243 -1.59532e-18)
(1.37556 -0.547065 4.35027e-18)
(1.38165 -0.556629 1.01809e-18)
(1.35051 -0.538279 -8.27173e-19)
(1.30997 -0.508484 -4.14367e-19)
(1.27125 -0.475133 -2.24455e-18)
(1.23797 -0.441716 1.30685e-19)
(1.20432 -0.405184 6.4603e-19)
(1.17643 -0.368982 -3.46749e-19)
(1.1426 -0.336316 2.61237e-18)
(-0.213679 0.202531 1.77931e-18)
(-0.349592 0.390223 -3.81133e-18)
(-0.128431 0.226018 1.04941e-17)
(0.557706 -0.0896975 8.33742e-18)
(1.06957 -0.33315 -8.27657e-18)
(1.32341 -0.468197 -4.54225e-19)
(1.40702 -0.522039 -3.15433e-18)
(1.40502 -0.528366 -9.58342e-19)
(1.37071 -0.511049 6.41559e-18)
(1.32899 -0.483909 2.64814e-18)
(1.28995 -0.453807 3.32715e-18)
(1.25633 -0.423467 -1.96802e-18)
(1.2224 -0.389291 1.09552e-18)
(1.19308 -0.354951 -4.99513e-19)
(1.15819 -0.321395 -3.31604e-18)
(-0.205605 0.186177 1.41597e-18)
(-0.350641 0.357469 2.24789e-18)
(-0.0625488 0.167498 -5.73296e-18)
(0.655768 -0.122441 -6.73598e-18)
(1.139 -0.337792 -5.95685e-18)
(1.3661 -0.452779 4.90751e-19)
(1.43402 -0.496744 3.632e-18)
(1.42491 -0.500327 -6.33306e-18)
(1.38824 -0.484113 -3.14312e-18)
(1.34585 -0.459498 1.41556e-18)
(1.30678 -0.432478 -3.14224e-18)
(1.27312 -0.405208 2.37914e-19)
(1.23914 -0.37355 1.39421e-18)
(1.20828 -0.340242 -1.3759e-18)
(1.17207 -0.313378 1.01024e-18)
(-0.197493 0.173169 -3.24391e-18)
(-0.350552 0.325543 7.22636e-18)
(0.0238995 0.112983 4.6528e-18)
(0.752664 -0.151346 3.20869e-18)
(1.20362 -0.339332 5.10021e-18)
(1.4039 -0.436069 -5.20316e-19)
(1.45704 -0.47137 -3.46871e-18)
(1.4418 -0.472691 7.77049e-19)
(1.40344 -0.45761 3.90067e-18)
(1.36077 -0.43537 -6.2167e-18)
(1.32186 -0.411237 -2.73941e-18)
(1.28835 -0.387001 -4.75929e-20)
(1.25435 -0.357833 -4.80968e-19)
(1.22219 -0.327692 1.96394e-18)
(1.18639 -0.298009 -1.28336e-18)
(-0.190103 0.161687 3.53863e-18)
(-0.346542 0.293124 2.35953e-18)
(0.128575 0.0647529 -2.7681e-19)
(0.846229 -0.175679 -2.06162e-18)
(1.26272 -0.337766 4.32747e-19)
(1.43699 -0.418228 -5.63183e-18)
(1.47656 -0.44607 1.11327e-18)
(1.45613 -0.445574 -2.21255e-18)
(1.41662 -0.431619 -2.32278e-18)
(1.37395 -0.411585 4.31972e-18)
(1.33528 -0.390129 5.5366e-18)
(1.30201 -0.368837 2.2089e-18)
(1.26808 -0.342742 1.57334e-18)
(1.23495 -0.313046 -1.72402e-18)
(1.19716 -0.289779 -1.46626e-18)
(-0.184999 0.150169 2.92635e-18)
(-0.335943 0.25797 -5.48784e-18)
(0.246087 0.0230467 -2.54531e-18)
(0.935415 -0.195095 -5.80222e-18)
(1.31599 -0.333386 2.55685e-18)
(1.46563 -0.399492 5.88612e-18)
(1.49305 -0.420968 -6.34069e-18)
(1.4683 -0.419035 2.15961e-18)
(1.42808 -0.406166 3.85678e-18)
(1.38557 -0.388167 1.1103e-18)
(1.34716 -0.369156 -3.78579e-18)
(1.31415 -0.350778 -1.2004e-18)
(1.28035 -0.327142 3.03509e-20)
(1.24598 -0.301325 8.62911e-19)
(1.20911 -0.275752 2.70973e-18)
(-0.184392 0.137937 -4.74793e-18)
(-0.3144 0.217011 -4.7365e-18)
(0.369086 -0.0124115 2.56456e-18)
(1.01986 -0.209634 1.02625e-17)
(1.36358 -0.326609 -6.4572e-18)
(1.4902 -0.380102 1.70623e-18)
(1.50694 -0.39615 2.4047e-18)
(1.47868 -0.393084 -2.13633e-19)
(1.43807 -0.381241 5.18243e-19)
(1.39582 -0.365105 2.14904e-18)
(1.35761 -0.348306 -1.83398e-18)
(1.32481 -0.332519 -2.96347e-18)
(1.29113 -0.312392 -1.95785e-18)
(1.25642 -0.28697 1.5322e-18)
(1.21798 -0.266742 3.41889e-19)
(-0.189895 0.124664 -1.17224e-18)
(-0.276377 0.170054 9.39727e-18)
(0.491037 -0.0420497 2.01641e-18)
(1.09928 -0.219662 2.7243e-18)
(1.40602 -0.317736 2.3657e-18)
(1.51118 -0.360226 2.14788e-18)
(1.51863 -0.371657 -7.44623e-19)
(1.48757 -0.3677 1.33176e-18)
(1.44681 -0.356804 6.39515e-19)
(1.40485 -0.342361 2.69074e-18)
(1.36674 -0.327488 1.1957e-19)
(1.33405 -0.314314 2.06695e-18)
(1.30072 -0.296565 -1.19676e-18)
(1.26511 -0.275265 -8.63427e-19)
(1.22807 -0.254234 4.74754e-19)
(-0.201401 0.111047 4.31536e-18)
(-0.218317 0.121684 -3.83493e-18)
(0.607592 -0.0670742 5.0873e-19)
(1.17322 -0.225486 -5.55889e-18)
(1.44398 -0.306815 -4.39528e-18)
(1.52917 -0.339922 7.26983e-18)
(1.5285 -0.347487 1.96661e-18)
(1.49522 -0.342835 -2.78822e-18)
(1.45448 -0.332798 7.43735e-19)
(1.41281 -0.319878 -7.25184e-18)
(1.37469 -0.306721 2.23783e-18)
(1.34202 -0.295578 -2.26688e-18)
(1.30897 -0.281425 2.0354e-18)
(1.27372 -0.260928 -3.50258e-19)
(1.23652 -0.244053 -7.94453e-19)
(-0.217308 0.0977847 -6.75168e-18)
(-0.139261 0.0762351 -6.72272e-18)
(0.717106 -0.0886846 -6.9608e-18)
(1.24148 -0.227166 -5.11955e-18)
(1.47796 -0.293881 3.23661e-18)
(1.54467 -0.31919 -1.2363e-17)
(1.53692 -0.323597 1.13438e-18)
(1.50186 -0.318426 9.52213e-19)
(1.46124 -0.309162 4.88523e-19)
(1.41985 -0.297614 3.36781e-18)
(1.38161 -0.285848 -2.46097e-18)
(1.34881 -0.276776 4.86306e-18)
(1.31642 -0.264742 -8.80169e-19)
(1.28104 -0.248288 -1.32093e-18)
(1.24617 -0.231816 6.65269e-19)
(-0.23473 0.0851237 1.20817e-18)
(-0.0418957 0.0363554 5.46845e-18)
(0.818672 -0.107002 8.08696e-18)
(1.30379 -0.224909 1.19349e-18)
(1.50826 -0.279014 5.83027e-18)
(1.55814 -0.297998 3.00864e-18)
(1.54417 -0.299918 8.78557e-19)
(1.50767 -0.2944 -4.27345e-18)
(1.46721 -0.285832 -2.35732e-19)
(1.42608 -0.275492 1.7323e-18)
(1.38765 -0.264975 5.96859e-18)
(1.35467 -0.257197 -6.66855e-19)
(1.32281 -0.248371 1.45013e-18)
(1.2887 -0.233191 1.18206e-18)
(1.25534 -0.219729 1.59341e-18)
(-0.250065 0.0732869 2.23774e-18)
(0.068619 0.00344751 -7.39066e-18)
(0.912377 -0.121533 -1.60384e-18)
(1.36003 -0.219081 -5.60125e-21)
(1.5351 -0.26235 -1.09655e-17)
(1.5699 -0.276316 2.69465e-18)
(1.55051 -0.276372 -1.20265e-18)
(1.5128 -0.27068 1.39508e-18)
(1.47252 -0.26275 4.43488e-18)
(1.43161 -0.253502 -1.52269e-18)
(1.39297 -0.243925 -4.42352e-18)
(1.35967 -0.237493 -4.63573e-19)
(1.32879 -0.230229 -4.95494e-19)
(1.29561 -0.218752 -1.04299e-18)
(1.26547 -0.206181 -1.73793e-18)
(-0.258791 0.0627723 4.40581e-19)
(0.186772 -0.0217125 1.95316e-18)
(0.999003 -0.131671 -5.32296e-18)
(1.41026 -0.210135 2.09116e-18)
(1.55863 -0.244084 4.56151e-18)
(1.58015 -0.254135 -1.75762e-18)
(1.55611 -0.252883 -3.93129e-19)
(1.51738 -0.247195 -3.68091e-18)
(1.47725 -0.239871 6.30932e-19)
(1.43655 -0.231575 -2.468e-18)
(1.3977 -0.222906 2.09031e-18)
(1.36411 -0.216984 -1.48944e-18)
(1.334 -0.212129 2.28078e-18)
(1.30306 -0.202173 -7.37594e-19)
(1.2755 -0.19154 -1.23639e-18)
(-0.258152 0.0551478 2.58875e-18)
(0.308445 -0.0391273 1.55857e-18)
(1.07959 -0.137021 1.38463e-18)
(1.45472 -0.198468 3.22895e-19)
(1.57897 -0.224447 2.1133e-18)
(1.58903 -0.231479 -4.60478e-18)
(1.56107 -0.229391 2.37497e-18)
(1.52149 -0.223878 5.18565e-18)
(1.48147 -0.21715 -5.23235e-19)
(1.44097 -0.209745 3.51351e-18)
(1.402 -0.201751 1.92892e-18)
(1.36799 -0.196478 3.32085e-19)
(1.33906 -0.19244 4.48017e-19)
(1.31002 -0.185603 7.18923e-19)
(1.28561 -0.175932 1.49673e-18)
(-0.248926 0.049466 4.04622e-18)
(0.42844 -0.0494827 5.50359e-18)
(1.15509 -0.137012 -4.86265e-18)
(1.49393 -0.184374 4.22665e-18)
(1.59631 -0.203687 -8.98675e-18)
(1.59663 -0.208404 1.95772e-18)
(1.56544 -0.20586 -6.9508e-19)
(1.52517 -0.200679 -3.24224e-18)
(1.48524 -0.194569 -5.42242e-18)
(1.44493 -0.187959 -1.93791e-18)
(1.40592 -0.180737 -4.44088e-18)
(1.37161 -0.17541 2.52082e-18)
(1.34353 -0.17283 -2.91682e-18)
(1.31724 -0.167489 1.6702e-18)
(1.2952 -0.159044 9.68043e-19)
(-0.230906 0.042769 -9.58799e-18)
(0.54201 -0.053166 4.20477e-19)
(1.22573 -0.131676 5.99294e-19)
(1.52851 -0.168028 1.13625e-18)
(1.61092 -0.181987 5.69276e-19)
(1.603 -0.184976 3.87227e-18)
(1.56922 -0.182279 1.97071e-18)
(1.52843 -0.177566 -5.01639e-19)
(1.48859 -0.172105 2.41889e-18)
(1.44846 -0.166284 1.44735e-18)
(1.40958 -0.159695 6.26207e-19)
(1.37487 -0.154633 -1.38644e-18)
(1.34786 -0.152202 4.08029e-18)
(1.32383 -0.149304 6.43786e-19)
(1.3038 -0.141925 -1.08476e-18)
(-0.202275 0.0333536 8.93971e-18)
(0.646255 -0.0512047 -6.19983e-18)
(1.29078 -0.121522 1.93338e-18)
(1.55895 -0.149505 -1.58775e-19)
(1.62311 -0.159455 8.59857e-18)
(1.60823 -0.161265 -6.88146e-19)
(1.57243 -0.158658 -2.37961e-18)
(1.53126 -0.154523 5.53819e-18)
(1.49152 -0.149768 4.77194e-19)
(1.45159 -0.144677 1.88952e-18)
(1.41293 -0.138911 -3.5825e-18)
(1.37799 -0.133691 1.15526e-19)
(1.3516 -0.131959 -1.20203e-18)
(1.33003 -0.130395 -1.43187e-19)
(1.31122 -0.124073 -5.99593e-19)
(-0.161484 0.0227591 -2.37994e-18)
(0.742463 -0.0451033 6.68345e-18)
(1.3499 -0.107567 3.86291e-18)
(1.58555 -0.12898 2.87063e-18)
(1.63318 -0.136178 -1.37226e-18)
(1.61242 -0.137328 -4.9729e-19)
(1.57505 -0.135019 3.17891e-18)
(1.53364 -0.131552 -2.3591e-18)
(1.49403 -0.127547 6.84839e-19)
(1.45429 -0.123226 -3.2562e-18)
(1.416 -0.118198 1.91598e-19)
(1.3808 -0.113313 4.15413e-19)
(1.35503 -0.111388 -4.99422e-19)
(1.33521 -0.111684 -2.80195e-18)
(1.31706 -0.106643 1.03807e-18)
(-0.111195 0.0125327 -4.27504e-18)
(0.831239 -0.0362432 -5.26486e-18)
(1.40269 -0.0905381 2.72726e-18)
(1.60838 -0.106812 -3.37064e-19)
(1.64137 -0.112264 -3.60587e-18)
(1.61566 -0.113209 -1.05865e-19)
(1.57708 -0.111382 -2.24105e-18)
(1.53556 -0.108658 -4.15157e-18)
(1.49611 -0.105469 -1.52143e-18)
(1.45657 -0.101893 1.3609e-18)
(1.4187 -0.0977969 1.13463e-18)
(1.38342 -0.0930813 -8.81526e-20)
(1.35775 -0.0915259 -1.47098e-18)
(1.33946 -0.0929517 2.39661e-18)
(1.32151 -0.0890439 6.61299e-19)
(-0.0533207 0.0029051 4.22299e-18)
(0.91321 -0.0253062 4.19162e-20)
(1.44939 -0.0712078 -6.53408e-18)
(1.62761 -0.0833921 -1.03317e-19)
(1.64784 -0.0878436 8.82055e-19)
(1.61805 -0.0889496 1.43418e-18)
(1.57854 -0.0877659 -2.4226e-18)
(1.53699 -0.0858565 1.14389e-18)
(1.49773 -0.0835267 -5.7527e-20)
(1.45839 -0.080769 1.10171e-18)
(1.42103 -0.0775137 -9.07264e-19)
(1.38565 -0.0735103 -2.33119e-18)
(1.35998 -0.0718264 -1.15655e-19)
(1.34246 -0.074631 -1.17082e-18)
(1.32444 -0.072094 -8.76342e-19)
(0.00990111 -0.00585252 1.72698e-18)
(0.988794 -0.0126562 -3.53516e-18)
(1.49033 -0.0501708 3.33476e-18)
(1.64349 -0.0590749 -1.01408e-18)
(1.65275 -0.0630531 -5.059e-19)
(1.61965 -0.0645909 -1.25652e-18)
(1.57944 -0.0641834 1.96408e-18)
(1.53791 -0.0631531 1.15825e-18)
(1.49887 -0.0617456 -6.48473e-19)
(1.45975 -0.0598154 -1.69808e-18)
(1.42286 -0.0575388 -5.66858e-19)
(1.38757 -0.0541766 2.41838e-18)
(1.36145 -0.0529432 1.36406e-18)
(1.34434 -0.0565881 1.21843e-18)
(1.32624 -0.0551287 -3.30294e-19)
(0.0766863 -0.0134044 -1.07854e-18)
(1.05847 0.00139515 3.82456e-19)
(1.52603 -0.0278701 -1.36214e-18)
(1.65635 -0.0341306 1.13688e-20)
(1.65623 -0.0380047 -9.08467e-19)
(1.62049 -0.0401656 -1.25558e-18)
(1.57976 -0.0406419 4.07802e-19)
(1.53829 -0.0405579 -2.31183e-18)
(1.4995 -0.0401156 1.87592e-18)
(1.46061 -0.0391112 2.19165e-18)
(1.4242 -0.0377035 2.32135e-19)
(1.38898 -0.0354124 -2.12452e-18)
(1.36235 -0.0343825 -1.87237e-18)
(1.34503 -0.0389014 -1.27811e-18)
(1.3268 -0.0386979 4.39916e-19)
(0.145663 -0.0189237 -3.49311e-18)
(1.12259 0.0170113 9.32076e-19)
(1.55699 -0.00454587 -7.1085e-19)
(1.66651 -0.00873751 -4.0332e-20)
(1.65841 -0.0127788 -2.63831e-19)
(1.62059 -0.015699 -4.78915e-19)
(1.57948 -0.0171484 8.50572e-19)
(1.53812 -0.0180728 -4.5706e-19)
(1.49958 -0.0186578 -5.27882e-19)
(1.46095 -0.0186131 -9.92692e-19)
(1.42496 -0.0181778 -8.38233e-19)
(1.38993 -0.0168299 -3.68925e-19)
(1.36253 -0.016505 1.17289e-18)
(1.34473 -0.0214805 -4.60353e-20)
(1.32656 -0.0222085 7.50471e-19)
(0.215215 -0.0216635 1.45124e-18)
(1.18144 0.0341797 2.4347e-18)
(1.58366 0.0196479 4.2784e-19)
(1.67429 0.0169944 1.37727e-18)
(1.65942 0.0125731 2.66601e-18)
(1.61996 0.00878895 9.02416e-19)
(1.5786 0.00629031 3.16451e-18)
(1.53736 0.00429411 1.54193e-18)
(1.49909 0.00263724 9.16998e-19)
(1.46074 0.00162065 1.9499e-18)
(1.42515 0.00115893 5.58102e-19)
(1.39028 0.00131892 9.52721e-19)
(1.36221 0.00108318 4.48618e-19)
(1.3435 -0.00430734 1.77687e-19)
(1.32537 -0.00613713 5.3558e-19)
(0.284199 -0.0211802 2.03254e-18)
(1.23525 0.0529863 -3.42404e-18)
(1.60644 0.0446282 -6.3207e-19)
(1.67995 0.0430054 1.35751e-18)
(1.65934 0.0380227 -2.70515e-18)
(1.6186 0.0332852 -1.01369e-18)
(1.57708 0.0296683 -1.92612e-18)
(1.536 0.0265426 -4.39244e-20)
(1.49798 0.0237491 -4.42917e-19)
(1.45997 0.0216345 -1.64482e-18)
(1.42474 0.0201459 1.17972e-18)
(1.39009 0.0193108 8.79015e-20)
(1.36126 0.0181354 -4.42294e-20)
(1.3415 0.0125685 3.13968e-19)
(1.32355 0.00994065 -6.52563e-19)
(0.351688 -0.0172371 -1.38585e-19)
(1.28422 0.0735059 1.4892e-18)
(1.62567 0.07036 4.07218e-19)
(1.68373 0.0692725 -1.90948e-18)
(1.65825 0.0635612 1.18162e-18)
(1.61652 0.0577858 3.44428e-19)
(1.57489 0.0529845 -8.78248e-19)
(1.53398 0.048665 -3.94513e-19)
(1.49623 0.0446823 -1.10292e-18)
(1.4586 0.0413835 1.72914e-19)
(1.42375 0.0388718 -1.14133e-18)
(1.38927 0.0369106 -7.47239e-19)
(1.35985 0.0349055 1.82895e-19)
(1.3388 0.0291326 1.67892e-19)
(1.32092 0.0255915 -2.80842e-19)
(0.416925 -0.00975287 -7.61451e-19)
(1.3285 0.0957674 -4.74827e-19)
(1.64162 0.0968034 9.79171e-19)
(1.68578 0.0957814 1.62959e-18)
(1.65619 0.0891901 2.94806e-19)
(1.61367 0.0822921 -7.61452e-19)
(1.57199 0.0762349 8.96515e-19)
(1.53128 0.0706559 7.40594e-19)
(1.49381 0.0654146 3.60019e-19)
(1.45659 0.0609037 5.972e-20)
(1.42216 0.0572043 3.64825e-19)
(1.3879 0.0542874 1.48079e-19)
(1.3579 0.0511875 -8.95728e-20)
(1.33552 0.045222 -1.1216e-19)
(1.31767 0.0410338 8.67562e-20)
(0.479292 0.00122095 -3.54499e-19)
(1.36826 0.119773 -3.95965e-19)
(1.65453 0.123935 3.01978e-19)
(1.68623 0.122532 -3.90396e-19)
(1.65317 0.114915 -7.74922e-19)
(1.61004 0.106801 5.65343e-20)
(1.56835 0.0994127 4.2416e-19)
(1.52785 0.0925034 -3.56607e-19)
(1.49067 0.0859469 2.237e-19)
(1.45389 0.0801534 4.25285e-19)
(1.41997 0.0752289 6.50851e-20)
(1.38588 0.0712245 1.45009e-19)
(1.35553 0.0671139 -1.61581e-19)
(1.33175 0.0608294 9.98071e-20)
(1.31368 0.0559336 -6.89416e-20)
(0.538254 0.0155067 -1.1317e-19)
(1.40371 0.145475 -4.41783e-20)
(1.66461 0.151731 -5.32286e-19)
(1.68515 0.149526 5.57651e-20)