/*--------------------------------*- C++ -*----------------------------------*\
  =========                 |
  \\      /  F ield         | OpenFOAM: The Open Source CFD Toolbox
   \\    /   O peration     | Website:  https://openfoam.org
    \\  /    A nd           | Version:  7
     \\/     M anipulation  |
\*---------------------------------------------------------------------------*/
FoamFile
{
    version     2.0;
    format      ascii;
    class       volScalarField;
    location    "25.0008";
    object      p;
}
// * * * * * * * * * * * * * * * * * * * * * * * * * * * * * * * * * * * * * //

dimensions      [0 2 -2 0 0 0 0];

internalField   nonuniform List<scalar> 
18750
(
-0.0202275
-0.0295059
-0.0456481
-0.0695012
-0.0996475
-0.135523
-0.176327
-0.221419
-0.270109
-0.3218
-0.375872
-0.431628
-0.488173
-0.544476
-0.599566
-0.023698
-0.0327429
-0.0486721
-0.0723401
-0.102332
-0.13808
-0.178778
-0.223779
-0.272384
-0.323991
-0.377986
-0.433679
-0.490156
-0.546331
-0.601197
-0.0307044
-0.0392841
-0.0547867
-0.0780846
-0.107768
-0.143262
-0.183751
-0.228572
-0.277006
-0.328442
-0.382275
-0.43783
-0.494164
-0.550092
-0.604542
-0.0409641
-0.0488717
-0.0637484
-0.0865021
-0.115729
-0.150843
-0.191014
-0.235555
-0.283722
-0.334884
-0.388444
-0.443749
-0.499834
-0.555404
-0.609299
-0.0540713
-0.0611333
-0.0752057
-0.0972596
-0.125893
-0.160503
-0.200241
-0.244395
-0.292184
-0.342952
-0.396103
-0.451013
-0.506715
-0.561825
-0.615081
-0.0695229
-0.0755959
-0.0887171
-0.109944
-0.137863
-0.171852
-0.211043
-0.254694
-0.301987
-0.35223
-0.404822
-0.459168
-0.514334
-0.568888
-0.621466
-0.0867582
-0.091698
-0.103774
-0.124087
-0.151195
-0.184458
-0.222991
-0.266023
-0.3127
-0.362286
-0.414166
-0.467775
-0.522242
-0.576149
-0.62805
-0.105157
-0.108836
-0.119836
-0.13919
-0.165417
-0.197867
-0.235643
-0.277946
-0.32389
-0.372697
-0.423726
-0.476436
-0.53005
-0.583225
-0.634473
-0.124049
-0.126408
-0.136363
-0.154754
-0.180058
-0.211631
-0.248565
-0.290041
-0.335148
-0.38307
-0.433132
-0.484812
-0.537433
-0.589798
-0.640431
-0.142757
-0.143822
-0.152838
-0.170297
-0.194665
-0.225322
-0.26135
-0.301919
-0.346102
-0.393053
-0.442062
-0.492614
-0.544132
-0.595611
-0.645669
-0.160642
-0.160534
-0.168788
-0.185371
-0.208818
-0.238545
-0.273629
-0.313232
-0.356423
-0.402339
-0.450241
-0.499608
-0.549945
-0.600464
-0.649974
-0.177112
-0.176083
-0.18379
-0.199572
-0.222142
-0.250954
-0.285078
-0.323678
-0.365829
-0.410666
-0.457434
-0.505597
-0.554714
-0.6042
-0.653164
-0.191674
-0.190151
-0.197474
-0.212547
-0.23432
-0.262254
-0.295421
-0.333002
-0.374085
-0.417817
-0.463443
-0.510416
-0.558315
-0.606701
-0.655063
-0.203918
-0.202531
-0.209511
-0.224012
-0.245094
-0.272203
-0.304435
-0.341
-0.381003
-0.423617
-0.468101
-0.513916
-0.560644
-0.607894
-0.655486
-0.213838
-0.21285
-0.219642
-0.233753
-0.25427
-0.280615
-0.311941
-0.347508
-0.386432
-0.427926
-0.471275
-0.515964
-0.5616
-0.607756
-0.654241
-0.221443
-0.22093
-0.227781
-0.241641
-0.261712
-0.287353
-0.317812
-0.352406
-0.390255
-0.430638
-0.472861
-0.516442
-0.561053
-0.606257
-0.651358
-0.226816
-0.226816
-0.233912
-0.247684
-0.267327
-0.29234
-0.321981
-0.355598
-0.392386
-0.431671
-0.472781
-0.515263
-0.558867
-0.603247
-0.647074
-0.230205
-0.230708
-0.238076
-0.251832
-0.271138
-0.295561
-0.324411
-0.357046
-0.392775
-0.430962
-0.470976
-0.512366
-0.554966
-0.598593
-0.641353
-0.232015
-0.232893
-0.240398
-0.254122
-0.273148
-0.297004
-0.325065
-0.356728
-0.391395
-0.428474
-0.467408
-0.507723
-0.549277
-0.592281
-0.633987
-0.232736
-0.233679
-0.241049
-0.254657
-0.273404
-0.296695
-0.323952
-0.354647
-0.388233
-0.424182
-0.462039
-0.501316
-0.541735
-0.584267
-0.62487
-0.23283
-0.23333
-0.240211
-0.253584
-0.27201
-0.294703
-0.321125
-0.350823
-0.383293
-0.418064
-0.454814
-0.493141
-0.532293
-0.574481
-0.613969
-0.232574
-0.231981
-0.238074
-0.251091
-0.269102
-0.291131
-0.31666
-0.345293
-0.376596
-0.410122
-0.445664
-0.483186
-0.52092
-0.562859
-0.601274
-0.231944
-0.229618
-0.234872
-0.247396
-0.264837
-0.2861
-0.310656
-0.338124
-0.36817
-0.400394
-0.434516
-0.471416
-0.507602
-0.549366
-0.586763
-0.230666
-0.226242
-0.230931
-0.242744
-0.259385
-0.279754
-0.303236
-0.329402
-0.358041
-0.388953
-0.421324
-0.457765
-0.492321
-0.533994
-0.570471
-0.228493
-0.222223
-0.226657
-0.237384
-0.252949
-0.272272
-0.294551
-0.319257
-0.346219
-0.375868
-0.406103
-0.442142
-0.475051
-0.516658
-0.552549
-0.225434
-0.218436
-0.22241
-0.23158
-0.245795
-0.263891
-0.284773
-0.307861
-0.332737
-0.361156
-0.388955
-0.424448
-0.455833
-0.497143
-0.53305
-0.221776
-0.215659
-0.218363
-0.225654
-0.238289
-0.254915
-0.274095
-0.295425
-0.317691
-0.344771
-0.370044
-0.404559
-0.434941
-0.475329
-0.511912
-0.218183
-0.213904
-0.214598
-0.220041
-0.230878
-0.245736
-0.26275
-0.282139
-0.301347
-0.326599
-0.34961
-0.382184
-0.412724
-0.451306
-0.489254
-0.215132
-0.212569
-0.21141
-0.215281
-0.224042
-0.236804
-0.251088
-0.268159
-0.284065
-0.30661
-0.328016
-0.357152
-0.389139
-0.425053
-0.465534
-0.212799
-0.211234
-0.209273
-0.211757
-0.218219
-0.228621
-0.239584
-0.253676
-0.266344
-0.284779
-0.305731
-0.329671
-0.364336
-0.395563
-0.44231
-0.211094
-0.20989
-0.208252
-0.209486
-0.213754
-0.221634
-0.228934
-0.238933
-0.248686
-0.261582
-0.282728
-0.301033
-0.33781
-0.364599
-0.412452
-0.20984
-0.208819
-0.207809
-0.208282
-0.210873
-0.216172
-0.219801
-0.224696
-0.231282
-0.238142
-0.2587
-0.273145
-0.308819
-0.335808
-0.381273
-0.208865
-0.208036
-0.207541
-0.207926
-0.209555
-0.212421
-0.212618
-0.211809
-0.214714
-0.215389
-0.234715
-0.246487
-0.284817
-0.308297
-0.356021
-0.208017
-0.207432
-0.2074
-0.208124
-0.209427
-0.210299
-0.207484
-0.201203
-0.199518
-0.195265
-0.210603
-0.223053
-0.259287
-0.286049
-0.336342
-0.207147
-0.20686
-0.207322
-0.208526
-0.209845
-0.209412
-0.203991
-0.193682
-0.186098
-0.17917
-0.187651
-0.203371
-0.234478
-0.2692
-0.316735
-0.206121
-0.206179
-0.20714
-0.208823
-0.2102
-0.209128
-0.201604
-0.189066
-0.175697
-0.166983
-0.171272
-0.188273
-0.216515
-0.257396
-0.297535
-0.204844
-0.205263
-0.206643
-0.208686
-0.210081
-0.208756
-0.199906
-0.186398
-0.169023
-0.158547
-0.161506
-0.179186
-0.20531
-0.246653
-0.283562
-0.203276
-0.204029
-0.205677
-0.207919
-0.209227
-0.207789
-0.198488
-0.1846
-0.165904
-0.154375
-0.156659
-0.175129
-0.19961
-0.237131
-0.273706
-0.201451
-0.202472
-0.204201
-0.206437
-0.207593
-0.205857
-0.197067
-0.183189
-0.165663
-0.15469
-0.156239
-0.173672
-0.197441
-0.230281
-0.26551
-0.199498
-0.200675
-0.202294
-0.204319
-0.205156
-0.203301
-0.195791
-0.182921
-0.167328
-0.158332
-0.159689
-0.174476
-0.196972
-0.225701
-0.258193
-0.197637
-0.198857
-0.200223
-0.201761
-0.202379
-0.200852
-0.195727
-0.185171
-0.170786
-0.163903
-0.165112
-0.177182
-0.197245
-0.222415
-0.251616
-0.196122
-0.197309
-0.198399
-0.19965
-0.20007
-0.199153
-0.197224
-0.189157
-0.176121
-0.16978
-0.17086
-0.180608
-0.197862
-0.219807
-0.245547
-0.195149
-0.196265
-0.197165
-0.198218
-0.198641
-0.198335
-0.199153
-0.192352
-0.181623
-0.175304
-0.17601
-0.183963
-0.198549
-0.217387
-0.23988
-0.194791
-0.195812
-0.196591
-0.197528
-0.19802
-0.198278
-0.198891
-0.194796
-0.186047
-0.180143
-0.180412
-0.186817
-0.198987
-0.214981
-0.234506
-0.194977
-0.195883
-0.196576
-0.197389
-0.197784
-0.198688
-0.196545
-0.195713
-0.189131
-0.18409
-0.183948
-0.188967
-0.19905
-0.212472
-0.229312
-0.19557
-0.196335
-0.196907
-0.197522
-0.197806
-0.198109
-0.195364
-0.195239
-0.190871
-0.186973
-0.186576
-0.190418
-0.198644
-0.209774
-0.224256
-0.196417
-0.197017
-0.197397
-0.197715
-0.198405
-0.19553
-0.195234
-0.194544
-0.191578
-0.188786
-0.188285
-0.191153
-0.197752
-0.206883
-0.219265
-0.197393
-0.197822
-0.197927
-0.198008
-0.19921
-0.194232
-0.194918
-0.1939
-0.191638
-0.189639
-0.189099
-0.191212
-0.196395
-0.203767
-0.214303
-0.198423
-0.1987
-0.198389
-0.199018
-0.197627
-0.195276
-0.194649
-0.193249
-0.19129
-0.189715
-0.189119
-0.190624
-0.194578
-0.200444
-0.209339
-0.199481
-0.199611
-0.198794
-0.200799
-0.195162
-0.196061
-0.194588
-0.192624
-0.190649
-0.189186
-0.188454
-0.189442
-0.19234
-0.196913
-0.204335
-0.200589
-0.200464
-0.199691
-0.201715
-0.195515
-0.196088
-0.194324
-0.19196
-0.189779
-0.188187
-0.187228
-0.187729
-0.189699
-0.193178
-0.199274
-0.201791
-0.201211
-0.201703
-0.199872
-0.198189
-0.196439
-0.193921
-0.191175
-0.188689
-0.186813
-0.185537
-0.185548
-0.186699
-0.189242
-0.194123
-0.203113
-0.201927
-0.204483
-0.196952
-0.19942
-0.196867
-0.193484
-0.190246
-0.187378
-0.18512
-0.183462
-0.182969
-0.183372
-0.185099
-0.188864
-0.204492
-0.203058
-0.206316
-0.197385
-0.199308
-0.196866
-0.192985
-0.189199
-0.185858
-0.183149
-0.181057
-0.180041
-0.179758
-0.180762
-0.183478
-0.205912
-0.205288
-0.205899
-0.20182
-0.19997
-0.196633
-0.192295
-0.187984
-0.184131
-0.180924
-0.178363
-0.176813
-0.17589
-0.176229
-0.17796
-0.207412
-0.208803
-0.20347
-0.205636
-0.201431
-0.196478
-0.191443
-0.186592
-0.182203
-0.178465
-0.175406
-0.173311
-0.17179
-0.171511
-0.17232
-0.209036
-0.212922
-0.201043
-0.206548
-0.202438
-0.196425
-0.190538
-0.185039
-0.180073
-0.17578
-0.172203
-0.169561
-0.167474
-0.166612
-0.166571
-0.211069
-0.216182
-0.202507
-0.205975
-0.202575
-0.196209
-0.189569
-0.183355
-0.177755
-0.172876
-0.168763
-0.165572
-0.162948
-0.161538
-0.160739
-0.213899
-0.217757
-0.208376
-0.206542
-0.20229
-0.195678
-0.188445
-0.18152
-0.175246
-0.169754
-0.16509
-0.161352
-0.158217
-0.156296
-0.154834
-0.217875
-0.217604
-0.215485
-0.209105
-0.202375
-0.194923
-0.187081
-0.179481
-0.17253
-0.166409
-0.161181
-0.156902
-0.153282
-0.150887
-0.148863
-0.223405
-0.216522
-0.221225
-0.212622
-0.203132
-0.19417
-0.185486
-0.177191
-0.16957
-0.162822
-0.15703
-0.152219
-0.148141
-0.145314
-0.142808
-0.230665
-0.217171
-0.224948
-0.215979
-0.204297
-0.193525
-0.183709
-0.174625
-0.166332
-0.158969
-0.152621
-0.147297
-0.142788
-0.139567
-0.136645
-0.239338
-0.222112
-0.227511
-0.21856
-0.205383
-0.192888
-0.18177
-0.171781
-0.162787
-0.154821
-0.147938
-0.142124
-0.137214
-0.133632
-0.130341
-0.248703
-0.231586
-0.230307
-0.22023
-0.205965
-0.19203
-0.179614
-0.168648
-0.15892
-0.150358
-0.142959
-0.136685
-0.131405
-0.127492
-0.123868
-0.257512
-0.24335
-0.234098
-0.221241
-0.205822
-0.190717
-0.177136
-0.165197
-0.154716
-0.145559
-0.137666
-0.130962
-0.125342
-0.121128
-0.117213
-0.264487
-0.254051
-0.238486
-0.221889
-0.204942
-0.188803
-0.174221
-0.161376
-0.150155
-0.140413
-0.132041
-0.124932
-0.119
-0.114523
-0.110374
-0.268804
-0.261683
-0.242156
-0.222165
-0.203428
-0.186247
-0.17079
-0.157132
-0.145212
-0.134902
-0.126069
-0.118576
-0.112353
-0.10765
-0.103339
-0.270538
-0.265991
-0.244366
-0.221847
-0.201351
-0.183082
-0.166806
-0.152419
-0.139857
-0.129011
-0.119737
-0.111876
-0.105377
-0.100478
-0.0960775
-0.270762
-0.267664
-0.245
-0.220743
-0.198709
-0.179343
-0.162265
-0.147209
-0.134063
-0.122722
-0.113034
-0.104823
-0.0980598
-0.0929779
-0.0885107
-0.270498
-0.267602
-0.244226
-0.218761
-0.195454
-0.175039
-0.157169
-0.141484
-0.127807
-0.116015
-0.105945
-0.0974143
-0.0904081
-0.0851453
-0.080513
-0.270388
-0.266546
-0.242309
-0.215898
-0.191535
-0.170153
-0.151515
-0.135232
-0.12107
-0.108873
-0.0984591
-0.0896472
-0.0824434
-0.0770214
-0.071946
-0.27067
-0.26492
-0.239471
-0.212184
-0.186909
-0.164653
-0.145289
-0.128442
-0.113837
-0.101278
-0.0905626
-0.0815201
-0.0741881
-0.0686789
-0.062753
-0.271264
-0.262918
-0.235872
-0.207658
-0.181546
-0.1585
-0.138464
-0.121096
-0.106093
-0.0932195
-0.0822506
-0.0730355
-0.0656582
-0.0601457
-0.0530743
-0.271886
-0.260592
-0.231594
-0.202339
-0.175416
-0.151651
-0.131007
-0.113172
-0.097826
-0.0846959
-0.073531
-0.0642086
-0.0568747
-0.0513057
-0.0432865
-0.272142
-0.25788
-0.226647
-0.196219
-0.168484
-0.144064
-0.122886
-0.104651
-0.0890285
-0.075714
-0.0644241
-0.0550702
-0.0478594
-0.0419431
-0.0336406
-0.271648
-0.254545
-0.220957
-0.189259
-0.160712
-0.135701
-0.114073
-0.0955232
-0.0797017
-0.0662864
-0.0549504
-0.0456669
-0.0385272
-0.0321471
-0.0240696
-0.270093
-0.250217
-0.214387
-0.181401
-0.152061
-0.126534
-0.104559
-0.0857943
-0.069858
-0.0564182
-0.0451079
-0.0359563
-0.0288282
-0.0220724
-0.0144758
-0.267178
-0.244612
-0.206781
-0.172572
-0.142499
-0.116553
-0.0943514
-0.0754786
-0.0595145
-0.04608
-0.0348875
-0.0259036
-0.0187554
-0.0118199
-0.00479557
-0.26267
-0.23754
-0.197994
-0.162707
-0.132005
-0.105772
-0.0834671
-0.0645693
-0.0486316
-0.0352863
-0.0242844
-0.015494
-0.00834248
-0.00142038
0.00499549
-0.256387
-0.228872
-0.187905
-0.151751
-0.120584
-0.0942117
-0.0718856
-0.0530354
-0.0372099
-0.0240478
-0.0133002
-0.00473249
0.00236124
0.00914079
0.0149047
-0.248213
-0.218546
-0.176417
-0.139677
-0.108263
-0.0818452
-0.0595789
-0.0408757
-0.0252607
-0.0123747
-0.00194357
0.00636544
0.0133315
0.0198797
0.0249343
-0.238085
-0.206571
-0.163457
-0.126479
-0.095024
-0.0686428
-0.0465486
-0.0281002
-0.012799
-0.000280348
0.00977153
0.0177825
0.0245603
0.0308065
0.0350759
-0.225986
-0.193009
-0.149008
-0.11214
-0.0808085
-0.0546125
-0.0328098
-0.0147265
0.000156849
0.0122196
0.0218307
0.0295039
0.036038
0.0419103
0.0452968
-0.211932
-0.177908
-0.133162
-0.0965775
-0.0656087
-0.0397724
-0.0183864
-0.000778154
0.0135859
0.025109
0.0342237
0.0415192
0.0477397
0.053132
0.0555436
-0.195976
-0.161188
-0.11604
-0.0798235
-0.0494407
-0.0241472
-0.00330822
0.0137162
0.0274647
0.0383739
0.0469464
0.0538208
0.0596222
0.0643541
0.0657155
-0.178216
-0.142621
-0.0978091
-0.0620015
-0.0323508
-0.00776825
0.0123907
0.0287237
0.0417679
0.0520017
0.0599975
0.0663977
0.0716294
0.0754224
0.0755415
-0.15879
-0.122109
-0.0785319
-0.0432425
-0.0144112
0.00932183
0.028672
0.044209
0.0564692
0.0659791
0.0733685
0.0792202
0.083691
0.086169
0.0845494
-0.1378
-0.0999292
-0.0581017
-0.023631
0.00429481
0.027068
0.0454921
0.0601347
0.0715411
0.0802867
0.087031
0.0922257
0.095707
0.0964535
0.0925828
-0.115233
-0.0765317
-0.0365324
-0.00320918
0.0236898
0.0454063
0.0628015
0.0764614
0.0869532
0.0948943
0.100928
0.105316
0.107566
0.106362
0.100589
-0.0910488
-0.0523292
-0.0139578
0.0179862
0.0437069
0.0642689
0.0805452
0.0931461
0.10267
0.109757
0.11498
0.118385
0.119224
0.116404
0.110484
-0.0654506
-0.027378
0.0094618
0.0398876
0.0642804
0.0835876
0.0986646
0.110141
0.118647
0.124819
0.129114
0.131379
0.130785
0.126865
0.123995
-0.0386564
-0.00168104
0.0335866
0.0623986
0.0853378
0.103293
0.117098
0.127395
0.134831
0.140015
0.143275
0.144326
0.142464
0.138019
0.137199
-0.0108767
0.0247066
0.058297
0.0854115
0.106797
0.123314
0.135782
0.144847
0.151162
0.155284
0.157434
0.157288
0.154399
0.149826
0.149752
0.0177022
0.0516877
0.0834802
0.108817
0.128568
0.143575
0.15465
0.162436
0.167577
0.170575
0.171576
0.170291
0.166532
0.161858
0.161727
0.0469013
0.0791351
0.109022
0.132508
0.150559
0.163997
0.173629
0.180095
0.184017
0.185845
0.185693
0.18334
0.178826
0.173946
0.173272
0.0765507
0.106911
0.134806
0.156377
0.172675
0.184498
0.192649
0.197757
0.200423
0.201056
0.199756
0.196376
0.191127
0.18589
0.184527
0.106483
0.134873
0.160709
0.180316
0.194821
0.204994
0.211633
0.215356
0.21674
0.216166
0.213735
0.209367
0.203386
0.197657
0.195516
0.136535
0.162878
0.186609
0.204219
0.2169
0.2254
0.230507
0.232826
0.232913
0.231128
0.227577
0.222228
0.215493
0.209207
0.206274
0.166547
0.190787
0.212383
0.227976
0.238818
0.245631
0.249195
0.250101
0.248887
0.245896
0.24124
0.234926
0.227419
0.22051
0.216767
0.196362
0.218462
0.23791
0.251481
0.26048
0.265604
0.267624
0.267116
0.264603
0.260413
0.25466
0.247386
0.239107
0.23156
0.226991
0.225826
0.245769
0.263071
0.27463
0.281792
0.285235
0.285718
0.283806
0.280005
0.274632
0.267801
0.259578
0.250517
0.242303
0.236906
0.254791
0.272579
0.28775
0.297318
0.302663
0.304443
0.303407
0.300106
0.295034
0.288493
0.280598
0.271447
0.261622
0.252737
0.246492
0.283113
0.298765
0.311834
0.319446
0.323003
0.323148
0.320619
0.315955
0.309637
0.301952
0.293018
0.282955
0.272371
0.262805
0.255716
0.310654
0.324205
0.335216
0.340917
0.342726
0.341273
0.337285
0.33129
0.323753
0.314952
0.305009
0.294066
0.282746
0.272496
0.264552
0.337281
0.348784
0.357791
0.361636
0.361748
0.358744
0.35334
0.346053
0.337335
0.327451
0.316529
0.304733
0.292697
0.281767
0.272976
0.362868
0.372389
0.379458
0.381514
0.379989
0.375489
0.368719
0.360185
0.350326
0.339401
0.327541
0.314932
0.302202
0.290594
0.280962
0.387293
0.394916
0.400123
0.400467
0.397373
0.391439
0.383361
0.373633
0.362682
0.350758
0.338002
0.324616
0.311223
0.298952
0.28849
0.410443
0.416263
0.419698
0.418414
0.413828
0.406531
0.397207
0.386343
0.374353
0.361482
0.347879
0.333761
0.319731
0.30681
0.29554
0.432212
0.436338
0.438096
0.435279
0.429286
0.420702
0.410205
0.398268
0.385297
0.371533
0.357134
0.342331
0.327699
0.314148
0.302093
0.452499
0.455053
0.455242
0.450992
0.443683
0.433897
0.422302
0.409362
0.395475
0.380877
0.365738
0.350296
0.335099
0.320943
0.308135
0.471213
0.472329
0.471062
0.465488
0.456962
0.446063
0.433451
0.419583
0.404846
0.389479
0.373659
0.357631
0.341906
0.327175
0.313651
0.488269
0.488094
0.485492
0.478708
0.469068
0.457151
0.443609
0.428891
0.413378
0.397308
0.380869
0.364308
0.348097
0.332825
0.31863
0.503589
0.502285
0.498475
0.490598
0.479953
0.467118
0.452737
0.437253
0.421039
0.404337
0.387343
0.370305
0.353652
0.337878
0.323061
0.51711
0.514844
0.509957
0.501109
0.489572
0.475923
0.460799
0.444636
0.427802
0.410541
0.393059
0.3756
0.358552
0.342321
0.326938
0.528791
0.525707
0.519889
0.510197
0.497887
0.483533
0.467764
0.451012
0.433641
0.415897
0.397995
0.380175
0.36278
0.34614
0.330256
0.538597
0.53482
0.528224
0.517823
0.504864
0.489916
0.473607
0.456359
0.438536
0.420387
0.402134
0.384011
0.366322
0.349328
0.333011
0.546488
0.542145
0.534929
0.523957
0.510475
0.495049
0.478303
0.460657
0.44247
0.423995
0.40546
0.387095
0.369166
0.351878
0.335206
0.552431
0.547656
0.539973
0.528572
0.514697
0.498911
0.481836
0.463889
0.445428
0.426708
0.407962
0.389415
0.371303
0.353787
0.336843
0.556398
0.551331
0.543339
0.531651
0.517513
0.501487
0.484192
0.466044
0.4474
0.428516
0.40963
0.390962
0.372725
0.355054
0.337927
0.558371
0.553158
0.545012
0.533182
0.518913
0.502766
0.485362
0.467114
0.448378
0.429414
0.410457
0.391729
0.37343
0.35568
0.33846
0.558341
0.55313
0.544986
0.533157
0.51889
0.502745
0.485342
0.467095
0.448361
0.429397
0.410441
0.391714
0.373415
0.355666
0.338448
0.556307
0.551247
0.543261
0.531578
0.517445
0.501423
0.484132
0.465988
0.447346
0.428466
0.409582
0.390916
0.372681
0.355012
0.337888
0.55228
0.547515
0.539843
0.528451
0.514583
0.498805
0.481736
0.463795
0.445339
0.426624
0.407882
0.389339
0.371229
0.353718
0.336779
0.546278
0.541948
0.534746
0.523787
0.510316
0.494901
0.478164
0.460525
0.442346
0.423878
0.405348
0.386988
0.369064
0.351781
0.335116
0.538327
0.534567
0.52799
0.517605
0.504661
0.489726
0.473427
0.45619
0.438377
0.420236
0.40199
0.383874
0.366191
0.349204
0.332896
0.528461
0.525398
0.519602
0.50993
0.497639
0.4833
0.467546
0.450806
0.433447
0.415713
0.397819
0.380007
0.362619
0.345988
0.330114
0.516721
0.514479
0.509619
0.500795
0.489279
0.475648
0.460541
0.444392
0.427572
0.410323
0.392851
0.375402
0.358362
0.342141
0.326771
0.50314
0.501865
0.498086
0.490236
0.479615
0.466801
0.452439
0.436972
0.420774
0.404086
0.387104
0.370077
0.353433
0.33767
0.322867
0.48776
0.487619
0.485052
0.478299
0.468686
0.456793
0.443272
0.428574
0.413078
0.397024
0.380599
0.36405
0.347849
0.33259
0.31841
0.470645
0.4718
0.470571
0.465032
0.456535
0.445663
0.433075
0.419229
0.404511
0.389162
0.373357
0.357342
0.341629
0.326911
0.313405
0.451872
0.45447
0.454701
0.450488
0.443212
0.433456
0.421887
0.408972
0.395105
0.380527
0.365405
0.349978
0.334794
0.320653
0.307863
0.431526
0.435701
0.437505
0.434729
0.428772
0.420221
0.409752
0.397841
0.384893
0.37115
0.35677
0.341983
0.327366
0.31383
0.301795
0.4097
0.415573
0.419057
0.417817
0.413271
0.406008
0.396716
0.38588
0.373915
0.361067
0.347485
0.333384
0.31937
0.306465
0.295215
0.386492
0.394172
0.399434
0.399825
0.396773
0.390877
0.382832
0.373134
0.36221
0.35031
0.337576
0.32421
0.310833
0.298579
0.28814
0.362011
0.371594
0.378719
0.380826
0.379346
0.374886
0.368152
0.35965
0.349821
0.338921
0.327085
0.314496
0.301785
0.290195
0.280585
0.336369
0.347937
0.357004
0.360903
0.361063
0.358102
0.352736
0.345483
0.336796
0.32694
0.316043
0.304269
0.292252
0.281341
0.272574
0.309687
0.323307
0.334382
0.34014
0.342
0.340592
0.336644
0.330685
0.323181
0.314409
0.304492
0.293573
0.282274
0.272043
0.264124
0.282091
0.297816
0.310953
0.318626
0.322236
0.322428
0.319942
0.315316
0.309032
0.301378
0.292473
0.282434
0.271871
0.262326
0.255263
0.253716
0.271581
0.286823
0.296455
0.301855
0.303685
0.302693
0.299433
0.294397
0.287888
0.280023
0.270898
0.261095
0.252232
0.246014
0.224699
0.244723
0.262098
0.273724
0.280944
0.28444
0.284969
0.283098
0.279336
0.273997
0.267196
0.259001
0.249964
0.241772
0.236403
0.195184
0.217368
0.236892
0.250533
0.259593
0.264771
0.26684
0.266375
0.263902
0.259747
0.254027
0.246782
0.238527
0.231004
0.226463
0.165319
0.189646
0.211322
0.226987
0.237893
0.244762
0.248377
0.249328
0.248155
0.245201
0.240578
0.234294
0.226813
0.219928
0.216215
0.135259
0.161692
0.185505
0.203189
0.215937
0.224495
0.229655
0.232021
0.23215
0.230403
0.226887
0.221569
0.214861
0.2086
0.205698
0.105159
0.133642
0.159564
0.179248
0.193821
0.204054
0.210747
0.214519
0.215947
0.215412
0.213018
0.208682
0.202728
0.197024
0.194916
0.0751812
0.105637
0.13362
0.15527
0.171639
0.183524
0.19173
0.196889
0.1996
0.200273
0.199011
0.195664
0.190443
0.185233
0.183904
0.0454874
0.0778197
0.107797
0.131364
0.149488
0.16299
0.172679
0.179196
0.183164
0.185035
0.184921
0.182602
0.178117
0.173263
0.172625
0.0162457
0.050332
0.0822166
0.107637
0.127462
0.142535
0.153668
0.161507
0.166696
0.169737
0.170778
0.169528
0.165798
0.16115
0.161056
-0.0123741
0.0233119
0.0569962
0.0841962
0.105657
0.122242
0.13477
0.143889
0.150252
0.154418
0.156609
0.1565
0.153641
0.149093
0.149054
-0.0401926
-0.00311321
0.03225
0.0611493
0.0841658
0.10219
0.116056
0.126407
0.133893
0.139122
0.142425
0.143513
0.141682
0.13726
0.13647
-0.0670236
-0.0288464
0.00809053
0.0386055
0.063077
0.0824541
0.0975935
0.109126
0.117682
0.1239
0.128238
0.130542
0.12998
0.126082
0.123232
-0.0926561
-0.0538326
-0.0153623
0.0166726
0.0424732
0.0631061
0.0794458
0.0921035
0.101678
0.108812
0.114078
0.117523
0.118396
0.115598
0.109685
-0.116871
-0.0780693
-0.0379685
-0.00455275
0.022427
0.0442152
0.0616747
0.0753922
0.0859358
0.0939239
0.100001
0.104429
0.106714
0.105534
0.0997681
-0.139467
-0.101499
-0.0595674
-0.0250033
0.00300384
0.0258496
0.0443388
0.0590397
0.0704985
0.0792915
0.0860794
0.0913148
0.0948324
0.0956066
0.0917504
-0.160484
-0.123709
-0.0800254
-0.0446422
-0.0157291
0.0080771
0.0274929
0.0430889
0.0554021
0.0649598
0.0723931
0.0782857
0.0827941
0.0853036
0.0837067
-0.179936
-0.144249
-0.0993287
-0.0634274
-0.0336945
-0.00903825
0.0111868
0.0275793
0.040677
0.0509591
0.058999
0.0654406
0.070711
0.0745387
0.0746854
-0.197718
-0.162839
-0.117585
-0.0812741
-0.0508089
-0.0254414
-0.00453592
0.0125483
0.0263508
0.0373087
0.0459257
0.0528419
0.0586829
0.0634517
0.0648432
-0.213694
-0.17958
-0.13473
-0.0980512
-0.0670001
-0.0410897
-0.019637
-0.00196869
0.0124497
0.0240221
0.0331816
0.0405192
0.04678
0.0522103
0.054654
-0.227764
-0.194702
-0.150597
-0.113635
-0.0822217
-0.0559517
-0.0340825
-0.015939
-0.00100093
0.0111114
0.0207679
0.0284834
0.0350579
0.0409688
0.0443893
-0.239877
-0.208281
-0.165065
-0.127994
-0.0964578
-0.070003
-0.0478424
-0.0293338
-0.0139777
-0.00140909
0.00868846
0.0167418
0.02356
0.0298451
0.0341503
-0.250016
-0.220272
-0.178042
-0.141211
-0.109716
-0.0832252
-0.0608929
-0.0421296
-0.0264597
-0.0135235
-0.00304648
0.00530495
0.0123113
0.0188986
0.0239903
-0.258198
-0.23061
-0.189545
-0.153302
-0.122055
-0.0956105
-0.0732189
-0.0543089
-0.0384286
-0.0252162
-0.0144225
-0.00581232
0.00132147
0.00814035
0.0139425
-0.264486
-0.239289
-0.199648
-0.164273
-0.133493
-0.107189
-0.0848189
-0.0658617
-0.0498693
-0.0364738
-0.0254256
-0.0165927
-0.00940135
-0.0024399
0.00401509
-0.268997
-0.246369
-0.208447
-0.174153
-0.144004
-0.117987
-0.0957211
-0.0767892
-0.0607707
-0.0472861
-0.0360473
-0.0270207
-0.0198329
-0.0128583
-0.00579399
-0.271911
-0.251979
-0.216063
-0.182995
-0.153581
-0.127984
-0.105946
-0.0871225
-0.071132
-0.0576423
-0.0462857
-0.0370914
-0.0299238
-0.0231294
-0.0154921
-0.273463
-0.256312
-0.222642
-0.190867
-0.162247
-0.137167
-0.115477
-0.0968684
-0.0809931
-0.0675281
-0.0561459
-0.0468196
-0.0396404
-0.0332227
-0.0251035
-0.273952
-0.259649
-0.228341
-0.197838
-0.170033
-0.145546
-0.124305
-0.106013
-0.0903369
-0.0769728
-0.0656368
-0.0562401
-0.0489898
-0.0430369
-0.0346917
-0.27369
-0.262364
-0.233296
-0.20397
-0.176978
-0.153147
-0.132442
-0.114549
-0.0991508
-0.0859714
-0.0747606
-0.0653953
-0.058022
-0.0524171
-0.0443549
-0.273062
-0.264693
-0.237584
-0.209301
-0.183121
-0.16001
-0.139913
-0.122489
-0.107434
-0.0945113
-0.0834967
-0.0742388
-0.0668222
-0.0612741
-0.05416
-0.272462
-0.266701
-0.241193
-0.213838
-0.188496
-0.166176
-0.146752
-0.12985
-0.115193
-0.102585
-0.0918247
-0.0827397
-0.0753684
-0.0698235
-0.0638566
-0.272179
-0.268337
-0.244043
-0.217564
-0.193134
-0.171688
-0.152992
-0.136655
-0.122441
-0.110196
-0.0997369
-0.0908827
-0.0836397
-0.0781817
-0.0730675
-0.272292
-0.269405
-0.245973
-0.220439
-0.197065
-0.176587
-0.158659
-0.14292
-0.129192
-0.117353
-0.107238
-0.0986652
-0.0916198
-0.0863211
-0.0816516
-0.272565
-0.269485
-0.246761
-0.222432
-0.20033
-0.180902
-0.163768
-0.148659
-0.135462
-0.124074
-0.114341
-0.106089
-0.0992865
-0.0941688
-0.0896654
-0.272357
-0.267832
-0.246138
-0.223545
-0.202982
-0.184653
-0.168322
-0.153883
-0.14127
-0.130377
-0.121059
-0.113156
-0.106618
-0.101683
-0.0972474
-0.270645
-0.263541
-0.243937
-0.223871
-0.205069
-0.18783
-0.172319
-0.158608
-0.146638
-0.136281
-0.127405
-0.11987
-0.113609
-0.108869
-0.104524
-0.266343
-0.255919
-0.240269
-0.2236
-0.206593
-0.190398
-0.175761
-0.162864
-0.151594
-0.141805
-0.13339
-0.12624
-0.12027
-0.115756
-0.111571
-0.259372
-0.245207
-0.235872
-0.222957
-0.207483
-0.192323
-0.178687
-0.166696
-0.156167
-0.146965
-0.139028
-0.132283
-0.126625
-0.122375
-0.118424
-0.250553
-0.233406
-0.232069
-0.221952
-0.207636
-0.193645
-0.181174
-0.170158
-0.160383
-0.151776
-0.144334
-0.13802
-0.132701
-0.128751
-0.125091
-0.241166
-0.22388
-0.229266
-0.220288
-0.207061
-0.19451
-0.18334
-0.173302
-0.164262
-0.156252
-0.149326
-0.143471
-0.138522
-0.134904
-0.131577
-0.232466
-0.218896
-0.226708
-0.217714
-0.205979
-0.195152
-0.185287
-0.176156
-0.167818
-0.160411
-0.154021
-0.148656
-0.144108
-0.140851
-0.137893
-0.225179
-0.218229
-0.222995
-0.214355
-0.204813
-0.195802
-0.187072
-0.178732
-0.171067
-0.164276
-0.158441
-0.153591
-0.149473
-0.146609
-0.144067
-0.219627
-0.219324
-0.217259
-0.210832
-0.204055
-0.196561
-0.188677
-0.181033
-0.174038
-0.167874
-0.162604
-0.158285
-0.154626
-0.152194
-0.150134
-0.215637
-0.219493
-0.210136
-0.208253
-0.20397
-0.197324
-0.19005
-0.183082
-0.176765
-0.17123
-0.166524
-0.162746
-0.159572
-0.157614
-0.156116
-0.212797
-0.217931
-0.204224
-0.207677
-0.204263
-0.197865
-0.191184
-0.184927
-0.179284
-0.174363
-0.170208
-0.166977
-0.164314
-0.162867
-0.162031
-0.210758
-0.214675
-0.202721
-0.208259
-0.204137
-0.198089
-0.192162
-0.186621
-0.181613
-0.177277
-0.173659
-0.170976
-0.16885
-0.167951
-0.167875
-0.209131
-0.210548
-0.20514
-0.207372
-0.203139
-0.198148
-0.193076
-0.188184
-0.183753
-0.179973
-0.176872
-0.174737
-0.173177
-0.172861
-0.173634
-0.207629
-0.207015
-0.207594
-0.203564
-0.201675
-0.198308
-0.193937
-0.189588
-0.185693
-0.182443
-0.179839
-0.178248
-0.177286
-0.177588
-0.179285
-0.206207
-0.20477
-0.208035
-0.199095
-0.201005
-0.19855
-0.19464
-0.190814
-0.187431
-0.184678
-0.182543
-0.181486
-0.181163
-0.182131
-0.184813
-0.204826
-0.203632
-0.206215
-0.198624
-0.201124
-0.198562
-0.19515
-0.191873
-0.188961
-0.186659
-0.184957
-0.184422
-0.184786
-0.186477
-0.190209
-0.2035
-0.202914
-0.203425
-0.20155
-0.199911
-0.198145
-0.195598
-0.192813
-0.190282
-0.188361
-0.187041
-0.187009
-0.18812
-0.190627
-0.195477
-0.202295
-0.202167
-0.201396
-0.203423
-0.197235
-0.197798
-0.196012
-0.19361
-0.191384
-0.189744
-0.188739
-0.189196
-0.191128
-0.194571
-0.200638
-0.201182
-0.201312
-0.200487
-0.202531
-0.19685
-0.197779
-0.196287
-0.194285
-0.192264
-0.190751
-0.189971
-0.190914
-0.193774
-0.198313
-0.205708
-0.20012
-0.200398
-0.200083
-0.200737
-0.199312
-0.197003
-0.196355
-0.19492
-0.192915
-0.191287
-0.190641
-0.1921
-0.196015
-0.201848
-0.21072
-0.199085
-0.199516
-0.199622
-0.199712
-0.200927
-0.195941
-0.196629
-0.195581
-0.193271
-0.191216
-0.190622
-0.192688
-0.197834
-0.205175
-0.215692
-0.198103
-0.198704
-0.199089
-0.199412
-0.200127
-0.197217
-0.196958
-0.196235
-0.193218
-0.190366
-0.189806
-0.192625
-0.19919
-0.208294
-0.22066
-0.197248
-0.198015
-0.198594
-0.199217
-0.199516
-0.199814
-0.197089
-0.196936
-0.192516
-0.188551
-0.18809
-0.191884
-0.200077
-0.211187
-0.225658
-0.196646
-0.197556
-0.198255
-0.199078
-0.199486
-0.20042
-0.198254
-0.197422
-0.190778
-0.185657
-0.185448
-0.19042
-0.200477
-0.213885
-0.230721
-0.196451
-0.197475
-0.198262
-0.199208
-0.199716
-0.200001
-0.200609
-0.196517
-0.187686
-0.18169
-0.181891
-0.188252
-0.200404
-0.216392
-0.235922
-0.196802
-0.197923
-0.198828
-0.19989
-0.200327
-0.200042
-0.200897
-0.194062
-0.183242
-0.17682
-0.177459
-0.185375
-0.199951
-0.218794
-0.241303
-0.197772
-0.198964
-0.20006
-0.20132
-0.201749
-0.200848
-0.198957
-0.19084
-0.177703
-0.171257
-0.172273
-0.181988
-0.199244
-0.221209
-0.246978
-0.199291
-0.200519
-0.201891
-0.203439
-0.204063
-0.202542
-0.197426
-0.186818
-0.172304
-0.165331
-0.16648
-0.178519
-0.198601
-0.22381
-0.253057
-0.201164
-0.202349
-0.203979
-0.206014
-0.206859
-0.205001
-0.19747
-0.184512
-0.168788
-0.1597
-0.160994
-0.17576
-0.198302
-0.227085
-0.259646
-0.203134
-0.204165
-0.205907
-0.208159