/*--------------------------------*- C++ -*----------------------------------*\
  =========                 |
  \\      /  F ield         | OpenFOAM: The Open Source CFD Toolbox
   \\    /   O peration     | Website:  https://openfoam.org
    \\  /    A nd           | Version:  7
     \\/     M anipulation  |
\*---------------------------------------------------------------------------*/
FoamFile
{
    version     2.0;
    format      ascii;
    class       volVectorField;
    location    "21.0012";
    object      U;
}
// * * * * * * * * * * * * * * * * * * * * * * * * * * * * * * * * * * * * * //

dimensions      [0 1 -1 0 0 0 0];

internalField   nonuniform List<vector> 
18750
(
(-0.0387785 0.0246622 -7.62321e-21)
(-0.136135 0.0300684 2.66163e-21)
(-0.240818 0.0283267 3.00099e-20)
(-0.333014 0.0270463 7.04595e-21)
(-0.424773 0.0258881 -1.74309e-20)
(-0.510937 0.0248377 -4.26931e-20)
(-0.595015 0.0237997 4.4732e-20)
(-0.674637 0.0227517 2.98924e-20)
(-0.751412 0.0216602 -2.2614e-20)
(-0.823977 0.0205319 -6.12203e-20)
(-0.893283 0.0193607 2.35027e-19)
(-0.958212 0.0181429 -1.95055e-19)
(-1.01908 0.0168658 1.16745e-19)
(-1.07481 0.015572 -2.30093e-19)
(-1.12574 0.0143727 5.36156e-20)
(-0.0404036 0.0729252 4.52384e-21)
(-0.137365 0.0889565 8.22542e-21)
(-0.240893 0.0837092 4.64627e-21)
(-0.331977 0.0798078 4.79303e-20)
(-0.42258 0.0762774 1.00118e-19)
(-0.507533 0.073074 1.3516e-19)
(-0.590286 0.0699173 -1.16628e-19)
(-0.668443 0.0667423 1.93005e-19)
(-0.743568 0.0634498 1.81707e-19)
(-0.814286 0.0600588 -5.93504e-20)
(-0.881543 0.0565537 -2.49448e-19)
(-0.944228 0.0529311 1.20406e-20)
(-1.00263 0.0491609 5.65526e-20)
(-1.05558 0.0453624 1.49979e-19)
(-1.10338 0.0418372 -2.3012e-19)
(-0.0435877 0.120005 1.48969e-20)
(-0.139781 0.146832 2.39742e-20)
(-0.241039 0.138262 -7.58164e-20)
(-0.329937 0.131803 5.98155e-21)
(-0.418275 0.125949 -1.85876e-19)
(-0.500871 0.120615 6.21515e-20)
(-0.58106 0.115345 -1.78196e-19)
(-0.656406 0.110037 -2.00934e-20)
(-0.728395 0.104529 -1.39003e-19)
(-0.795632 0.0988553 4.23041e-19)
(-0.859069 0.0929992 5.66032e-19)
(-0.917622 0.0869797 5.02779e-19)
(-0.971539 0.0807703 2.97159e-19)
(-1.01954 0.0745511 2.02045e-19)
(-1.06185 0.0687449 -3.76293e-19)
(-0.0482104 0.165145 -8.28369e-20)
(-0.143309 0.203042 9.97721e-20)
(-0.241254 0.191454 -7.58171e-20)
(-0.326953 0.18255 -1.60889e-19)
(-0.412003 0.17446 2.8146e-19)
(-0.491204 0.167036 -2.63314e-19)
(-0.567737 0.159673 3.94112e-19)
(-0.63912 0.152233 -3.37282e-19)
(-0.706745 0.144504 2.40687e-19)
(-0.769208 0.136533 -5.92967e-19)
(-0.827479 0.128318 -8.58195e-19)
(-0.880549 0.119929 4.78832e-20)
(-0.928654 0.111371 -1.65048e-19)
(-0.970399 0.102867 -3.61625e-19)
(-1.00592 0.0948772 1.38156e-18)
(-0.0540962 0.207632 -6.5274e-20)
(-0.147833 0.256957 1.48258e-19)
(-0.241521 0.242785 3.32864e-20)
(-0.323097 0.231605 1.26682e-19)
(-0.403952 0.221408 -1.71839e-19)
(-0.478864 0.211967 7.47328e-20)
(-0.550829 0.202551 9.38302e-19)
(-0.617334 0.193003 1.47689e-19)
(-0.679672 0.183064 2.65259e-19)
(-0.736447 0.172807 -9.45464e-20)
(-0.788674 0.162256 7.95835e-20)
(-0.835465 0.151557 -3.36683e-20)
(-0.877112 0.140777 -9.40509e-19)
(-0.912144 0.130173 -5.29152e-19)
(-0.940611 0.12017 -1.56589e-18)
(-0.0610512 0.246847 1.47471e-19)
(-0.153222 0.307973 5.15913e-20)
(-0.241809 0.291791 -7.15978e-20)
(-0.318443 0.278577 -5.3137e-20)
(-0.394335 0.266447 5.90003e-20)
(-0.464224 0.255096 -7.96294e-19)
(-0.530905 0.243701 -1.00982e-19)
(-0.591856 0.232096 5.08553e-20)
(-0.648281 0.219998 -3.89506e-19)
(-0.698814 0.207507 -5.40184e-19)
(-0.744534 0.194685 3.97607e-19)
(-0.784725 0.181778 -3.96214e-19)
(-0.819804 0.168944 1.23591e-18)
(-0.848297 0.156474 -9.70212e-19)
(-0.870152 0.144713 2.13594e-18)
(-0.0688517 0.282193 -1.34215e-19)
(-0.159292 0.355511 -2.27725e-19)
(-0.242038 0.338081 9.34386e-20)
(-0.313057 0.323136 7.07346e-19)
(-0.383371 0.309289 7.22789e-19)
(-0.447665 0.296175 -2.54928e-19)
(-0.508537 0.282911 1.31468e-19)
(-0.563481 0.269341 8.61955e-20)
(-0.613628 0.255176 8.44578e-19)
(-0.657662 0.24055 1.17601e-18)
(-0.696735 0.225577 -5.73913e-19)
(-0.73034 0.210611 -1.11293e-18)
(-0.759086 0.195926 -2.07997e-18)
(-0.781564 0.181869 3.60987e-19)
(-0.797598 0.168679 -2.61223e-18)
(-0.0772277 0.313059 -1.20416e-19)
(-0.165825 0.399095 -1.4187e-19)
(-0.242103 0.381341 -1.02878e-18)
(-0.306992 0.365019 3.69997e-19)
(-0.371265 0.349709 -4.32107e-19)
(-0.429553 0.335018 2.98411e-19)
(-0.484261 0.320036 3.23565e-19)
(-0.532935 0.304634 -1.41213e-18)
(-0.576646 0.288537 -9.48549e-19)
(-0.614148 0.271927 -1.61532e-18)
(-0.646661 0.254973 -2.68706e-19)
(-0.673898 0.238146 1.18267e-18)
(-0.696698 0.221844 4.65821e-18)
(-0.713783 0.206497 -7.16458e-19)
(-0.724808 0.192241 1.28152e-18)
(-0.0858372 0.338855 6.47265e-19)
(-0.172555 0.438306 2.61344e-19)
(-0.241885 0.421339 1.13175e-18)
(-0.300289 0.404025 -8.32986e-19)
(-0.358203 0.387539 3.98531e-19)
(-0.410215 0.371496 -6.69641e-19)
(-0.458559 0.354987 -1.55185e-18)
(-0.500852 0.337924 1.38809e-18)
(-0.538125 0.32007 1.67919e-19)
(-0.569216 0.301669 2.41579e-18)
(-0.595393 0.28295 -7.92331e-19)
(-0.616571 0.26449 -3.60801e-18)
(-0.633821 0.246816 -2.21374e-18)
(-0.64604 0.230467 2.32979e-19)
(-0.652692 0.21549 -1.08339e-18)
(-0.0942844 0.359098 -5.39749e-19)
(-0.179175 0.47284 -3.06928e-19)
(-0.241258 0.457908 3.9762e-19)
(-0.29298 0.440017 6.17568e-20)
(-0.344342 0.422664 -1.56641e-19)
(-0.389939 0.405533 -1.82059e-19)
(-0.431842 0.387723 7.07822e-19)
(-0.467765 0.369204 -8.50424e-19)
(-0.498706 0.349801 8.42182e-19)
(-0.523595 0.329834 1.06272e-18)
(-0.543724 0.309595 -1.8942e-18)
(-0.559166 0.289751 3.60784e-18)
(-0.571189 0.270948 4.24756e-19)
(-0.5789 0.253847 5.82208e-19)
(-0.581573 0.238439 1.33896e-18)
(-0.102101 0.373322 1.01856e-18)
(-0.185312 0.502382 -3.34392e-19)
(-0.240077 0.490939 -1.48738e-18)
(-0.285077 0.472903 5.92781e-19)
(-0.329811 0.455021 -3.43106e-19)
(-0.368962 0.437095 4.03454e-19)
(-0.404452 0.418237 3.02736e-18)
(-0.434101 0.398493 1.47127e-18)
(-0.458884 0.377772 9.8264e-19)
(-0.477828 0.356482 -3.30638e-18)
(-0.492218 0.334983 3.63508e-18)
(-0.502229 0.314014 1.33902e-18)
(-0.509255 0.294303 -2.16486e-18)
(-0.512616 0.276636 2.6307e-18)
(-0.511475 0.261001 -9.18781e-20)
(-0.108783 0.381241 2.106e-19)
(-0.190612 0.526868 5.18288e-20)
(-0.238211 0.520342 -1.0277e-19)
(-0.276587 0.502638 -1.05961e-18)
(-0.314702 0.484591 2.12244e-18)
(-0.347473 0.466185 -1.08739e-18)
(-0.376665 0.446554 -3.21176e-18)
(-0.400204 0.425837 9.96075e-19)
(-0.419042 0.404042 -1.59328e-18)
(-0.432307 0.381676 2.48483e-18)
(-0.441254 0.359175 -4.50105e-18)
(-0.4461 0.33733 3.53839e-19)
(-0.448273 0.316914 1.93246e-18)
(-0.447263 0.298802 -4.06544e-18)
(-0.442328 0.283043 -9.58246e-19)
(-0.113646 0.38238 -6.75611e-19)
(-0.194642 0.546078 1.94152e-19)
(-0.235518 0.546034 6.01043e-19)
(-0.267477 0.529215 -2.87325e-20)
(-0.299086 0.511396 -2.89721e-18)
(-0.325623 0.492842 2.78364e-19)
(-0.348695 0.472717 1.04645e-18)
(-0.366331 0.451283 -2.85792e-18)
(-0.379457 0.428661 2.16236e-18)
(-0.387301 0.405463 -1.99852e-18)
(-0.391074 0.382207 5.49737e-18)
(-0.39099 0.359726 -2.29592e-18)
(-0.388422 0.338788 2.804e-18)
(-0.382931 0.320296 5.70845e-18)
(-0.374079 0.30439 2.47278e-18)
(-0.116168 0.377144 -2.68962e-19)
(-0.197086 0.560152 -6.47091e-21)
(-0.231929 0.567871 -2.25907e-20)
(-0.257725 0.552689 -6.88289e-20)
(-0.282996 0.535497 -1.41664e-18)
(-0.303524 0.517116 -6.32819e-19)
(-0.32071 0.496785 1.02717e-18)
(-0.332683 0.474903 6.28784e-19)
(-0.340342 0.451698 -3.65517e-18)
(-0.343005 0.427893 -2.04717e-19)
(-0.341824 0.404098 -1.07892e-18)
(-0.337004 0.38119 2.2063e-18)
(-0.329817 0.359917 -3.09978e-18)
(-0.319705 0.341098 -4.40358e-19)
(-0.306497 0.324824 -2.79644e-18)
(-0.115962 0.365721 1.20259e-18)
(-0.197515 0.56864 -1.07113e-18)
(-0.227288 0.58582 -1.45786e-18)
(-0.247227 0.573133 2.60438e-18)
(-0.266475 0.556975 2.30286e-18)
(-0.281269 0.539091 2.96429e-18)
(-0.292831 0.518826 1.29045e-19)
(-0.2994 0.496748 2.04862e-18)
(-0.301833 0.47319 2.76282e-18)
(-0.299538 0.448992 4.1527e-18)
(-0.293592 0.424849 -1.93366e-18)
(-0.284182 0.401697 4.08243e-18)
(-0.272519 0.380266 -2.29044e-20)
(-0.257839 0.361205 -2.08612e-18)
(-0.239416 0.344269 -5.19893e-18)
(-0.112785 0.348091 -7.62081e-19)
(-0.195579 0.571254 1.18636e-18)
(-0.221465 0.599964 7.91935e-19)
(-0.235977 0.590672 -2.45691e-18)
(-0.249531 0.575954 -1.14889e-18)
(-0.258914 0.558832 -2.12213e-19)
(-0.265158 0.538911 -1.57034e-18)
(-0.266592 0.516895 -2.70574e-18)
(-0.264045 0.493206 -4.64702e-18)
(-0.256997 0.4688 -2.03105e-18)
(-0.246437 0.444465 2.86477e-18)
(-0.23251 0.421198 -6.0147e-18)
(-0.216468 0.399748 2.08481e-19)
(-0.197634 0.380579 3.85716e-18)
(-0.172582 0.363239 5.57556e-18)
(-0.106441 0.324244 -1.83693e-18)
(-0.191055 0.567872 1.4251e-18)
(-0.21427 0.610239 -2.46163e-18)
(-0.223985 0.605473 -1.18841e-18)
(-0.232241 0.59257 -6.69736e-20)
(-0.23653 0.576442 1.64678e-18)
(-0.237754 0.557131 2.68144e-18)
(-0.234329 0.535389 8.94309e-19)
(-0.227033 0.511761 1.30796e-18)
(-0.215424 0.487315 -3.69845e-18)
(-0.200393 0.462928 1.00173e-19)
(-0.182002 0.439661 -2.8828e-18)
(-0.161551 0.418284 -2.14346e-18)
(-0.138963 0.399079 -6.16886e-18)
(-0.107327 0.381998 -7.81981e-20)
(-0.0968662 0.294377 1.61627e-18)
(-0.183838 0.558386 2.56829e-19)
(-0.205605 0.616513 3.81218e-19)
(-0.211231 0.617544 2.94523e-18)
(-0.214641 0.606905 1.24772e-18)
(-0.214197 0.592055 -1.53451e-18)
(-0.210706 0.573584 1.21312e-18)
(-0.202697 0.552318 -7.09302e-19)
(-0.190874 0.528926 -1.42815e-18)
(-0.174864 0.504577 1.62924e-18)
(-0.155494 0.480258 -5.53231e-18)
(-0.132673 0.457046 -2.25432e-19)
(-0.107706 0.435776 -3.17006e-18)
(-0.0818482 0.416744 4.92096e-18)
(-0.0427306 0.400793 4.52434e-19)
(-0.0842685 0.258931 -6.19217e-19)
(-0.173945 0.542581 -1.73403e-18)
(-0.195476 0.618522 4.56395e-19)
(-0.197735 0.626831 -3.39675e-18)
(-0.196764 0.619018 -2.32131e-18)
(-0.191957 0.605735 -1.31273e-18)
(-0.184067 0.588317 -2.30807e-18)
(-0.171747 0.567707 2.23994e-18)
(-0.155614 0.54472 3.1757e-18)
(-0.135347 0.520602 6.23055e-18)
(-0.111771 0.496455 -2.81285e-19)
(-0.0845934 0.473385 7.10099e-18)
(-0.0546924 0.452236 2.81106e-18)
(-0.0264885 0.433362 2.2112e-18)
(0.0216003 0.419463 -4.91112e-18)
(-0.0693204 0.218586 1.06625e-18)
(-0.161544 0.520061 2.63976e-18)
(-0.183946 0.615795 1.80958e-18)
(-0.183565 0.633183 2.3673e-18)
(-0.178667 0.628956 7.71071e-21)
(-0.169865 0.617538 9.35685e-19)
(-0.157889 0.60136 2.42865e-20)
(-0.141524 0.581598 -1.72946e-18)
(-0.121292 0.559167 2.71458e-18)
(-0.0968801 0.535376 -9.51196e-18)
(-0.0692074 0.511511 2.80343e-18)
(-0.0379226 0.488651 -1.86123e-18)
(-0.00228278 0.46752 3.67896e-19)
(0.0268704 0.448723 -2.80417e-18)
(0.0860711 0.438605 -3.1748e-18)
(-0.0534456 0.174279 -1.74052e-18)
(-0.146977 0.490199 2.31741e-18)
(-0.171099 0.607598 -5.79615e-19)
(-0.168806 0.636302 -1.00295e-18)
(-0.160447 0.636688 2.09972e-18)
(-0.147992 0.627493 2.22175e-19)
(-0.132237 0.612758 -6.28269e-19)
(-0.112076 0.593983 -7.40177e-20)
(-0.0879547 0.572251 -1.75222e-18)
(-0.0594813 0.548894 4.56247e-18)
(-0.0276769 0.525344 2.8063e-18)
(0.0070698 0.50296 1.48985e-18)
(0.0499196 0.481834 -1.39372e-19)
(0.0778874 0.461793 3.59849e-18)
(0.150804 0.458191 -3.25454e-19)
(-0.0389768 0.127603 5.09633e-19)
(-0.130749 0.45211 -5.51922e-19)
(-0.156983 0.592948 4.34225e-19)
(-0.153537 0.635666 1.85709e-18)
(-0.14221 0.64207 -1.18768e-18)
(-0.126449 0.635591 -7.75762e-19)
(-0.107192 0.622495 -1.45949e-18)
(-0.0834626 0.604887 1.15533e-18)
(-0.0556657 0.583963 -1.20829e-18)
(-0.0232518 0.561113 -1.3944e-18)
(0.0130877 0.537836 -2.42542e-18)
(0.050039 0.516064 -1.41379e-18)
(0.102214 0.495553 5.18313e-18)
(0.126369 0.472475 -7.15538e-18)
(0.216235 0.478157 -1.93483e-19)
(-0.0279763 0.0816172 2.18269e-18)
(-0.113436 0.404759 -8.45402e-19)
(-0.141599 0.570702 -2.19951e-18)
(-0.137816 0.630487 -5.8838e-19)
(-0.124088 0.644726 3.11076e-18)
(-0.105346 0.641721 -6.46145e-20)
(-0.082875 0.630579 1.51533e-18)
(-0.0557634 0.614219 -8.3331e-19)
(-0.0244646 0.594232 -3.26189e-18)
(0.0115249 0.572069 7.59549e-18)
(0.0535081 0.54884 -5.61139e-18)
(0.0906613 0.527892 1.67099e-18)
(0.155244 0.509186 -7.37576e-18)
(0.171276 0.47869 2.61062e-18)
(0.282078 0.498076 2.15121e-18)
(-0.0200176 0.0406481 -7.76727e-19)
(-0.0953269 0.347267 -2.50063e-18)
(-0.124888 0.539698 1.13113e-18)
(-0.121687 0.619617 2.00219e-19)
(-0.106189 0.644036 -2.79774e-18)
(-0.0848327 0.645637 1.73377e-18)
(-0.059429 0.636877 8.92591e-20)
(-0.0291272 0.622001 -4.25583e-19)
(0.00571892 0.602897 -3.33204e-18)
(0.0443149 0.581679 -3.88622e-19)
(0.0940044 0.558299 4.46828e-18)
(0.128372 0.537375 3.75197e-19)
(0.210157 0.525439 1.06611e-18)
(0.21356 0.481563 3.07413e-18)
(0.346246 0.5119 -7.8675e-18)
(-0.0124371 0.00857463 -1.18266e-18)
(-0.0766527 0.279739 3.66723e-20)
(-0.106819 0.498821 -1.43443e-18)
(-0.105193 0.601524 1.16384e-18)
(-0.0886614 0.638957 1.58194e-18)
(-0.0650403 0.646905 -1.1873e-18)
(-0.0370446 0.641243 -2.06062e-19)
(-0.00387156 0.627983 -9.93836e-19)
(0.0351238 0.609757 2.49791e-18)
(0.0744899 0.589839 4.79239e-19)
(0.135087 0.566617 -6.46044e-18)
(0.162137 0.542195 1.76158e-18)
(0.266626 0.543209 1.10183e-18)
(0.255992 0.488526 -4.96692e-18)
(0.40943 0.52051 1.13936e-18)
(-0.00372575 -0.0124314 2.67958e-19)
(-0.058549 0.205183 7.18012e-19)
(-0.0876549 0.446861 1.34563e-18)
(-0.0883932 0.574274 -1.13647e-18)
(-0.0716252 0.628146 -4.50491e-20)
(-0.0462483 0.644725 2.86841e-18)
(-0.0158338 0.643229 -1.32475e-19)
(0.0194115 0.632227 -1.53867e-21)
(0.0640496 0.614339 4.0344e-18)
(0.101273 0.595761 -2.31278e-18)
(0.177434 0.575745 1.66261e-18)
(0.191922 0.541074 -4.69526e-18)
(0.322669 0.55659 4.05193e-19)
(0.298991 0.498684 -1.25154e-18)
(0.472476 0.53037 2.16482e-18)
(0.00476831 -0.0230465 -1.99889e-19)
(-0.0424738 0.131388 8.98723e-19)
(-0.0683191 0.382804 -1.19241e-18)
(-0.0714445 0.535648 2.51198e-18)
(-0.0553152 0.609617 -2.10761e-18)
(-0.0287488 0.638012 -1.88554e-18)
(0.00404158 0.642077 -1.17301e-18)
(0.0399134 0.634052 -2.5252e-18)
(0.09269 0.616945 -4.89986e-18)
(0.123889 0.597214 7.52732e-19)
(0.220578 0.586888 3.86261e-18)
(0.21959 0.538778 3.10663e-18)
(0.376781 0.56126 5.33177e-19)
(0.342165 0.507022 -2.60745e-18)
(0.533987 0.536597 -1.32114e-18)
(0.0111013 -0.026392 4.82238e-19)
(-0.027268 0.0692165 8.46243e-19)
(-0.0495667 0.306732 -3.60089e-18)
(-0.0547528 0.483686 -2.48439e-18)
(-0.0399245 0.5811 -7.30006e-20)
(-0.0133484 0.624735 1.9777e-18)
(0.0226798 0.636721 -7.20898e-19)
(0.0566579 0.632859 5.60949e-18)
(0.120825 0.617797 4.76815e-19)
(0.142002 0.59195 -3.13794e-18)
(0.262267 0.595625 -2.96605e-18)
(0.247267 0.539745 -4.757e-18)
(0.42625 0.561152 5.25084e-18)
(0.386563 0.511918 3.50346e-18)
(0.591279 0.537517 -7.62458e-21)
(0.0146316 -0.0259016 -1.34229e-18)
(-0.0112914 0.0253025 -2.49091e-18)
(-0.0323019 0.221049 1.79359e-18)
(-0.0389418 0.416887 2.19302e-18)
(-0.0258497 0.539564 1.35903e-18)
(-0.000717105 0.602698 -1.37456e-18)
(0.0393062 0.624789 3.50068e-18)
(0.0692018 0.626152 -4.98561e-18)
(0.147205 0.619197 5.53834e-18)
(0.157029 0.580691 3.56226e-18)
(0.297095 0.594872 -1.10074e-18)
(0.278658 0.540829 -1.55491e-18)
(0.464027 0.554564 -2.09749e-18)
(0.434201 0.516843 -4.2034e-18)
(0.63997 0.526696 5.06262e-18)
(0.016026 -0.0239155 3.78913e-18)
(0.00390651 -0.00127467 2.91104e-18)
(-0.0174163 0.137144 6.61162e-19)
(-0.0253301 0.335875 -3.80028e-20)
(-0.013402 0.482027 -4.72149e-19)
(0.00771341 0.567999 -5.56009e-19)
(0.0537112 0.605407 -2.73205e-18)
(0.0761548 0.609337 4.73087e-18)
(0.168841 0.616371 -3.68327e-18)
(0.173126 0.571559 -3.51799e-20)
(0.317459 0.580334 3.56665e-18)
(0.314517 0.540596 2.51682e-18)
(0.486225 0.535735 2.51362e-18)
(0.481826 0.521743 -2.88915e-20)
(0.681179 0.500729 -3.00143e-18)
(0.0164637 -0.0216215 -2.27547e-18)
(0.0161268 -0.0153129 -2.36359e-18)
(-0.00311483 0.0715423 7.37397e-19)
(-0.0144758 0.246241 -1.18818e-18)
(-0.00328945 0.406824 -5.55783e-19)
(0.0116169 0.516627 1.99048e-18)
(0.0623845 0.573894 -5.27732e-19)
(0.0808273 0.583818 -4.90413e-19)
(0.176718 0.599645 -1.4664e-18)
(0.195213 0.560548 -3.38277e-18)
(0.320481 0.563341 1.5744e-18)
(0.354853 0.526052 -1.87054e-18)
(0.488943 0.522811 -2.90468e-18)
(0.5469 0.503975 -1.32078e-18)
(0.656485 0.476608 5.34346e-18)
(0.0172169 -0.0194649 2.57149e-18)
(0.0257057 -0.0215288 -2.0237e-18)
(0.0120168 0.0305137 -3.32537e-18)
(-0.00472268 0.161211 3.37196e-19)
(0.00425209 0.317502 7.97599e-19)
(0.0107308 0.445666 -5.50508e-19)
(0.0634957 0.52617 1.50419e-18)
(0.0800263 0.542396 3.09533e-19)
(0.174173 0.574366 -2.05727e-19)
(0.207344 0.527212 1.35388e-19)
(0.323668 0.551839 -1.63064e-18)
(0.371583 0.481668 2.15794e-19)
(0.517619 0.528677 9.33103e-19)
(0.527296 0.437425 -7.38751e-19)
(0.737167 0.506942 4.99793e-18)
(0.0190146 -0.0178075 5.41479e-19)
(0.0341406 -0.0237099 -1.16348e-18)
(0.0263555 0.00865156 3.23975e-18)
(0.00630886 0.0958769 2.50511e-18)
(0.00921736 0.227052 -2.49885e-18)
(0.00648202 0.356964 -1.62315e-19)
(0.0536262 0.460042 -1.12926e-18)
(0.076591 0.481701 -4.31166e-19)
(0.150235 0.526658 3.02969e-18)
(0.228438 0.490386 1.53009e-18)
(0.284277 0.502138 2.09339e-18)
(0.434408 0.463294 -1.67089e-18)
(0.460279 0.475737 1.14233e-18)
(0.60204 0.417631 -6.52922e-19)
(0.71527 0.477103 -6.37602e-18)
(0.0219864 -0.0169967 4.32536e-19)
(0.0419914 -0.0246019 6.92307e-19)
(0.037967 -0.0025773 -1.78554e-18)
(0.017864 0.0545062 -2.03539e-18)
(0.0114184 0.150673 -1.86339e-18)
(0.00131477 0.262988 1.59725e-19)
(0.0324332 0.374369 1.31389e-18)
(0.0682781 0.408309 -2.35989e-18)
(0.110802 0.446194 -1.22112e-18)
(0.232744 0.441963 6.56865e-19)
(0.234301 0.417405 -1.90652e-18)
(0.45994 0.43251 1.96009e-19)
(0.360577 0.358745 1.34249e-18)
(0.690513 0.41404 -1.8398e-18)
(0.5332 0.335091 1.49476e-18)
(0.0257289 -0.0171767 -9.72717e-19)
(0.0485629 -0.0260045 2.21027e-18)
(0.0455341 -0.0102205 1.46306e-18)
(0.0259492 0.0290431 9.79829e-19)
(0.0105858 0.0940511 1.59472e-18)
(-0.00663985 0.17845 -1.60923e-19)
(0.00707384 0.278851 -1.22341e-18)
(0.0431896 0.320435 2.71254e-19)
(0.0755988 0.353865 1.6015e-18)
(0.190069 0.347933 -2.51381e-18)
(0.211859 0.335547 -1.16317e-18)
(0.387901 0.33224 1.04695e-19)
(0.333558 0.266805 -3.78049e-19)
(0.65336 0.348551 2.18715e-18)
(0.456669 0.228491 -2.10084e-18)
(0.0293573 -0.0181462 1.06279e-18)
(0.0523616 -0.0287043 7.11571e-19)
(0.0475864 -0.0185101 -8.42082e-20)
(0.0267642 0.0091192 -6.36052e-19)
(0.0043078 0.0518989 1.41181e-19)
(-0.0207378 0.108669 -1.87253e-18)
(-0.0198863 0.186482 4.06229e-19)
(0.00275744 0.221399 -7.92707e-19)
(0.0382615 0.258049 -7.9479e-19)
(0.128252 0.229713 1.71763e-18)
(0.177276 0.240044 2.47423e-18)
(0.318097 0.220609 1.18152e-18)
(0.373339 0.227451 1.24732e-18)
(0.651913 0.297687 -1.63886e-18)
(0.726284 0.323249 -1.73856e-18)
(0.0316782 -0.0194004 8.80796e-19)
(0.0518124 -0.0325504 -1.67327e-18)
(0.0427814 -0.028782 -8.0952e-19)
(0.0183911 -0.0110677 -1.81469e-18)
(-0.0106432 0.0158286 8.16669e-19)
(-0.0425617 0.0497452 1.97205e-18)
(-0.0528706 0.102148 -2.2403e-18)
(-0.0454775 0.120748 7.71982e-19)
(-0.00951022 0.154719 1.39886e-18)
(0.0666522 0.115752 3.87789e-19)
(0.146149 0.136623 -1.61101e-18)
(0.335849 0.16334 -6.80013e-19)
(0.510353 0.24069 -8.72266e-22)
(0.797425 0.33121 9.65586e-19)
(0.966916 0.419952 3.84671e-18)
(0.0315185 -0.0202778 -1.4248e-18)
(0.0459477 -0.036746 -1.4301e-18)
(0.0307988 -0.040533 8.01578e-19)
(0.000998338 -0.0328605 3.22497e-18)
(-0.0351551 -0.0193131 -2.09724e-18)
(-0.0735586 -0.00338634 5.85631e-19)
(-0.0957829 0.0245857 8.74471e-19)
(-0.0979147 0.0243198 -7.55006e-20)
(-0.0622728 0.050408 1.77806e-19)
(0.0425868 0.0325353 8.00686e-19)
(0.214832 0.0933124 -7.33883e-19)
(0.481082 0.187657 -1.50076e-18)
(0.718912 0.29575 -1.38977e-18)
(0.954528 0.385982 1.16206e-18)
(1.05795 0.438822 3.76801e-19)
(0.0280424 -0.0201286 -3.51926e-19)
(0.0346124 -0.0401192 2.8348e-18)
(0.0124335 -0.051963 5.9636e-19)
(-0.0236621 -0.0544367 8.52006e-19)
(-0.0676961 -0.0528274 7.78701e-19)
(-0.113882 -0.050998 7.4375e-19)
(-0.146279 -0.044431 -2.60318e-19)
(-0.142462 -0.0559066 4.84588e-19)
(-0.0710984 -0.0247351 2.41213e-19)
(0.133573 0.0241333 1.04834e-18)
(0.404342 0.133423 2.93563e-20)
(0.676798 0.247987 1.03597e-18)
(0.885216 0.344656 -8.91989e-19)
(1.03038 0.401591 -8.95037e-19)
(1.11718 0.443348 6.25252e-19)
(0.0210626 -0.0184192 1.26976e-18)
(0.0186252 -0.0412178 -1.16376e-18)
(-0.0104586 -0.0603459 1.20827e-19)
(-0.0526472 -0.071286 -1.73725e-18)
(-0.103046 -0.0786238 -1.45175e-18)
(-0.153694 -0.0856274 2.525e-18)
(-0.182284 -0.0900079 7.41155e-19)
(-0.136435 -0.0948447 -1.0429e-18)
(0.0280722 -0.0348047 3.02575e-19)
(0.329001 0.0787427 -2.85788e-18)
(0.611564 0.197433 9.6088e-19)
(0.83249 0.295786 -1.17361e-18)
(0.980498 0.36416 1.41888e-18)
(1.08991 0.410691 -1.52139e-19)
(1.15831 0.445244 -9.11609e-19)
(0.0112177 -0.0149046 -1.9832e-18)
(-0.000112374 -0.0386863 -2.02172e-18)
(-0.0343762 -0.0623971 -2.07872e-18)
(-0.0800302 -0.0780859 -1.57244e-18)
(-0.130791 -0.0888435 1.06084e-18)
(-0.173936 -0.0956775 -4.36876e-18)
(-0.177165 -0.096477 3.98121e-19)
(-0.0532189 -0.0777004 4.16473e-19)
(0.217403 0.0249381 2.20999e-19)
(0.532375 0.147083 1.34172e-18)
(0.772176 0.247458 -1.11597e-18)
(0.939065 0.324373 2.58807e-18)
(1.05462 0.379498 -5.58523e-19)
(1.13002 0.415727 -1.10715e-18)
(1.17339 0.437181 6.26994e-19)
(-0.000147844 -0.00979777 3.50271e-19)
(-0.019068 -0.0319862 1.63987e-18)
(-0.0553485 -0.0566609 2.34699e-18)
(-0.0991746 -0.0724302 3.84722e-19)
(-0.142023 -0.0801281 1.90564e-18)
(-0.165155 -0.0790305 1.0816e-18)
(-0.12736 -0.0714549 3.46989e-19)
(0.0992685 -0.0121336 -1.76639e-18)
(0.421839 0.105202 -1.07831e-19)
(0.698791 0.205177 7.47387e-19)
(0.893237 0.286221 2.75554e-18)
(1.02296 0.348333 -3.3533e-19)
(1.10225 0.38831 9.57118e-19)
(1.15082 0.413544 9.14349e-19)
(1.18647 0.43008 1.50933e-18)
(-0.0114228 -0.00378602 6.45387e-19)
(-0.0359819 -0.0218722 -2.16155e-18)
(-0.0706765 -0.0440943 -4.66865e-19)
(-0.107362 -0.0559794 2.42662e-20)
(-0.135359 -0.0565359 -3.56265e-18)
(-0.132531 -0.0459685 9.46384e-19)
(-0.0398186 -0.0326898 -4.99483e-19)
(0.282779 0.0682372 5.93253e-19)
(0.596002 0.170528 1.93889e-18)
(0.833196 0.252384 -6.49093e-19)
(0.987059 0.318142 -2.15303e-18)
(1.07827 0.363429 -2.84929e-19)
(1.13202 0.391473 -3.26578e-19)
(1.16689 0.411357 -7.14123e-19)
(1.19152 0.422253 -1.62414e-18)
(-0.0212178 0.00219579 1.34714e-19)
(-0.0494409 -0.0100073 5.85058e-19)
(-0.0796264 -0.0274447 -1.51724e-18)
(-0.105394 -0.0334855 6.4115e-19)
(-0.114706 -0.0255337 1.4745e-18)
(-0.0861791 -0.0108074 -6.55015e-19)
(0.0851416 0.0246711 -1.28426e-19)
(0.45352 0.136051 -1.57724e-18)
(0.742746 0.226587 3.14701e-19)
(0.938501 0.292214 -1.11209e-18)
(1.05209 0.341757 1.04097e-18)
(1.11645 0.373678 -8.51121e-19)
(1.15267 0.393666 1.5041e-18)
(1.17447 0.407732 -5.77692e-19)
(1.19376 0.414154 -1.20009e-18)
(-0.0286601 0.00728218 6.90534e-19)
(-0.0589607 0.00166738 4.32118e-19)
(-0.0828593 -0.0100739 3.90964e-19)
(-0.0957681 -0.010321 9.86317e-20)
(-0.0867332 0.00447822 6.70496e-19)
(-0.0273397 0.0115619 -1.6714e-18)
(0.243768 0.0918412 9.54714e-19)
(0.606351 0.195315 2.26839e-18)
(0.861316 0.273096 -2.32222e-19)
(1.01606 0.3225 1.66032e-18)
(1.09879 0.359346 9.87306e-19)
(1.14167 0.380265 1.64525e-19)
(1.16388 0.393577 3.18878e-19)
(1.17955 0.403691 6.0771e-19)
(1.1954 0.407515 1.40955e-18)
(-0.0334712 0.010899 1.04955e-18)
(-0.0647513 0.0115142 1.49657e-18)
(-0.0817306 0.00518984 -1.35081e-18)
(-0.081266 0.0100678 1.23565e-18)
(-0.0587785 0.0253248 -2.88326e-18)
(0.0524334 0.033463 7.42776e-19)
(0.408591 0.150391 -2.56771e-19)
(0.740469 0.244997 -1.40526e-18)
(0.95354 0.309458 -2.48173e-18)
(1.07261 0.346043 -9.31532e-19)
(1.12934 0.372097 -2.2823e-18)
(1.15693 0.38412 1.41001e-18)
(1.17133 0.393322 -1.89364e-18)
(1.18209 0.40015 1.29268e-18)
(1.19416 0.400988 8.88348e-19)
(-0.0358984 0.0128389 -2.48524e-18)
(-0.0674568 0.0184713 8.42274e-20)
(-0.0776385 0.0164594 1.80857e-19)
(-0.065282 0.0258169 3.44102e-19)
(-0.0290918 0.0307841 2.06665e-19)
(0.171359 0.076997 1.39842e-18)
(0.558208 0.202103 7.85989e-19)
(0.849847 0.286025 -2.20313e-19)
(1.02251 0.337942 1.10968e-18)
(1.11089 0.363255 7.06792e-19)
(1.14917 0.380876 3.23323e-19)
(1.16678 0.386397 -7.95691e-19)
(1.17494 0.392696 2.61732e-18)
(1.18287 0.396355 4.56802e-19)
(1.19371 0.395634 -9.5174e-19)
(-0.0365775 0.0132146 2.28258e-18)
(-0.0679986 0.0220675 -1.63157e-18)
(-0.0717679 0.0233732 5.23625e-19)
(-0.0519325 0.0340607 -5.37698e-20)
(0.0136742 0.0250848 2.70878e-18)
(0.32596 0.130653 -2.21907e-19)
(0.692301 0.246765 -9.46123e-19)
(0.938193 0.318756 2.31007e-18)
(1.07285 0.35892 2.17187e-19)
(1.13683 0.375694 9.22236e-19)
(1.16128 0.386996 -1.84182e-18)
(1.17182 0.387697 4.19507e-20)
(1.17664 0.3921 -8.21093e-19)
(1.183 0.393104 -1.67184e-19)
(1.19125 0.39087 -5.59633e-19)
(-0.0363089 0.0123466 -6.10801e-19)
(-0.0672474 0.0224279 1.69756e-18)
(-0.0653246 0.0268311 1.02531e-18)
(-0.0413345 0.0314819 8.16208e-19)
(0.0882191 0.0374843 -4.53022e-19)
(0.479053 0.180943 -1.79818e-19)
(0.804733 0.284374 1.19967e-18)
(1.00497 0.344149 -9.81526e-19)
(1.10772 0.374444 2.98275e-19)
(1.15266 0.384553 -1.55704e-18)
(1.16788 0.39106 1.07973e-19)
(1.1745 0.388379 2.34466e-19)
(1.17689 0.39156 -3.41913e-19)
(1.18192 0.389879 -2.03674e-18)
(1.18923 0.386869 8.55727e-19)
(-0.0359379 0.0106127 -1.07038e-18)
(-0.0658306 0.0202013 -1.33766e-18)
(-0.060345 0.0274347 6.99785e-19)
(-0.0242916 0.0170334 -9.38301e-20)
(0.211608 0.082992 -1.08647e-18)
(0.615008 0.226108 -4.55983e-20)
(0.895975 0.315384 -8.46638e-19)
(1.05555 0.363638 -1.68918e-18)
(1.13168 0.385434 -6.92814e-19)
(1.16243 0.390689 6.42222e-19)
(1.17128 0.39373 5.83488e-19)
(1.17506 0.388845 -5.87891e-20)
(1.17606 0.391117 -9.21944e-19)
(1.18064 0.387023 1.6791e-18)
(1.18613 0.383621 5.23095e-19)
(-0.0361443 0.00832788 1.05088e-18)
(-0.0641468 0.0169608 2.02115e-21)
(-0.0582403 0.0233835 -1.71722e-18)
(0.0154318 0.00243337 -3.84333e-20)
(0.365922 0.137973 2.60689e-19)
(0.733952 0.264164 4.85286e-19)
(0.968061 0.340025 -8.81335e-19)
(1.0918 0.378182 4.64991e-19)
(1.14687 0.393261 -2.04698e-20)
(1.16718 0.395018 5.1967e-19)
(1.17201 0.395533 -4.64408e-19)
(1.17445 0.389183 -1.29903e-18)
(1.17458 0.390685 -6.31941e-20)
(1.17849 0.384358 -8.13266e-19)
(1.18291 0.380912 -7.03441e-19)
(-0.0371192 0.00580287 4.26204e-19)
(-0.0627133 0.0145853 -8.71007e-19)
(-0.0557896 0.0139219 8.72935e-19)
(0.0887901 0.0166457 -2.7425e-19)
(0.507993 0.186267 -1.49849e-19)
(0.832077 0.29681 -4.37545e-19)
(1.02307 0.359861 6.92462e-19)
(1.11756 0.389155 4.54095e-19)
(1.1564 0.398783 -2.72848e-19)
(1.16937 0.398078 -7.7577e-19)
(1.17161 0.396709 -2.80673e-19)
(1.17292 0.389509 1.33054e-18)
(1.17245 0.390328 8.11994e-19)
(1.17617 0.382019 8.00479e-19)
(1.1793 0.3789 -2.47031e-19)
(-0.0386841 0.00354614 -2.6867e-19)
(-0.0626744 0.0131175 9.6041e-20)
(-0.0436037 -0.00109748 -3.59679e-19)
(0.202976 0.0673462 -3.65847e-21)
(0.629634 0.228998 -2.79256e-19)
(0.912053 0.324382 -4.22815e-19)
(1.06508 0.375498 1.50914e-19)
(1.13508 0.397188 -8.97826e-19)
(1.1615 0.402716 8.04883e-19)
(1.16923 0.400319 1.0302e-18)
(1.16986 0.397599 1.31536e-19)
(1.1707 0.389919 -1.15377e-18)
(1.16991 0.389942 -1.12149e-18)
(1.17321 0.379955 -8.47038e-19)
(1.17524 0.377284 3.41255e-19)
(-0.0406058 0.00261614 -8.64347e-19)
(-0.0646702 0.0100251 2.36494e-19)
(-0.0101403 -0.0150129 -1.73489e-19)
(0.345318 0.125448 -4.38153e-21)
(0.736721 0.264645 -6.99135e-20)
(0.975539 0.346728 -1.61082e-19)
(1.09561 0.38785 3.02585e-19)
(1.14646 0.403348 -1.73634e-19)
(1.16385 0.405689 -2.31314e-19)
(1.16811 0.402117 -4.4569e-19)
(1.16778 0.398318 -3.95318e-19)
(1.16806 0.390351 -1.81164e-19)
(1.16694 0.389605 6.96202e-19)
(1.17005 0.378246 -2.7396e-20)
(1.17112 0.376211 5.46933e-19)
(-0.0424128 0.00423295 3.59234e-19)
(-0.066825 0.0045652 6.00272e-19)
(0.048391 -0.0098623 1.00509e-19)
(0.480862 0.173613 3.69695e-19)
(0.827119 0.295751 8.1416e-19)
(1.0249 0.365457 3.02109e-19)
(1.11771 0.397687 1.12048e-18)
(1.15351 0.408043 5.96457e-19)
(1.16419 0.408022 3.79129e-19)
(1.16593 0.403605 8.72944e-19)
(1.16492 0.398985 2.70891e-19)
(1.16493 0.390919 4.94389e-19)
(1.16367 0.38928 2.44951e-19)
(1.1664 0.376847 1.14943e-19)
(1.16645 0.375404 3.77975e-19)
(-0.0437975 0.00846476 5.00968e-19)
(-0.0648601 -0.00333759 -8.53064e-19)
(0.130683 0.0238106 -1.62823e-19)
(0.593204 0.215246 3.8922e-19)
(0.901666 0.32371 -8.21957e-19)
(1.06324 0.381162 -3.37794e-19)
(1.13295 0.405535 -6.92336e-19)
(1.15723 0.41187 -2.36842e-20)
(1.16321 0.410075 -1.88981e-19)
(1.16335 0.405041 -7.33985e-19)
(1.16197 0.399722 5.58078e-19)
(1.16157 0.391529 4.21758e-20)
(1.16009 0.389013 -2.38692e-20)
(1.16254 0.375818 2.01631e-19)
(1.16187 0.374964 -4.6385e-19)
(-0.0451489 0.0128846 -3.6699e-20)
(-0.0523955 -0.0129334 3.74488e-19)
(0.238312 0.0759247 1.02462e-19)
(0.690947 0.25161 -5.45478e-19)
(0.961986 0.347376 3.64684e-19)
(1.09202 0.394299 1.17128e-19)
(1.14324 0.412049 -3.08013e-19)
(1.15881 0.415113 -1.4664e-19)
(1.16137 0.411982 -4.47668e-19)
(1.16027 0.406428 7.98383e-20)
(1.15848 0.400499 -5.40111e-19)
(1.1578 0.392265 -3.82465e-19)
(1.15623 0.38883 1.02148e-19)
(1.15829 0.375091 1.05649e-19)
(1.1568 0.374651 -1.83499e-19)
(-0.0469695 0.0139313 -1.85888e-19)
(-0.0255518 -0.0189843 -1.18576e-19)
(0.359093 0.127813 2.56012e-19)
(0.775966 0.282493 4.68938e-19)
(1.00962 0.367244 9.13471e-20)
(1.11318 0.405279 -2.52348e-19)
(1.14968 0.417582 3.19181e-19)
(1.15871 0.418117 2.793e-19)
(1.15885 0.413935 1.458e-19)
(1.15692 0.407923 2.78947e-20)
(1.15491 0.401454 1.73678e-19)
(1.15388 0.393075 7.68453e-20)
(1.15211 0.388731 -5.38125e-20)
(1.15383 0.374684 -6.78159e-20)
(1.15187 0.374534 5.9893e-20)
(-0.0492388 0.00897813 -8.66318e-20)
(0.0157309 -0.0160824 -1.01923e-19)
(0.474542 0.173406 8.41403e-20)
(0.850111 0.310657 -1.1088e-19)
(1.04735 0.384052 -2.37916e-19)
(1.12814 0.414443 1.8254e-20)
(1.15326 0.422482 1.47218e-19)
(1.15755 0.421031 -1.33515e-19)
(1.15592 0.415985 8.86211e-20)
(1.15329 0.409508 1.78942e-19)
(1.15092 0.402491 2.85933e-20)