/*--------------------------------*- C++ -*----------------------------------*\
  =========                 |
  \\      /  F ield         | OpenFOAM: The Open Source CFD Toolbox
   \\    /   O peration     | Website:  https://openfoam.org
    \\  /    A nd           | Version:  7
     \\/     M anipulation  |
\*---------------------------------------------------------------------------*/
FoamFile
{
    version     2.0;
    format      ascii;
    class       volScalarField;
    location    "20.0013";
    object      p;
}
// * * * * * * * * * * * * * * * * * * * * * * * * * * * * * * * * * * * * * //

dimensions      [0 2 -2 0 0 0 0];

internalField   nonuniform List<scalar> 
18750
(
-0.0181057
-0.0289372
-0.0480518
-0.0761953
-0.1117
-0.153744
-0.201156
-0.252915
-0.307957
-0.365375
-0.424271
-0.483732
-0.542797
-0.600592
-0.656464
-0.0224298
-0.0329701
-0.051817
-0.0797259
-0.115032
-0.156908
-0.204177
-0.255805
-0.310716
-0.367997
-0.426762
-0.486111
-0.545059
-0.602678
-0.658295
-0.030867
-0.0408429
-0.0591648
-0.0866114
-0.121523
-0.163063
-0.210042
-0.261402
-0.316042
-0.37304
-0.431527
-0.49063
-0.549334
-0.60662
-0.661773
-0.0430638
-0.0522327
-0.06979
-0.0965606
-0.13089
-0.171927
-0.218463
-0.26941
-0.323632
-0.380187
-0.438232
-0.496928
-0.55525
-0.612076
-0.666626
-0.0585193
-0.0666778
-0.0832571
-0.109162
-0.142736
-0.183107
-0.229045
-0.279429
-0.333079
-0.389028
-0.446448
-0.504558
-0.562349
-0.618621
-0.6725
-0.0766193
-0.0835942
-0.0990241
-0.123913
-0.156581
-0.196135
-0.241325
-0.290994
-0.343921
-0.3991
-0.455716
-0.513052
-0.570162
-0.625809
-0.679015
-0.0966868
-0.102294
-0.116475
-0.140247
-0.17189
-0.210497
-0.254798
-0.30361
-0.35567
-0.409933
-0.465583
-0.521969
-0.578252
-0.633225
-0.685804
-0.117963
-0.122056
-0.134964
-0.157572
-0.188109
-0.225664
-0.268957
-0.316784
-0.367853
-0.421077
-0.475629
-0.530919
-0.586245
-0.640501
-0.692533
-0.139639
-0.142164
-0.153857
-0.175301
-0.204686
-0.241116
-0.283308
-0.330048
-0.380023
-0.432115
-0.485478
-0.539567
-0.593826
-0.647324
-0.6989
-0.160914
-0.161922
-0.172551
-0.192875
-0.221099
-0.256366
-0.297395
-0.34297
-0.391776
-0.442676
-0.494799
-0.547627
-0.600738
-0.653427
-0.704626
-0.181038
-0.180707
-0.190503
-0.209778
-0.236868
-0.270969
-0.310806
-0.355169
-0.402757
-0.452429
-0.503298
-0.55485
-0.606763
-0.658581
-0.70945
-0.199335
-0.198013
-0.207231
-0.225552
-0.251572
-0.28454
-0.323182
-0.366313
-0.412657
-0.461089
-0.510715
-0.561016
-0.611719
-0.662585
-0.713113
-0.215251
-0.213504
-0.222314
-0.239806
-0.264857
-0.296751
-0.334222
-0.376122
-0.421217
-0.468409
-0.516816
-0.565915
-0.615442
-0.665277
-0.715353
-0.228428
-0.226917
-0.235383
-0.252235
-0.276442
-0.307342
-0.343676
-0.384363
-0.428218
-0.474181
-0.521393
-0.569347
-0.617775
-0.666546
-0.71589
-0.238868
-0.237921
-0.246174
-0.262625
-0.286122
-0.316114
-0.351352
-0.390854
-0.433484
-0.478235
-0.52427
-0.571116
-0.618544
-0.666326
-0.714492
-0.246626
-0.246333
-0.254695
-0.270845
-0.293775
-0.322926
-0.357111
-0.395456
-0.436875
-0.480428
-0.525305
-0.571056
-0.617533
-0.664503
-0.711228
-0.251875
-0.25226
-0.260923
-0.276931
-0.29938
-0.327693
-0.360872
-0.398075
-0.438288
-0.480647
-0.524382
-0.569042
-0.614555
-0.660824
-0.706369
-0.254984
-0.256004
-0.264951
-0.280888
-0.302907
-0.330428
-0.362616
-0.398667
-0.43766
-0.478805
-0.521405
-0.564988
-0.609506
-0.655136
-0.699723
-0.256496
-0.257955
-0.266972
-0.282783
-0.304383
-0.331146
-0.362332
-0.397211
-0.434957
-0.47486
-0.516321
-0.558839
-0.602285
-0.647413
-0.690963
-0.257025
-0.258507
-0.267212
-0.282758
-0.30391
-0.329903
-0.360053
-0.393719
-0.430174
-0.468781
-0.50907
-0.550566
-0.592811
-0.637572
-0.679989
-0.257106
-0.25796
-0.265897
-0.281012
-0.301642
-0.326807
-0.355854
-0.388238
-0.423334
-0.460565
-0.49959
-0.540161
-0.581042
-0.625526
-0.666813
-0.256993
-0.256424
-0.263251
-0.277785
-0.297767
-0.321996
-0.349847
-0.380845
-0.414487
-0.450247
-0.487824
-0.527614
-0.566984
-0.611236
-0.651454
-0.256547
-0.25382
-0.259552
-0.27335
-0.292483
-0.315638
-0.342178
-0.37165
-0.403692
-0.437917
-0.473744
-0.512903
-0.550666
-0.594737
-0.633958
-0.255351
-0.250138
-0.255194
-0.268
-0.286006
-0.307924
-0.333022
-0.360793
-0.391005
-0.423693
-0.457377
-0.495998
-0.532108
-0.576054
-0.614504
-0.253104
-0.245888
-0.250646
-0.262025
-0.27859
-0.299092
-0.322581
-0.348469
-0.37648
-0.407672
-0.43883
-0.476882
-0.511355
-0.555092
-0.593285
-0.249836
-0.242157
-0.246282
-0.25573
-0.270568
-0.289444
-0.311075
-0.334914
-0.360207
-0.389891
-0.418275
-0.455553
-0.488602
-0.531772
-0.570284
-0.246057
-0.239717
-0.242229
-0.249486
-0.26238
-0.279363
-0.298743
-0.320385
-0.342375
-0.370323
-0.395922
-0.4319
-0.464249
-0.506253
-0.545528
-0.242477
-0.238355
-0.238554
-0.243805
-0.254545
-0.269321
-0.285886
-0.305085
-0.323335
-0.348914
-0.372097
-0.405635
-0.438508
-0.47876
-0.51928
-0.23961
-0.237305
-0.235634
-0.239283
-0.247589
-0.259849
-0.272926
-0.289204
-0.30352
-0.32564
-0.347295
-0.376741
-0.411315
-0.449149
-0.492905
-0.237541
-0.236169
-0.234005
-0.236237
-0.241954
-0.251493
-0.260469
-0.272945
-0.283519
-0.300529
-0.3219
-0.345548
-0.38308
-0.415779
-0.466395
-0.236128
-0.235064
-0.233538
-0.234551
-0.237982
-0.244683
-0.249328
-0.256698
-0.263798
-0.274206
-0.295911
-0.313435
-0.353464
-0.381389
-0.43316
-0.235142
-0.23426
-0.233509
-0.233948
-0.235859
-0.239723
-0.240201
-0.241356
-0.244741
-0.247863
-0.269328
-0.282554
-0.322762
-0.349839
-0.399933
-0.234371
-0.233729
-0.233566
-0.234168
-0.235426
-0.236703
-0.233582
-0.227801
-0.227041
-0.223121
-0.242617
-0.25377
-0.29541
-0.321768
-0.373541
-0.233642
-0.233305
-0.233692
-0.234851
-0.236088
-0.235439
-0.229362
-0.217513
-0.210961
-0.202838
-0.215576
-0.230159
-0.26735
-0.299982
-0.35219
-0.232791
-0.232816
-0.233796
-0.235588
-0.237058
-0.235431
-0.226903
-0.211242
-0.197598
-0.187661
-0.193316
-0.211355
-0.24319
-0.284133
-0.330487
-0.231681
-0.232106
-0.233655
-0.236027
-0.237733
-0.235904
-0.225695
-0.208434
-0.188928
-0.177261
-0.18014
-0.199072
-0.227866
-0.272145
-0.312482
-0.230225
-0.231044
-0.233037
-0.235834
-0.237732
-0.23609
-0.22534
-0.207813
-0.185458
-0.172215
-0.174399
-0.193654
-0.219964
-0.260972
-0.299902
-0.228402
-0.229563
-0.231812
-0.234836
-0.236851
-0.235477
-0.225442
-0.208569
-0.186747
-0.173368
-0.174274
-0.192406
-0.216849
-0.252778
-0.290473
-0.226286
-0.227678
-0.229957
-0.232961
-0.234973
-0.234004
-0.225914
-0.21091
-0.191682
-0.179568
-0.179012
-0.193802
-0.216698
-0.247669
-0.282508
-0.224056
-0.22554
-0.227621
-0.230268
-0.232256
-0.232229
-0.227712
-0.21626
-0.199152
-0.188576
-0.186626
-0.197602
-0.217893
-0.244484
-0.27561
-0.221983
-0.223433
-0.225181
-0.22747
-0.229434
-0.230829
-0.231396
-0.224176
-0.2086
-0.198017
-0.194865
-0.202548
-0.219513
-0.242233
-0.269434
-0.220332
-0.221671
-0.223102
-0.225083
-0.227148
-0.230048
-0.235829
-0.231108
-0.217651
-0.206259
-0.202147
-0.207291
-0.221095
-0.240272
-0.263693
-0.21926
-0.220453
-0.221632
-0.223376
-0.225547
-0.229686
-0.23776
-0.23588
-0.224103
-0.212723
-0.207933
-0.211229
-0.222274
-0.238209
-0.258233
-0.218774
-0.219787
-0.220758
-0.222261
-0.224181
-0.229396
-0.234759
-0.237264
-0.227707
-0.217246
-0.212211
-0.214084
-0.222817
-0.23591
-0.252927
-0.218754
-0.219549
-0.220281
-0.221405
-0.222634
-0.228142
-0.23086
-0.235199
-0.228708
-0.21996
-0.215055
-0.215871
-0.222685
-0.233295
-0.247684
-0.219041
-0.219578
-0.219973
-0.220466
-0.221236
-0.223528
-0.227596
-0.231608
-0.22779
-0.221069
-0.216617
-0.216689
-0.221869
-0.230342
-0.242467
-0.2195
-0.219761
-0.219721
-0.219394
-0.220237
-0.21818
-0.22461
-0.227963
-0.225767
-0.220887
-0.217039
-0.216628
-0.220435
-0.227079
-0.237229
-0.220054
-0.220057
-0.219475
-0.218649
-0.218572
-0.215599
-0.22156
-0.224499
-0.223258
-0.219753
-0.2165
-0.215797
-0.218442
-0.223521
-0.231952
-0.220683
-0.220493
-0.219214
-0.219006
-0.214715
-0.215517
-0.219216
-0.221373
-0.220582
-0.217965
-0.215181
-0.21428
-0.21595
-0.219709
-0.226623
-0.221421
-0.221086
-0.219185
-0.220314
-0.212058
-0.215369
-0.217563
-0.218686
-0.217902
-0.215745
-0.213253
-0.212177
-0.213017
-0.215662
-0.22122
-0.222333
-0.221707
-0.220316
-0.220206
-0.213803
-0.21524
-0.216215
-0.216381
-0.215291
-0.213241
-0.210856
-0.209573
-0.209691
-0.211401
-0.215739
-0.223475
-0.222441
-0.22294
-0.217496
-0.21687
-0.215799
-0.215152
-0.214321
-0.212742
-0.210543
-0.208096
-0.206552
-0.206026
-0.206938
-0.210158
-0.224841
-0.223378
-0.226083
-0.215741
-0.218114
-0.216347
-0.214329
-0.212445
-0.210236
-0.207703
-0.205052
-0.203183
-0.202065
-0.202282
-0.20447
-0.226364
-0.225097
-0.227579
-0.218683
-0.218844
-0.216569
-0.213564
-0.210665
-0.207734
-0.204739
-0.201775
-0.199525
-0.197851
-0.197444
-0.198661
-0.228036
-0.228205
-0.22666
-0.224397
-0.220663
-0.21669
-0.212689
-0.208875
-0.205203
-0.201662
-0.198298
-0.19562
-0.193415
-0.19243
-0.192736
-0.22979
-0.232611
-0.223932
-0.227725
-0.22261
-0.216902
-0.211754
-0.20703
-0.202603
-0.198464
-0.194639
-0.191495
-0.18878
-0.187251
-0.186706
-0.231739
-0.236898
-0.222913
-0.227964
-0.223635
-0.217054
-0.2108
-0.205123
-0.199916
-0.19514
-0.190806
-0.187167
-0.183957
-0.18191
-0.180587
-0.234233
-0.239718
-0.226587
-0.227754
-0.223733
-0.216867
-0.209749
-0.203141
-0.197123
-0.191677
-0.186796
-0.182646
-0.178955
-0.176416
-0.174401
-0.237652
-0.240532
-0.233896
-0.229315
-0.223637
-0.216297
-0.208484
-0.201024
-0.194198
-0.188059
-0.182606
-0.177933
-0.173775
-0.170771
-0.168158
-0.242357
-0.239819
-0.240886
-0.232628
-0.224095
-0.215545
-0.206954
-0.198704
-0.191098
-0.184263
-0.178224
-0.173023
-0.168415
-0.164981
-0.161861
-0.248835
-0.238753
-0.245886
-0.236356
-0.225162
-0.214843
-0.2052
-0.19613
-0.187773
-0.180258
-0.173632
-0.167909
-0.162871
-0.159043
-0.155493
-0.256984
-0.240894
-0.248958
-0.239551
-0.226428
-0.214219
-0.203274
-0.193287
-0.184179
-0.176006
-0.168807
-0.162579
-0.157135
-0.152947
-0.149026
-0.266391
-0.247987
-0.251418
-0.241788
-0.227388
-0.213507
-0.201169
-0.190172
-0.180291
-0.171475
-0.163726
-0.157015
-0.151192
-0.146674
-0.142423
-0.276077
-0.259266
-0.254614
-0.243132
-0.227682
-0.212452
-0.198804
-0.186764
-0.176088
-0.166639
-0.158362
-0.151197
-0.145024
-0.140206
-0.13566
-0.284601
-0.271541
-0.258865
-0.243928
-0.227182
-0.210843
-0.196061
-0.183022
-0.171553
-0.16148
-0.152695
-0.145104
-0.138608
-0.13352
-0.128722
-0.290764
-0.281584
-0.263262
-0.24441
-0.225953
-0.208579
-0.192833
-0.17889
-0.166659
-0.155978
-0.146705
-0.138712
-0.131918
-0.126593
-0.121601
-0.294001
-0.288058
-0.26651
-0.244451
-0.224118
-0.205664
-0.189057
-0.174313
-0.161377
-0.150118
-0.140377
-0.132003
-0.124927
-0.119398
-0.114275
-0.294867
-0.291211
-0.268116
-0.243801
-0.221726
-0.202147
-0.184715
-0.169252
-0.155676
-0.143878
-0.133696
-0.12496
-0.117617
-0.111903
-0.106693
-0.294622
-0.29198
-0.268122
-0.242298
-0.218754
-0.198062
-0.179813
-0.163682
-0.149528
-0.137238
-0.126646
-0.117572
-0.109978
-0.104085
-0.0987659
-0.294226
-0.291305
-0.26678
-0.23989
-0.215146
-0.193408
-0.174355
-0.157591
-0.142911
-0.130176
-0.11921
-0.10983
-0.102019
-0.0959527
-0.090367
-0.294193
-0.289853
-0.264373
-0.236598
-0.210852
-0.188162
-0.168334
-0.150969
-0.135808
-0.122675
-0.111372
-0.101729
-0.0937536
-0.0875572
-0.0813843
-0.294631
-0.287965
-0.261118
-0.232465
-0.205837
-0.182287
-0.161731
-0.143801
-0.128202
-0.114717
-0.103123
-0.0932639
-0.0851896
-0.0789583
-0.0718182
-0.295362
-0.285783
-0.257158
-0.227531
-0.200071
-0.175742
-0.154517
-0.136066
-0.120079
-0.106295
-0.0944629
-0.0844458
-0.0763344
-0.0701399
-0.0618876
-0.296027
-0.283316
-0.252552
-0.221808
-0.193523
-0.168482
-0.146656
-0.127745
-0.111428
-0.0974067
-0.0854037
-0.0753023
-0.0672214
-0.0609414
-0.0519925
-0.2962
-0.28044
-0.247276
-0.215277
-0.186157
-0.160464
-0.138114
-0.11882
-0.102246
-0.0880571
-0.0759632
-0.0658661
-0.0579033
-0.0512124
-0.0422148
-0.295518
-0.276813
-0.241222
-0.207888
-0.177931
-0.151651
-0.128869
-0.109287
-0.0925407
-0.0782567
-0.0661544
-0.0561477
-0.0482682
-0.0410966
-0.0324621
-0.293649
-0.272076
-0.234234
-0.199571
-0.168804
-0.142017
-0.118916
-0.0991558
-0.0823219
-0.068016
-0.0559627
-0.0461103
-0.0382559
-0.0307435
-0.0226463
-0.290311
-0.265973
-0.226149
-0.190249
-0.158743
-0.131559
-0.108272
-0.0884383
-0.0715776
-0.0573118
-0.0453906
-0.0357243
-0.0278679
-0.0202312
-0.0127223
-0.285275
-0.258325
-0.216825
-0.179854
-0.147731
-0.1203
-0.0969551
-0.0771002
-0.0602884
-0.0461485
-0.0344359
-0.0249807
-0.0171484
-0.00957104
-0.00267983
-0.278378
-0.24902
-0.206142
-0.16834
-0.135785
-0.108268
-0.0849085
-0.0651264
-0.0484577
-0.0345353
-0.0231
-0.0138875
-0.00614524
0.00125503
0.00748079
-0.269519
-0.238015
-0.194001
-0.155691
-0.122946
-0.0953927
-0.0721222
-0.0525201
-0.0360968
-0.0224838
-0.0113916
-0.00246116
0.00512179
0.0122608
0.0177588
-0.258649
-0.225339
-0.180328
-0.141912
-0.10916
-0.0816679
-0.0586035
-0.0392935
-0.0232209
-0.0100089
0.000675171
0.00928186
0.0166467
0.0234545
0.0281433
-0.245763
-0.211066
-0.165132
-0.126953
-0.0943783
-0.0671069
-0.0443711
-0.0254652
-0.00984868
0.00287251
0.0130853
0.0213272
0.0284193
0.0348233
0.0385996
-0.230887
-0.195222
-0.148585
-0.110705
-0.0785884
-0.0517292
-0.0294508
-0.0110601
0.00399804
0.0161437
0.0258285
0.0336644
0.040413
0.0463044
0.0490753
-0.214085
-0.177669
-0.130794
-0.0932697
-0.061813
-0.0355589
-0.0138736
0.00389187
0.0182949
0.0297905
0.0389011
0.0462861
0.0525823
0.0577758
0.0594721
-0.195475
-0.158137
-0.111927
-0.0747921
-0.0441112
-0.0186287
0.00232615
0.019357
0.033016
0.0438003
0.0523026
0.0591821
0.0648707
0.0690802
0.0695107
-0.175204
-0.13667
-0.0919386
-0.0553926
-0.0255648
-0.000985067
0.0191093
0.0352992
0.0481343
0.0581596
0.0660247
0.0723234
0.0772093
0.0800486
0.0786936
-0.153356
-0.113598
-0.0707448
-0.0351385
-0.0062594
0.0173128
0.0364306
0.0516803
0.0636217
0.0728487
0.0800382
0.0856471
0.0894991
0.0905422
0.0868514
-0.12988
-0.0894117
-0.0484057
-0.0140624
0.0137306
0.0361981
0.0542383
0.0684598
0.0794472
0.0878359
0.0942836
0.0990516
0.101627
0.100655
0.0949742
-0.104762
-0.0644741
-0.0250819
0.00779494
0.0343404
0.0556021
0.0724756
0.0855936
0.0955741
0.103075
0.10868
0.112427
0.113546
0.110914
0.105083
-0.0782493
-0.0387781
-0.000936154
0.0303551
0.0555038
0.0754561
0.0910826
0.103033
0.111957
0.118508
0.12315
0.125717
0.12536
0.121611
0.118972
-0.0505642
-0.0123238
0.0238972
0.0535144
0.077145
0.09569
0.109997
0.120724
0.128541
0.134069
0.137639
0.138952
0.137292
0.133019
0.132527
-0.0219181
0.0148224
0.0493019
0.0771619
0.0991787
0.116231
0.129153
0.138607
0.145265
0.149694
0.152116
0.152196
0.149484
0.145095
0.145379
0.00750418
0.0425534
0.0751661
0.101188
0.121513
0.137002
0.148484
0.156618
0.162064
0.165333
0.16657
0.165477
0.161876
0.157393
0.157606
0.037523
0.0707352
0.101374
0.125484
0.144054
0.157923
0.167916
0.174689
0.178878
0.180942
0.18099
0.178801
0.17443
0.169737
0.169374
0.0679684
0.0992264
0.127807
0.149941
0.166705
0.178909
0.187377
0.192752
0.195649
0.196481
0.19535
0.192108
0.186985
0.181923
0.180837
0.0986716
0.127882
0.15434
0.174452
0.18937
0.199877
0.20679
0.210741
0.21232
0.211911
0.209619
0.205364
0.199492
0.193918
0.192022
0.129469
0.156558
0.18085
0.198908
0.211952
0.22074
0.22608
0.228589
0.228835
0.227183
0.223741
0.218483
0.211837
0.205687
0.20297
0.160198
0.185113
0.207212
0.2232
0.234355
0.241412
0.245169
0.246228
0.24514
0.242251
0.237677
0.23143
0.223993
0.217197
0.213645
0.190702
0.213409
0.233305
0.24722
0.256484
0.26181
0.263984
0.263594
0.261174
0.257057
0.25136
0.24413
0.2359
0.228448
0.224044
0.220827
0.241312
0.259008
0.270862
0.278245
0.281849
0.282449
0.280621
0.276883
0.271554
0.264753
0.256552
0.247522
0.239382
0.234127
0.250424
0.268691
0.284206
0.294022
0.299545
0.301447
0.300492
0.297244
0.292205
0.285681
0.277793
0.268641
0.258829
0.249999
0.243873
0.279347
0.295419
0.308784
0.316599
0.320294
0.320525
0.318043
0.313401
0.307087
0.299394
0.290443
0.28036
0.26977
0.260242
0.25325
0.307459
0.321375
0.332635
0.338496
0.340406
0.339003
0.335031
0.329028
0.321469
0.312635
0.302653
0.291671
0.280329
0.270098
0.262231
0.334626
0.346441
0.355653
0.35962
0.359796
0.356809
0.351391
0.344068
0.335302
0.325363
0.314381
0.302528
0.290452
0.279526
0.270791
0.360721
0.370505
0.377739
0.379879
0.378384
0.37387
0.367057
0.358461
0.348531
0.337528
0.32559
0.312906
0.300122
0.288501
0.278906
0.385623
0.393463
0.398797
0.39919
0.396094
0.390117
0.381969
0.372155
0.36111
0.349088
0.336234
0.322758
0.309296
0.296997
0.286554
0.409218
0.415213
0.418738
0.417471
0.412853
0.405485
0.396067
0.385095
0.37299
0.360002
0.346284
0.33206
0.317948
0.304985
0.293716
0.4314
0.435662
0.437478
0.434647
0.428594
0.419915
0.4093
0.397233
0.384127
0.370229
0.355699
0.340776
0.32605
0.312443
0.300373
0.452069
0.454723
0.454938
0.450647
0.443252
0.433348
0.421613
0.408524
0.394484
0.379736
0.364452
0.348878
0.333574
0.319349
0.30651
0.471133
0.472315
0.471047
0.465407
0.456771
0.445732
0.432961
0.418926
0.40402
0.388487
0.372509
0.356337
0.340494
0.325682
0.312114
0.488506
0.488368
0.48574
0.478866
0.469096
0.457019
0.443301
0.4284
0.412702
0.396453
0.379844
0.363128
0.34679
0.331425
0.317172
0.504112
0.502818
0.49896
0.490973
0.480178
0.467165
0.452592
0.43691
0.420499
0.403605
0.38643
0.369228
0.352438
0.336562
0.321675
0.517886
0.515608
0.510652
0.501676
0.489973
0.476131
0.4608
0.444425
0.427382
0.409919
0.392246
0.374616
0.357422
0.34108
0.325617
0.529787
0.526675
0.520769
0.510932
0.498442
0.483881
0.467894
0.450919
0.433328
0.415372
0.397271
0.379272
0.361725
0.344966
0.328991
0.539782
0.535962
0.529264
0.518704
0.505551
0.490385
0.473846
0.456366
0.438315
0.419946
0.401487
0.383179
0.365332
0.348211
0.331796
0.547831
0.543433
0.536101
0.524959
0.511273
0.49562
0.478635
0.460748
0.442326
0.423625
0.404879
0.386323
0.36823
0.35081
0.334033
0.553901
0.549061
0.541253
0.529672
0.515584
0.499564
0.482243
0.464049
0.445347
0.426396
0.407434
0.388692
0.370412
0.352759
0.335705
0.557963
0.552825
0.5447
0.532826
0.518469
0.502202
0.484657
0.466257
0.447367
0.428249
0.409143
0.390277
0.37187
0.354058
0.336817
0.560001
0.554713
0.546428
0.534407
0.519915
0.503525
0.485867
0.467364
0.44838
0.429178
0.41
0.391072
0.372601
0.354707
0.337372
0.560005
0.554716
0.546431
0.53441
0.519918
0.503528
0.48587
0.467367
0.448382
0.42918
0.410002
0.391074
0.372603
0.354709
0.337373
0.557975
0.552836
0.54471
0.532835
0.518478
0.50221
0.484665
0.466264
0.447374
0.428255
0.409149
0.390283
0.371875
0.354063
0.336821
0.55392
0.549079
0.541269
0.529688
0.515599
0.499577
0.482256
0.464061
0.445358
0.426406
0.407444
0.388702
0.370421
0.352767
0.335713
0.547858
0.543458
0.536124
0.52498
0.511293
0.495638
0.478653
0.460765
0.442341
0.42364
0.404892
0.386337
0.368243
0.350822
0.334044
0.539816
0.535994
0.529293
0.518731
0.505577
0.490409
0.473869
0.456387
0.438335
0.419965
0.401505
0.383196
0.365348
0.348227
0.33181
0.529829
0.526714
0.520805
0.510966
0.498473
0.48391
0.467921
0.450944
0.433352
0.415395
0.397293
0.379293
0.361745
0.344985
0.329008
0.517935
0.515654
0.510695
0.501715
0.49001
0.476165
0.460833
0.444456
0.427411
0.409946
0.392272
0.374641
0.357446
0.341102
0.325637
0.504169
0.502872
0.499009
0.491018
0.48022
0.467205
0.45263
0.436945
0.420532
0.403637
0.38646
0.369257
0.352466
0.336588
0.321699
0.488571
0.488428
0.485796
0.478918
0.469144
0.457064
0.443343
0.428439
0.41274
0.396488
0.379877
0.363161
0.34682
0.331454
0.317199
0.471205
0.472382
0.471109
0.465464
0.456825
0.445783
0.433009
0.41897
0.404062
0.388527
0.372547
0.356373
0.340529
0.325715
0.312144
0.452149
0.454797
0.455007
0.450711
0.443312
0.433403
0.421665
0.408573
0.39453
0.37978
0.364493
0.348917
0.333611
0.319385
0.306544
0.431487
0.435743
0.437553
0.434716
0.428658
0.419975
0.409356
0.397287
0.384178
0.370276
0.355745
0.34082
0.326092
0.312483
0.30041
0.409313
0.415301
0.418819
0.417547
0.412923
0.405551
0.396129
0.385153
0.373044
0.360054
0.346333
0.332107
0.317993
0.305028
0.293756
0.385724
0.393557
0.398885
0.399271
0.396169
0.390187
0.382035
0.372217
0.361169
0.349143
0.336287
0.322809
0.309344
0.297043
0.286597
0.36083
0.370606
0.377833
0.379966
0.378465
0.373945
0.367128
0.358528
0.348594
0.337588
0.325646
0.31296
0.300173
0.288551
0.278952
0.334742
0.346548
0.355753
0.359712
0.359882
0.35689
0.351467
0.34414
0.33537
0.325427
0.314442
0.302585
0.290508
0.279579
0.270841
0.307582
0.321489
0.332741
0.338595
0.340497
0.339089
0.335112
0.329104
0.321541
0.312703
0.302717
0.291732
0.280387
0.270154
0.262284
0.279477
0.29554
0.308896
0.316703
0.320391
0.320615
0.318128
0.313481
0.307162
0.299465
0.290511
0.280424
0.269832
0.260301
0.253306
0.25056
0.268818
0.284323
0.294131
0.299647
0.301543
0.300582
0.297328
0.292284
0.285756
0.277864
0.26871
0.258894
0.250062
0.243932
0.22097
0.241445
0.259131
0.270976
0.278352
0.281949
0.282543
0.280709
0.276966
0.271633
0.264828
0.256624
0.24759
0.239448
0.234189
0.190852
0.213548
0.233433
0.24734
0.256596
0.261915
0.264082
0.263687
0.261262
0.25714
0.251439
0.244205
0.235972
0.228517
0.224109
0.160354
0.185258
0.207346
0.223325
0.234472
0.241522
0.245272
0.246325
0.245231
0.242338
0.23776
0.231509
0.224068
0.217269
0.213713
0.129631
0.156708
0.18099
0.199038
0.212073
0.220854
0.226187
0.22869
0.228931
0.227274
0.223827
0.218564
0.211916
0.205762
0.203041
0.0988401
0.128038
0.154485
0.174588
0.189496
0.199995
0.206902
0.210846
0.212419
0.212005
0.209709
0.20545
0.199573
0.193996
0.192096
0.0681428
0.0993882
0.127957
0.150081
0.166836
0.179032
0.187492
0.192861
0.195752
0.196579
0.195443
0.192196
0.18707
0.182004
0.180913
0.0377031
0.0709023
0.10153
0.125628
0.144189
0.158049
0.168036
0.174801
0.178985
0.181043
0.181086
0.178893
0.174518
0.169821
0.169453
0.00768973
0.0427257
0.0753264
0.101337
0.121653
0.137133
0.148607
0.156734
0.162174
0.165438
0.166669
0.165572
0.161966
0.15748
0.157689
-0.0217273
0.0149997
0.0494669
0.0773157
0.0993226
0.116366
0.12928
0.138727
0.145378
0.149802
0.152219
0.152294
0.149578
0.145185
0.145465
-0.0503684
-0.0121417
0.0240667
0.0536725
0.077293
0.095829
0.110128
0.120848
0.128658
0.13418
0.137745
0.139053
0.137389
0.133113
0.132617
-0.0780487
-0.0385913
-0.000762152
0.0305174
0.0556558
0.0755988
0.0912172
0.10316
0.112078
0.118623
0.123259
0.125821
0.12546
0.121708
0.119067
-0.104557
-0.0642829
-0.0249036
0.00796125
0.0344962
0.0557486
0.0726138
0.0857243
0.0956981
0.103193
0.108792
0.112534
0.113649
0.111014
0.105182
-0.129671
-0.0892161
-0.0482234
-0.0138922
0.0138901
0.0363481
0.0543799
0.0685938
0.0795744
0.087957
0.094399
0.0991617
0.101732
0.100757
0.0950761
-0.153143
-0.113399
-0.0705587
-0.0349647
-0.00609633
0.0174663
0.0365755
0.0518176
0.0637521
0.0729729
0.0801566
0.0857602
0.0896076
0.0906471
0.0869544
-0.174987
-0.136466
-0.0917489
-0.0552153
-0.0253983
-0.000828231
0.0192575
0.0354396
0.0482678
0.0582868
0.0661461
0.0724394
0.0773205
0.0801557
0.0787978
-0.195255
-0.15793
-0.111734
-0.0746114
-0.0439414
-0.0184687
0.00247744
0.0195004
0.0331524
0.0439303
0.0524268
0.059301
0.0649845
0.0691895
0.0696163
-0.213862
-0.177458
-0.130597
-0.0930859
-0.0616402
-0.0353958
-0.0137193
0.00403825
0.0184342
0.0299233
0.0390281
0.0464076
0.0526986
0.0578873
0.0595797
-0.230661
-0.195009
-0.148386
-0.110518
-0.0784126
-0.0515632
-0.0292937
-0.0109109
0.00414007
0.0162793
0.0259581
0.0337885
0.0405318
0.0464182
0.049185
-0.245535
-0.21085
-0.16493
-0.126764
-0.0941997
-0.0669381
-0.0442112
-0.0253132
-0.00970398
0.00301067
0.0132175
0.0214538
0.0285406
0.0349395
0.0387115
-0.25842
-0.225121
-0.180123
-0.14172
-0.108979
-0.0814965
-0.058441
-0.0391389
-0.0230736
-0.00986818
0.000809842
0.00941095
0.0167704
0.0235732
0.0282574
-0.269288
-0.237795
-0.193795
-0.155497
-0.122763
-0.0952188
-0.0719571
-0.0523631
-0.035947
-0.0223406
-0.0112545
-0.00232965
0.00524799
0.0123819
0.0178751
-0.278146
-0.248798
-0.205934
-0.168143
-0.1356
-0.108091
-0.084741
-0.0649669
-0.0483055
-0.0343897
-0.0229605
-0.0137537
-0.00601665
0.00137847
0.00759933
-0.285042
-0.258102
-0.216615
-0.179656
-0.147543
-0.120122
-0.0967853
-0.0769384
-0.0601338
-0.0460006
-0.0342942
-0.0248445
-0.0170175
-0.00944528
-0.00255909
-0.290078
-0.265749
-0.225938
-0.190048
-0.158553
-0.131379
-0.1081
-0.0882742
-0.0714208
-0.0571616
-0.0452466
-0.0355859
-0.0277347
-0.0201031
-0.0125994
-0.293417
-0.271851
-0.234021
-0.199369
-0.168612
-0.141834
-0.118742
-0.0989896
-0.0821629
-0.0678636
-0.0558165
-0.0459697
-0.0381205
-0.0306131
-0.0225212
-0.295285
-0.276587
-0.241008
-0.207685
-0.177737
-0.151466
-0.128693
-0.109118
-0.0923795
-0.0781022
-0.066006
-0.056005
-0.0481307
-0.040964
-0.0323349
-0.295968
-0.280214
-0.247061
-0.215072
-0.185962
-0.160278
-0.137936
-0.11865
-0.102083
-0.0879005
-0.0758127
-0.0657213
-0.0577638
-0.0510776
-0.0420855
-0.295796
-0.28309
-0.252336
-0.221602
-0.193326
-0.168294
-0.146476
-0.127573
-0.111263
-0.0972481
-0.0852512
-0.0751555
-0.0670798
-0.0608045
-0.0518612
-0.295132
-0.285557
-0.256941
-0.227324
-0.199872
-0.175552
-0.154335
-0.135892
-0.119912
-0.106134
-0.0943084
-0.084297
-0.0761909
-0.070001
-0.0617542
-0.294402
-0.287739
-0.2609
-0.232256
-0.205637
-0.182096
-0.161548
-0.143625
-0.128033
-0.114555
-0.102966
-0.0931132
-0.0850441
-0.0788175
-0.0716828
-0.293965
-0.289626
-0.264154
-0.236387
-0.210651
-0.187969
-0.168149
-0.150791
-0.135637
-0.12251
-0.111214
-0.101576
-0.0936062
-0.0874146
-0.0812469
-0.293999
-0.291076
-0.266559
-0.239678
-0.214943
-0.193214
-0.174168
-0.157412
-0.142739
-0.13001
-0.11905
-0.109676
-0.10187
-0.0958084
-0.0902276
-0.294394
-0.291749
-0.2679
-0.242085
-0.21855
-0.197866
-0.179625
-0.163501
-0.149354
-0.13707
-0.126484
-0.117415
-0.109827
-0.103939
-0.0986245
-0.294637
-0.290978
-0.267891
-0.243586
-0.221521
-0.20195
-0.184526
-0.169069
-0.1555
-0.143708
-0.133532
-0.124802
-0.117464
-0.111755
-0.10655
-0.293768
-0.287822
-0.266284
-0.244235
-0.223911
-0.205465
-0.188866
-0.174129
-0.1612
-0.149947
-0.140212
-0.131843
-0.124773
-0.119249
-0.11413
-0.290529
-0.281347
-0.263035
-0.244194
-0.225746
-0.208379
-0.192641
-0.178705
-0.16648
-0.155806
-0.146538
-0.138551
-0.131761
-0.126442
-0.121455
-0.284364
-0.271303
-0.258639
-0.243712
-0.226973
-0.210642
-0.195868
-0.182835
-0.171373
-0.161306
-0.152527
-0.144941
-0.13845
-0.133367
-0.128574
-0.275841
-0.259032
-0.25439
-0.242915
-0.227472
-0.212249
-0.198609
-0.186576
-0.175907
-0.166464
-0.158192
-0.151033
-0.144865
-0.140051
-0.13551
-0.266158
-0.24776
-0.251196
-0.24157
-0.227177
-0.213304
-0.200973
-0.189983
-0.180108
-0.171298
-0.163555
-0.156849
-0.151031
-0.146519
-0.142272
-0.256754
-0.240675
-0.248736
-0.239332
-0.226216
-0.214016
-0.203077
-0.193097
-0.183995
-0.175827
-0.168635
-0.162411
-0.156973
-0.152789
-0.148874
-0.24861
-0.238538
-0.245663
-0.236137
-0.224951
-0.214639
-0.205002
-0.195938
-0.187587
-0.180078
-0.173458
-0.167741
-0.162708
-0.158884
-0.155339
-0.242135
-0.239604
-0.240661
-0.23241
-0.223884
-0.215341
-0.206756
-0.198511
-0.190912
-0.184083
-0.178049
-0.172853
-0.16825
-0.164821
-0.161706
-0.237432
-0.240315
-0.233672
-0.229099
-0.223427
-0.216092
-0.208285
-0.200831
-0.194011
-0.187877
-0.18243
-0.177762
-0.173608
-0.17061
-0.168002
-0.234015
-0.239498
-0.226368
-0.227541
-0.223522
-0.216661
-0.209549
-0.202947
-0.196935
-0.191494
-0.186619
-0.182474
-0.178788
-0.176253
-0.174243
-0.231523
-0.236678
-0.2227
-0.227751
-0.223424
-0.216847
-0.210599
-0.204928
-0.199727
-0.194956
-0.190627
-0.186994
-0.183789
-0.181747
-0.180428
-0.229574
-0.232391
-0.223724
-0.227509
-0.222397
-0.216694
-0.211553
-0.206834
-0.202413
-0.198279
-0.194459
-0.19132
-0.18861
-0.187086
-0.186546
-0.227821
-0.227988
-0.226449
-0.224179
-0.220449
-0.216483
-0.212487
-0.208678
-0.205011
-0.201475
-0.198117
-0.195443
-0.193244
-0.192264
-0.192575
-0.226149
-0.224883
-0.227365
-0.218466
-0.218632
-0.216362
-0.213362
-0.210468
-0.207542
-0.204552
-0.201593
-0.199348
-0.197679
-0.197277
-0.198498
-0.224628
-0.223166
-0.225867
-0.215531
-0.217903
-0.216139
-0.214127
-0.212248
-0.210043
-0.207514
-0.204868
-0.203004
-0.201891
-0.202113
-0.204306
-0.223262
-0.22223
-0.222724
-0.217291
-0.216658
-0.215592
-0.21495
-0.214124
-0.212548
-0.210353
-0.207911
-0.206372
-0.205851
-0.206769
-0.209993
-0.222121
-0.221496
-0.220104
-0.219999
-0.213592
-0.215035
-0.216014
-0.216183
-0.215096
-0.213049
-0.210669
-0.209392
-0.209515
-0.211231
-0.215573
-0.22121
-0.220875
-0.218977
-0.220102
-0.211856
-0.215168
-0.217362
-0.218487
-0.217705
-0.215552
-0.213065
-0.211995
-0.21284
-0.21549
-0.221052
-0.220473
-0.220283
-0.219007
-0.218797
-0.21452
-0.215319
-0.219017
-0.221173
-0.220384
-0.217771
-0.214992
-0.214097
-0.215772
-0.219537
-0.226454
-0.219844
-0.219847
-0.219268
-0.218443
-0.218376
-0.215408
-0.221362
-0.224298
-0.223058
-0.219556
-0.216309
-0.215613
-0.218264
-0.223347
-0.231782
-0.21929
-0.219552
-0.219513
-0.219188
-0.220038
-0.218004
-0.224411
-0.227758
-0.225563
-0.220688
-0.216848
-0.216444
-0.220256
-0.226905
-0.237058
-0.218831
-0.219368
-0.219764
-0.220258
-0.221034
-0.223372
-0.227392
-0.231398
-0.227582
-0.220868
-0.216424
-0.216504
-0.22169
-0.230167
-0.242295
-0.218544
-0.219339
-0.22007
-0.221193
-0.222416
-0.227881
-0.230638
-0.234981
-0.228495
-0.219757
-0.214862
-0.215687
-0.222506
-0.23312
-0.247511
-0.218565
-0.219577
-0.220547
-0.222047
-0.223958
-0.22915
-0.23453
-0.237036
-0.22749
-0.217042
-0.212019
-0.2139
-0.222638
-0.235735
-0.252754
-0.219051
-0.220244
-0.22142
-0.223161
-0.225324
-0.229449
-0.237525
-0.235646
-0.223883
-0.212519
-0.207742
-0.211046
-0.222097
-0.238034
-0.258059
-0.220123
-0.221461
-0.22289
-0.224868
-0.226926
-0.229817
-0.235588
-0.230873
-0.21743
-0.206057
-0.201959
-0.207111
-0.22092
-0.240098
-0.263519
-0.221773
-0.223222
-0.224967
-0.227254
-0.229213
-0.230601
-0.231158
-0.223942
-0.208382
-0.197819
-0.194681
-0.202373
-0.219341
-0.242061
-0.26926
-0.223845
-0.225326
-0.227405
-0.230049
-0.232033
-0.232001
-0.227479
-0.216034
-0.198945
-0.188386
-0.18645
-0.197434
-0.217725
-0.244314
-0.275435
-0.226071
-0.227461
-0.229737
-0.232737
-0.234745
-0.233774