/*--------------------------------*- C++ -*----------------------------------*\
  =========                 |
  \\      /  F ield         | OpenFOAM: The Open Source CFD Toolbox
   \\    /   O peration     | Website:  https://openfoam.org
    \\  /    A nd           | Version:  7
     \\/     M anipulation  |
\*---------------------------------------------------------------------------*/
FoamFile
{
    version     2.0;
    format      ascii;
    class       volScalarField;
    location    "5";
    object      p;
}
// * * * * * * * * * * * * * * * * * * * * * * * * * * * * * * * * * * * * * //

dimensions      [0 2 -2 0 0 0 0];

internalField   nonuniform List<scalar> 
18750
(
-0.322241
-0.327226
-0.32986
-0.332302
-0.334956
-0.338053
-0.341807
-0.346351
-0.351767
-0.358103
-0.365391
-0.373669
-0.382926
-0.392936
-0.404178
-0.322732
-0.327631
-0.330231
-0.332651
-0.335291
-0.338378
-0.342127
-0.346669
-0.352084
-0.358424
-0.365718
-0.374006
-0.38328
-0.393304
-0.404556
-0.3237
-0.328428
-0.330962
-0.333338
-0.335949
-0.339016
-0.342753
-0.347289
-0.352703
-0.359048
-0.366352
-0.374657
-0.383963
-0.394012
-0.405275
-0.325115
-0.329594
-0.332028
-0.33434
-0.336905
-0.339942
-0.343659
-0.348182
-0.353592
-0.359939
-0.367253
-0.375577
-0.384924
-0.395003
-0.406269
-0.326934
-0.331092
-0.333396
-0.335622
-0.338125
-0.34112
-0.344806
-0.349308
-0.354706
-0.361049
-0.368367
-0.376705
-0.386091
-0.3962
-0.407442
-0.329105
-0.332879
-0.335024
-0.337142
-0.339567
-0.342504
-0.346146
-0.350615
-0.355988
-0.362315
-0.369625
-0.377963
-0.387376
-0.397506
-0.40868
-0.331566
-0.334903
-0.336864
-0.338854
-0.341182
-0.344044
-0.347626
-0.352045
-0.357375
-0.363667
-0.370949
-0.379264
-0.388681
-0.398817
-0.409857
-0.334248
-0.33711
-0.338864
-0.340706
-0.342917
-0.345685
-0.349187
-0.353533
-0.358799
-0.365031
-0.372257
-0.380518
-0.389904
-0.400025
-0.410844
-0.337084
-0.339442
-0.340971
-0.342646
-0.34472
-0.347372
-0.350769
-0.355018
-0.36019
-0.366331
-0.373468
-0.381635
-0.390943
-0.401027
-0.411524
-0.340003
-0.341845
-0.343133
-0.344624
-0.34654
-0.349052
-0.352317
-0.356438
-0.361483
-0.367496
-0.374503
-0.38253
-0.391707
-0.401733
-0.411777
-0.342938
-0.344264
-0.345303
-0.346593
-0.348329
-0.350676
-0.353779
-0.357738
-0.362617
-0.368461
-0.375294
-0.383132
-0.392117
-0.402067
-0.411449
-0.345828
-0.346653
-0.347437
-0.348513
-0.350049
-0.352203
-0.355111
-0.35887
-0.363543
-0.369173
-0.375784
-0.383383
-0.392113
-0.401968
-0.410443
-0.348621
-0.34897
-0.349499
-0.35035
-0.351666
-0.3536
-0.356279
-0.359798
-0.364221
-0.369591
-0.375931
-0.383243
-0.391651
-0.40128
-0.409557
-0.351271
-0.351182
-0.351461
-0.352079
-0.353157
-0.354842
-0.357258
-0.360499
-0.364628
-0.36969
-0.37571
-0.382689
-0.390732
-0.400018
-0.407987
-0.353744
-0.353263
-0.353303
-0.353682
-0.354507
-0.355919
-0.358038
-0.360959
-0.364752
-0.369461
-0.375115
-0.381716
-0.389348
-0.398278
-0.405732
-0.356016
-0.355199
-0.355012
-0.355153
-0.35571
-0.356825
-0.358616
-0.361182
-0.364598
-0.368912
-0.374159
-0.380342
-0.387522
-0.396088
-0.402945
-0.358074
-0.356981
-0.356586
-0.356489
-0.35677
-0.357568
-0.359003
-0.361182
-0.364185
-0.368069
-0.372873
-0.378607
-0.3853
-0.39349
-0.399712
-0.359916
-0.35861
-0.358026
-0.357697
-0.357696
-0.358162
-0.359219
-0.360983
-0.363545
-0.36697
-0.371306
-0.376569
-0.38275
-0.390554
-0.3961
-0.36155
-0.360093
-0.359342
-0.358791
-0.358505
-0.358628
-0.359292
-0.360621
-0.362721
-0.365668
-0.369518
-0.374298
-0.379953
-0.387371
-0.392175
-0.362994
-0.361447
-0.360551
-0.359786
-0.359218
-0.358994
-0.359254
-0.360138
-0.361765
-0.364225
-0.367583
-0.37188
-0.377002
-0.384044
-0.388002
-0.364275
-0.362693
-0.361674
-0.360707
-0.359861
-0.35929
-0.359145
-0.359581
-0.360733
-0.362707
-0.36558
-0.369401
-0.373993
-0.380679
-0.383648
-0.365425
-0.363857
-0.362734
-0.361577
-0.360462
-0.35955
-0.359005
-0.358999
-0.359685
-0.361185
-0.363587
-0.366952
-0.371025
-0.377381
-0.379178
-0.366487
-0.364972
-0.36376
-0.362425
-0.361052
-0.359809
-0.358877
-0.358443
-0.358681
-0.359728
-0.361684
-0.364616
-0.368189
-0.374235
-0.374675
-0.367505
-0.366071
-0.364784
-0.363282
-0.361662
-0.360104
-0.358802
-0.357963
-0.357778
-0.358399
-0.359939
-0.362464
-0.365566
-0.371298
-0.37024
-0.36853
-0.367192
-0.365838
-0.364179
-0.362326
-0.36047
-0.358821
-0.357604
-0.357026
-0.357255
-0.358413
-0.360554
-0.363226
-0.368592
-0.366017
-0.369614
-0.368376
-0.366959
-0.36515
-0.363077
-0.360943
-0.358974
-0.35741
-0.356473
-0.356344
-0.357153
-0.358926
-0.361221
-0.366098
-0.362174
-0.370808
-0.369661
-0.368179
-0.366226
-0.363947
-0.361557
-0.359295
-0.357417
-0.356157
-0.355704
-0.356195
-0.357603
-0.359587
-0.363738
-0.358781
-0.372163
-0.371086
-0.369534
-0.367439
-0.364967
-0.362341
-0.359816
-0.357656
-0.356106
-0.35536
-0.355561
-0.356606
-0.358373
-0.361402
-0.355632
-0.373726
-0.372687
-0.371055
-0.36882
-0.366165
-0.363324
-0.360561
-0.358149
-0.356339
-0.355326
-0.35526
-0.35596
-0.357658
-0.359208
-0.35309
-0.375541
-0.374498
-0.372773
-0.370394
-0.367564
-0.364525
-0.361548
-0.358912
-0.356866
-0.355603
-0.355278
-0.355655
-0.357415
-0.35774
-0.355078
-0.377642
-0.376548
-0.374712
-0.372185
-0.369184
-0.365961
-0.36279
-0.359949
-0.357684
-0.356178
-0.355585
-0.355629
-0.357309
-0.357104
-0.367033
-0.380058
-0.378862
-0.376893
-0.37421
-0.37104
-0.367642
-0.364291
-0.361259
-0.358783
-0.35703
-0.356141
-0.355815
-0.357162
-0.356459
-0.366192
-0.382811
-0.38146
-0.379335
-0.376483
-0.373141
-0.369574
-0.366051
-0.362834
-0.360146
-0.35813
-0.356901
-0.356141
-0.356867
-0.355468
-0.362872
-0.385917
-0.384355
-0.38205
-0.379014
-0.375495
-0.371757
-0.368064
-0.364662
-0.361753
-0.359447
-0.357822
-0.356545
-0.35645
-0.35424
-0.359086
-0.389385
-0.387558
-0.385047
-0.381811
-0.378104
-0.374192
-0.370325
-0.36673
-0.363579
-0.360947
-0.358861
-0.356975
-0.355918
-0.352802
-0.355026
-0.39322
-0.391076
-0.388332
-0.384878
-0.380971
-0.376875
-0.372826
-0.369023
-0.365602
-0.362594
-0.359975
-0.357385
-0.355266
-0.35116
-0.350932
-0.397423
-0.394913
-0.391912
-0.38822
-0.384098
-0.379806
-0.37556
-0.371525
-0.367795
-0.364354
-0.361123
-0.357736
-0.354487
-0.349333
-0.346909
-0.401991
-0.399072
-0.395789
-0.39184
-0.387487
-0.382985
-0.37852
-0.374223
-0.370135
-0.366192
-0.362266
-0.357996
-0.353576
-0.347341
-0.342995
-0.406922
-0.403555
-0.399967
-0.395743
-0.391142
-0.38641
-0.381702
-0.377101
-0.372597
-0.368074
-0.363367
-0.358138
-0.352526
-0.345203
-0.339194
-0.412213
-0.408362
-0.40445
-0.399932
-0.395066
-0.390084
-0.3851
-0.380144
-0.375152
-0.369964
-0.364393
-0.358137
-0.35133
-0.342934
-0.335486
-0.417857
-0.413492
-0.409239
-0.404413
-0.399265
-0.394006
-0.388704
-0.383333
-0.377773
-0.371828
-0.36531
-0.357976
-0.349983
-0.340544
-0.331847
-0.42385
-0.418945
-0.414337
-0.409189
-0.403739
-0.398173
-0.392503
-0.386645
-0.380425
-0.37363
-0.366089
-0.357639
-0.348481
-0.338039
-0.328248
-0.430185
-0.424717
-0.419743
-0.414261
-0.40849
-0.402579
-0.396482
-0.390051
-0.383074
-0.375335
-0.366704
-0.357113
-0.346818
-0.335422
-0.324662
-0.436852
-0.430803
-0.425456
-0.419629
-0.413512
-0.407212
-0.400616
-0.393519
-0.385681
-0.376905
-0.36713
-0.356386
-0.344991
-0.33269
-0.321061
-0.44384
-0.437194
-0.431469
-0.425285
-0.418795
-0.412052
-0.404876
-0.39701
-0.388204
-0.378309
-0.367344
-0.35545
-0.342994
-0.329839
-0.317422
-0.451131
-0.443878
-0.437772
-0.431219
-0.424321
-0.417074
-0.409225
-0.400479
-0.390601
-0.379511
-0.367328
-0.354294
-0.340822
-0.326863
-0.313722
-0.458702
-0.450837
-0.444347
-0.437412
-0.430067
-0.422242
-0.413618
-0.403879
-0.392829
-0.38048
-0.367062
-0.35291
-0.338467
-0.323752
-0.30994
-0.466526
-0.458046
-0.451174
-0.443839
-0.435999
-0.427512
-0.418003
-0.407155
-0.394842
-0.381187
-0.366529
-0.351288
-0.335919
-0.320494
-0.306055
-0.474569
-0.465475
-0.458222
-0.450464
-0.442073
-0.432832
-0.422323
-0.410255
-0.396598
-0.381602
-0.365712
-0.349416
-0.333169
-0.317076
-0.302049
-0.482786
-0.473088
-0.465453
-0.457247
-0.44824
-0.438144
-0.426515
-0.413122
-0.398054
-0.381697
-0.364594
-0.347283
-0.330204
-0.313485
-0.297902
-0.491129
-0.480839
-0.472822
-0.464136
-0.454438
-0.443379
-0.430514
-0.415699
-0.399169
-0.381446
-0.363158
-0.344875
-0.32701
-0.309704
-0.293596
-0.49954
-0.488676
-0.480274
-0.471069
-0.4606
-0.448465
-0.434249
-0.417931
-0.399904
-0.380823
-0.361387
-0.342176
-0.323571
-0.305718
-0.289114
-0.507954
-0.496538
-0.487748
-0.477979
-0.466649
-0.453324
-0.437652
-0.419763
-0.40022
-0.379802
-0.359261
-0.339172
-0.319873
-0.301509
-0.284438
-0.516298
-0.504358
-0.495174
-0.484789
-0.472504
-0.457876
-0.440652
-0.421141
-0.40008
-0.378359
-0.356761
-0.335843
-0.315898
-0.297059
-0.27955
-0.524492
-0.51206
-0.502472
-0.491414
-0.478077
-0.462038
-0.443181
-0.422014
-0.399451
-0.376469
-0.353868
-0.332174
-0.311628
-0.292352
-0.274433
-0.53245
-0.519562
-0.509557
-0.497765
-0.483276
-0.465726
-0.44517
-0.422335
-0.398297
-0.374107
-0.350561
-0.328144
-0.307044
-0.287369
-0.269073
-0.540081
-0.526777
-0.516339
-0.503745
-0.488008
-0.468857
-0.446557
-0.422057
-0.396587
-0.371249
-0.34682
-0.323734
-0.30213
-0.282093
-0.263452
-0.547287
-0.533609
-0.52272
-0.509256
-0.492179
-0.471352
-0.447278
-0.421137
-0.39429
-0.367871
-0.342624
-0.318926
-0.296867
-0.276507
-0.257557
-0.553968
-0.539961
-0.528599
-0.514196
-0.495693
-0.473131
-0.447277
-0.419534
-0.391376
-0.363949
-0.337952
-0.313702
-0.291238
-0.270596
-0.251373
-0.560022
-0.545732
-0.533873
-0.518462
-0.49846
-0.474123
-0.446501
-0.417211
-0.387819
-0.359462
-0.332786
-0.308042
-0.285226
-0.264343
-0.244888
-0.565344
-0.550818
-0.538436
-0.521955
-0.50039
-0.474257
-0.444899
-0.414132
-0.383591
-0.354388
-0.327104
-0.301929
-0.278815
-0.257736
-0.238091
-0.569829
-0.555115
-0.542185
-0.524573
-0.5014
-0.47347
-0.442426
-0.410267
-0.37867
-0.348706
-0.32089
-0.295347
-0.271991
-0.25076
-0.230971
-0.573373
-0.55852
-0.545016
-0.526222
-0.50141
-0.471704
-0.439044
-0.405586
-0.373032
-0.342397
-0.314126
-0.28828
-0.264739
-0.243404
-0.223517
-0.575876
-0.56093
-0.546828
-0.526812
-0.500348
-0.468906
-0.434715
-0.400066
-0.366658
-0.335446
-0.306798
-0.280715
-0.257047
-0.235657
-0.215722
-0.577239
-0.562248
-0.547528
-0.526259
-0.498149
-0.465032
-0.42941
-0.393683
-0.359531
-0.327836
-0.298891
-0.272641
-0.248905
-0.227511
-0.207582
-0.577371
-0.56238
-0.547024
-0.524485
-0.494756
-0.460042
-0.423102
-0.38642
-0.351637
-0.319555
-0.290394
-0.264045
-0.240303
-0.218961
-0.199097
-0.576186
-0.561239
-0.545235
-0.521423
-0.490119
-0.453904
-0.415773
-0.378262
-0.342963
-0.310592
-0.281298
-0.254919
-0.231231
-0.210001
-0.190266
-0.573603
-0.558744
-0.542086
-0.517012
-0.484198
-0.446593
-0.407404
-0.369199
-0.333501
-0.300941
-0.271595
-0.245255
-0.22168
-0.200614
-0.181044
-0.569552
-0.554823
-0.537512
-0.511202
-0.476958
-0.438091
-0.397988
-0.359224
-0.323246
-0.290596
-0.261284
-0.235053
-0.211652
-0.190785
-0.171326
-0.563972
-0.549413
-0.531456
-0.503954
-0.468377
-0.428385
-0.387518
-0.348335
-0.312196
-0.279557
-0.250362
-0.224316
-0.201164
-0.180543
-0.161055
-0.556808
-0.54246
-0.523875
-0.495235
-0.45844
-0.417471
-0.375994
-0.336533
-0.300354
-0.267826
-0.238832
-0.213046
-0.190222
-0.169941
-0.150513
-0.54802
-0.533921
-0.514732
-0.485027
-0.447138
-0.405351
-0.363421
-0.323823
-0.287723
-0.255406
-0.226697
-0.201248
-0.178808
-0.158805
-0.139853
-0.537577
-0.523763
-0.504005
-0.473318
-0.434475
-0.392031
-0.34981
-0.310216
-0.274313
-0.242305
-0.213968
-0.188934
-0.166934
-0.147281
-0.128871
-0.525456
-0.511966
-0.49168
-0.460109
-0.420458
-0.377528
-0.335176
-0.295725
-0.260135
-0.228535
-0.20066
-0.176108
-0.154608
-0.135388
-0.117537
-0.51165
-0.498518
-0.477756
-0.445408
-0.405107
-0.361861
-0.319538
-0.280368
-0.245206
-0.214118
-0.186778
-0.162784
-0.141847
-0.123128
-0.105859
-0.496159
-0.483422
-0.462242
-0.429235
-0.388446
-0.345058
-0.302923
-0.264168
-0.229552
-0.199062
-0.172342
-0.148977
-0.128667
-0.110505
-0.093853
-0.478998
-0.466689
-0.445157
-0.411617
-0.370506
-0.32715
-0.285359
-0.247154
-0.213191
-0.183393
-0.157373
-0.134706
-0.115084
-0.0975313
-0.0815383
-0.46019
-0.448342
-0.426531
-0.392591
-0.351331
-0.308179
-0.266879
-0.229352
-0.19615
-0.167135
-0.141892
-0.119991
-0.101117
-0.0842217
-0.0689339
-0.439769
-0.428415
-0.406401
-0.3722
-0.330973
-0.288186
-0.24752
-0.210798
-0.17846
-0.150317
-0.125926
-0.104857
-0.0867855
-0.0705956
-0.0560604
-0.41778
-0.40695
-0.384817
-0.350505
-0.309479
-0.267203
-0.227335
-0.191531
-0.160156
-0.132967
-0.109502
-0.0893293
-0.0721136
-0.0566749
-0.0429406
-0.394276
-0.384002
-0.361848
-0.327596
-0.286848
-0.2453
-0.206361
-0.171591
-0.141275
-0.115122
-0.0926513
-0.073436
-0.0571267
-0.0424839
-0.0295996
-0.369314
-0.359638
-0.337572
-0.303557
-0.263126
-0.222518
-0.184652
-0.151026
-0.121858
-0.0968162
-0.0754074
-0.057208
-0.0418526
-0.0280498
-0.0160669
-0.342964
-0.333934
-0.312047
-0.278207
-0.238609
-0.198943
-0.162263
-0.129882
-0.101947
-0.0780893
-0.0578059
-0.0406782
-0.0263211
-0.0134034
-0.00238136
-0.315304
-0.306973
-0.285317
-0.25186
-0.21319
-0.174635
-0.139252
-0.108212
-0.0815879
-0.0589823
-0.0398838
-0.023881
-0.0105639
0.00142
0.0114089
-0.286412
-0.278849
-0.257417
-0.224634
-0.186959
-0.14966
-0.11568
-0.0860691
-0.0608294
-0.0395379
-0.0216804
-0.00685237
0.00538694
0.0163882
0.0252634
-0.25636
-0.249645
-0.22856
-0.196554
-0.160004
-0.124089
-0.0916118
-0.0635092
-0.0397212
-0.0198009
-0.00323657
0.01037
0.0215038
0.0314843
0.0391541
-0.225254
-0.21949
-0.198845
-0.167707
-0.132411
-0.0979942
-0.0671121
-0.0405912
-0.0183151
0.000182358
0.0154049
0.02775
0.0377706
0.0466967
0.0529838
-0.193371
-0.188366
-0.168345
-0.138191
-0.104268
-0.0714542
-0.0422493
-0.0173755
0.00333517
0.0203634
0.0342006
0.0452596
0.0541836
0.0619575
0.0664505
-0.160711
-0.156444
-0.137158
-0.108104
-0.0756655
-0.0445477
-0.0170936
0.00607525
0.0251737
0.0406916
0.053109
0.0628808
0.0707298
0.0770968
0.0791486
-0.127354
-0.123869
-0.105393
-0.0775469
-0.0466945
-0.0173562
0.00828291
0.0296969
0.0471425
0.0611151
0.0720903
0.0805884
0.0873278
0.0919084
0.09134
-0.0934256
-0.0907611
-0.0731608
-0.0466233
-0.0174485
0.0100377
0.0338067
0.0534237
0.0691822
0.0815813
0.0911023
0.0983238
0.103802
0.106207
0.105885
-0.0590543
-0.0572386
-0.0405783
-0.0154389
0.0119778
0.0375497
0.0594029
0.0771885
0.0912325
0.102037
0.110094
0.115999
0.120125
0.121046
0.121107
-0.0243666
-0.0234217
-0.00776207
0.0158997
0.0414889
0.0650951
0.0849959
0.100923
0.113232
0.122429
0.129011
0.133563
0.136329
0.136052
0.135849
0.0105098
0.0105668
0.0251705
0.0472853
0.070989
0.0925884
0.110509
0.12456
0.135121
0.142701
0.1478
0.150981
0.15242
0.151074
0.150297
0.0454464
0.0446033
0.0581016
0.0786105
0.100382
0.119944
0.135867
0.14803
0.156836
0.162796
0.166408
0.168212
0.16835
0.165966
0.164445
0.0803146
0.0785635
0.0909137
0.109768
0.129572
0.147077
0.160993
0.171266
0.178317
0.182658
0.184785
0.185214
0.184072
0.18065
0.178285
0.114986
0.112323
0.12349
0.140652
0.158464
0.173902
0.185811
0.194198
0.199501
0.202232
0.202879
0.201941
0.199535
0.195075
0.191801
0.149334
0.145759
0.155714
0.171157
0.186964
0.200336
0.210247
0.216759
0.220328
0.221462
0.220643
0.21835
0.214697
0.209198
0.204975
0.183231
0.178748
0.187471
0.201179
0.21498
0.226296
0.234225
0.238884
0.240739
0.240295
0.238028
0.234397
0.229513
0.222983
0.217784
0.216554
0.211171
0.21865
0.230616
0.24242
0.2517
0.257674
0.260507
0.260674
0.258679
0.254985
0.250038
0.243946
0.236395
0.230206
0.249181
0.242909
0.249139
0.259369
0.269195
0.276469
0.280522
0.281563
0.280076
0.27656
0.271469
0.265233
0.257958
0.249403
0.242218
0.280991
0.273846
0.278832
0.287341
0.295219
0.300526
0.3027
0.301991
0.29889
0.293889
0.287436
0.27994
0.271513
0.261976
0.253798
0.31187
0.303872
0.307624
0.314438
0.320407
0.323795
0.32414
0.32173
0.31706
0.310618
0.30284
0.294122
0.284577
0.274083
0.264921
0.341705
0.332876
0.335415
0.340568
0.344679
0.346204
0.344777
0.340721
0.334534
0.326698
0.31764
0.30774
0.297116
0.285696
0.275567
0.370387
0.360754
0.362107
0.365644
0.367955
0.367682
0.364549
0.358908
0.351262
0.342085
0.331796
0.320759
0.309098
0.296787
0.285714
0.397812
0.387406
0.387607
0.389582
0.390161
0.388162
0.383395
0.376238
0.367195
0.356736
0.345268
0.333145
0.320493
0.307328
0.295339
0.423882
0.412737
0.411827
0.412303
0.411225
0.407581
0.401257
0.392657
0.382287
0.370608
0.35802
0.344863
0.331271
0.317293
0.304424
0.448502
0.436655
0.434684
0.43373
0.43108
0.425878
0.418082
0.408119
0.396493
0.383662
0.370017
0.355882
0.341404
0.326658
0.312948
0.471584
0.459075
0.456097
0.453793
0.449662
0.442996
0.433818
0.422575
0.409773
0.395862
0.381224
0.366174
0.350865
0.335399
0.320892
0.493043
0.479917
0.475993
0.472425
0.466911
0.458881
0.448418
0.435984
0.422088
0.407172
0.391611
0.37571
0.35963
0.343493
0.328239
0.512805
0.499107
0.494305
0.489565
0.482773
0.473485
0.461835
0.448306
0.433401
0.41756
0.401149
0.384465
0.367675
0.350921
0.334973
0.530797
0.516577
0.510968
0.505156
0.497197
0.48676
0.474031
0.459502
0.443679
0.426996
0.409812
0.392414
0.374979
0.357662
0.341078
0.546955
0.532264
0.525927
0.519146
0.510136
0.498667
0.484967
0.469541
0.452894
0.435454
0.417574
0.399535
0.381522
0.363699
0.346541
0.561222
0.546114
0.539129
0.53149
0.521549
0.509168
0.49461
0.478392
0.461016
0.442908
0.424415
0.40581
0.387287
0.369017
0.351348
0.573546
0.558078
0.550529
0.542146
0.531401
0.51823
0.502931
0.486028
0.468023
0.449338
0.430315
0.411221
0.392257
0.373602
0.35549
0.583884
0.568112
0.56009
0.551081
0.539658
0.525825
0.509904
0.492427
0.473894
0.454725
0.435257
0.415754
0.39642
0.377441
0.358956
0.592199
0.576182
0.567778
0.558264
0.546297
0.53193
0.515508
0.497569
0.478612
0.459053
0.439227
0.419395
0.399764
0.380524
0.361738
0.598461
0.58226
0.573566
0.563672
0.551294
0.536525
0.519727
0.501439
0.482162
0.46231
0.442215
0.422134
0.40228
0.382844
0.363831
0.602648
0.586324
0.577437
0.567287
0.554634
0.539597
0.522546
0.504026
0.484535
0.464487
0.444212
0.423965
0.403961
0.384394
0.365229
0.604745
0.588359
0.579375
0.569097
0.556307
0.541135
0.523958
0.505321
0.485723
0.465577
0.445211
0.424882
0.404803
0.38517
0.365928
0.604745
0.588359
0.579375
0.569097
0.556307
0.541135
0.523958
0.505321
0.485723
0.465577
0.445211
0.424882
0.404803
0.38517
0.365928
0.602648
0.586324
0.577437
0.567287
0.554634
0.539597
0.522546
0.504026
0.484535
0.464487
0.444212
0.423965
0.403961
0.384394
0.365229
0.598461
0.58226
0.573566
0.563672
0.551294
0.536525
0.519727
0.501439
0.482162
0.46231
0.442215
0.422134
0.40228
0.382844
0.363831
0.592199
0.576182
0.567778
0.558264
0.546297
0.53193
0.515508
0.497569
0.478612
0.459053
0.439227
0.419395
0.399764
0.380524
0.361738
0.583884
0.568112
0.56009
0.551081
0.539658
0.525825
0.509904
0.492427
0.473894
0.454725
0.435257
0.415754
0.39642
0.377441
0.358956
0.573546
0.558078
0.550529
0.542146
0.531401
0.51823
0.502931
0.486028
0.468023
0.449338
0.430315
0.411221
0.392257
0.373602
0.35549
0.561222
0.546114
0.539129
0.53149
0.521549
0.509168
0.49461
0.478392
0.461016
0.442908
0.424415
0.40581
0.387287
0.369017
0.351348
0.546955
0.532264
0.525927
0.519146
0.510136
0.498667
0.484967
0.469541
0.452894
0.435454
0.417574
0.399535
0.381522
0.363699
0.346541
0.530797
0.516577
0.510968
0.505156
0.497197
0.48676
0.474031
0.459502
0.443679
0.426996
0.409812
0.392413
0.374979
0.357662
0.341078
0.512805
0.499107
0.494305
0.489565
0.482773
0.473485
0.461835
0.448306
0.433401
0.41756
0.401149
0.384465
0.367675
0.350921
0.334973
0.493043
0.479917
0.475993
0.472425
0.466911
0.458881
0.448417
0.435984
0.422088
0.407172
0.391611
0.37571
0.35963
0.343493
0.328239
0.471584
0.459075
0.456097
0.453793
0.449662
0.442996
0.433818
0.422575
0.409773
0.395862
0.381224
0.366174
0.350865
0.335399
0.320892
0.448502
0.436655
0.434684
0.43373
0.43108
0.425878
0.418082
0.408119
0.396493
0.383662
0.370017
0.355882
0.341404
0.326658
0.312948
0.423882
0.412737
0.411827
0.412303
0.411225
0.407581
0.401257
0.392657
0.382287
0.370608
0.35802
0.344863
0.331271
0.317293
0.304424
0.397812
0.387406
0.387607
0.389582
0.390161
0.388162
0.383395
0.376238
0.367195
0.356736
0.345268
0.333144
0.320493
0.307328
0.295339
0.370387
0.360754
0.362107
0.365644
0.367955
0.367682
0.364549
0.358908
0.351262
0.342085
0.331796
0.320759
0.309098
0.296787
0.285714
0.341705
0.332876
0.335415
0.340568
0.344679
0.346204
0.344777
0.340721
0.334534
0.326698
0.31764
0.30774
0.297116
0.285696
0.275567
0.31187
0.303871
0.307624
0.314438
0.320407
0.323795
0.32414
0.32173
0.31706
0.310617
0.30284
0.294122
0.284577
0.274083
0.264921
0.280991
0.273846
0.278832
0.287341
0.295219
0.300526
0.3027
0.301991
0.29889
0.293889
0.287435
0.27994
0.271513
0.261976
0.253798
0.249181
0.242909
0.249139
0.259369
0.269195
0.276469
0.280522
0.281563
0.280076
0.27656
0.271469
0.265233
0.257958
0.249403
0.242218
0.216554
0.211171
0.21865
0.230616
0.24242
0.2517
0.257674
0.260507
0.260674
0.258678
0.254985
0.250038
0.243946
0.236395
0.230206
0.183231
0.178748
0.187471
0.201179
0.21498
0.226296
0.234225
0.238884
0.240739
0.240295
0.238028
0.234397
0.229513
0.222983
0.217784
0.149334
0.145759
0.155714
0.171157
0.186964
0.200336
0.210246
0.216759
0.220328
0.221462
0.220643
0.21835
0.214697
0.209198
0.204975
0.114986
0.112323
0.12349
0.140652
0.158464
0.173902
0.185811
0.194198
0.199501
0.202232
0.202879
0.201941
0.199535
0.195075
0.191801
0.0803146
0.0785634
0.0909136
0.109768
0.129572
0.147077
0.160993
0.171265
0.178316
0.182658
0.184784
0.185213
0.184071
0.18065
0.178285
0.0454463
0.0446032
0.0581016
0.0786104
0.100382
0.119944
0.135867
0.14803
0.156836
0.162796
0.166408
0.168212
0.16835
0.165966
0.164445
0.0105097
0.0105667
0.0251704
0.0472852
0.0709889
0.0925883
0.110509
0.12456
0.135121
0.142701
0.1478
0.150981
0.15242
0.151074
0.150297
-0.0243667
-0.0234219
-0.00776219
0.0158996
0.0414888
0.065095
0.0849958
0.100923
0.113232
0.122429
0.129011
0.133563
0.136329
0.136052
0.135849
-0.0590544
-0.0572387
-0.0405785
-0.015439
0.0119776
0.0375496
0.0594028
0.0771883
0.0912323
0.102037
0.110094
0.115999
0.120125
0.121045
0.121107
-0.0934257
-0.0907612
-0.0731609
-0.0466235
-0.0174487
0.0100375
0.0338065
0.0534235
0.0691821
0.0815811
0.0911021
0.0983236
0.103801
0.106207
0.105885
-0.127354
-0.123869
-0.105393
-0.077547
-0.0466947
-0.0173563
0.00828275
0.0296968
0.0471423
0.0611149
0.0720901
0.0805883
0.0873277
0.0919083
0.0913399
-0.160711
-0.156444
-0.137159
-0.108104
-0.0756657
-0.0445479
-0.0170938
0.00607509
0.0251735
0.0406914
0.0531088
0.0628806
0.0707296
0.0770967
0.0791484
-0.193371
-0.188366
-0.168346
-0.138191
-0.104268
-0.0714544
-0.0422495
-0.0173757
0.00333499
0.0203632
0.0342004
0.0452595
0.0541834
0.0619574
0.0664504
-0.225254
-0.21949
-0.198845
-0.167707
-0.132411
-0.0979944
-0.0671123
-0.0405914
-0.0183152
0.000182172
0.0154047
0.0277498
0.0377704
0.0466966
0.0529836
-0.25636
-0.249645
-0.22856
-0.196554
-0.160004
-0.124089
-0.091612
-0.0635094
-0.0397214
-0.0198011
-0.00323676
0.0103698
0.0215036
0.0314841
0.039154
-0.286412
-0.278849
-0.257418
-0.224634
-0.186959
-0.14966
-0.11568
-0.0860693
-0.0608296
-0.0395381
-0.0216806
-0.00685257
0.00538675
0.016388
0.0252632
-0.315304
-0.306973
-0.285317
-0.25186
-0.21319
-0.174635
-0.139252
-0.108212
-0.0815881
-0.0589825
-0.039884
-0.0238812
-0.0105641
0.0014198
0.0114087
-0.342965
-0.333934
-0.312047
-0.278207
-0.238609
-0.198943
-0.162263
-0.129883
-0.101947
-0.0780896
-0.0578061
-0.0406784
-0.0263213
-0.0134036
-0.00238156
-0.369314
-0.359638
-0.337572
-0.303558
-0.263127
-0.222518
-0.184653
-0.151026
-0.121858
-0.0968164
-0.0754077
-0.0572083
-0.0418528
-0.02805
-0.0160671
-0.394276
-0.384002
-0.361848
-0.327597
-0.286848
-0.2453
-0.206362
-0.171592
-0.141275
-0.115122
-0.0926515
-0.0734362
-0.0571269
-0.0424841
-0.0295998
-0.417781
-0.40695
-0.384818
-0.350505
-0.309479
-0.267203
-0.227335
-0.191531
-0.160157
-0.132968
-0.109502
-0.0893295
-0.0721138
-0.0566751
-0.0429408
-0.43977
-0.428415
-0.406401
-0.372201
-0.330973
-0.288187
-0.247521
-0.210799
-0.178461
-0.150317
-0.125926
-0.104858
-0.0867858
-0.0705958
-0.0560606
-0.46019
-0.448343
-0.426531
-0.392591
-0.351332
-0.308179
-0.26688
-0.229353
-0.19615
-0.167136
-0.141893
-0.119992
-0.101117
-0.084222
-0.0689341
-0.478999
-0.466689
-0.445158
-0.411618
-0.370507
-0.32715
-0.285359
-0.247154
-0.213191
-0.183394
-0.157373
-0.134706
-0.115085
-0.0975315
-0.0815385
-0.49616
-0.483422
-0.462242
-0.429235
-0.388446
-0.345058
-0.302923
-0.264169
-0.229552
-0.199063
-0.172343
-0.148977
-0.128668
-0.110505
-0.0938532
-0.51165
-0.498519
-0.477757
-0.445408
-0.405108
-0.361862
-0.319539
-0.280368
-0.245207
-0.214118
-0.186778
-0.162784
-0.141847
-0.123128
-0.105859
-0.525457
-0.511966
-0.491681
-0.460109
-0.420459
-0.377528
-0.335176
-0.295725
-0.260136
-0.228535
-0.20066
-0.176108
-0.154608
-0.135388
-0.117538
-0.537577
-0.523764
-0.504006
-0.473319
-0.434475
-0.392032
-0.34981
-0.310216
-0.274314
-0.242305
-0.213969
-0.188934
-0.166934
-0.147282
-0.128872
-0.548021
-0.533921
-0.514733
-0.485027
-0.447139
-0.405351
-0.363421
-0.323823
-0.287724
-0.255406
-0.226698
-0.201249
-0.178809
-0.158805
-0.139854
-0.556809
-0.542461
-0.523875
-0.495236
-0.45844
-0.417472
-0.375994
-0.336533
-0.300354
-0.267826
-0.238832
-0.213046
-0.190223
-0.169941
-0.150514
-0.563972
-0.549414
-0.531457
-0.503954
-0.468378
-0.428386
-0.387518
-0.348335
-0.312197
-0.279558
-0.250362
-0.224316
-0.201164
-0.180543
-0.161055
-0.569553
-0.554824
-0.537512
-0.511203
-0.476959
-0.438092
-0.397988
-0.359225
-0.323246
-0.290597
-0.261284
-0.235054
-0.211652
-0.190785
-0.171327
-0.573604
-0.558744
-0.542086
-0.517013
-0.484198
-0.446594
-0.407405
-0.3692
-0.333501
-0.300941
-0.271596
-0.245256
-0.22168
-0.200614
-0.181044
-0.576186
-0.561239
-0.545235
-0.521423
-0.49012
-0.453905
-0.415773
-0.378263
-0.342963
-0.310592
-0.281298
-0.254919
-0.231231
-0.210002
-0.190266
-0.577372
-0.562381
-0.547025
-0.524486
-0.494757
-0.460042
-0.423103
-0.38642
-0.351637
-0.319555
-0.290395
-0.264046
-0.240304
-0.218962
-0.199098
-0.57724
-0.562248
-0.547528
-0.52626
-0.49815
-0.465032
-0.42941
-0.393683
-0.359532
-0.327836
-0.298892
-0.272641
-0.248906
-0.227511
-0.207582
-0.575876
-0.560931
-0.546829
-0.526813
-0.500348
-0.468907
-0.434715
-0.400066
-0.366659
-0.335446
-0.306798
-0.280716
-0.257047
-0.235657
-0.215723
-0.573374
-0.558521
-0.545017
-0.526223
-0.50141
-0.471704
-0.439044
-0.405587
-0.373032
-0.342398
-0.314127
-0.28828
-0.264739
-0.243404
-0.223518
-0.569829
-0.555116
-0.542186
-0.524574
-0.5014
-0.473471
-0.442427
-0.410267
-0.37867
-0.348706
-0.320891
-0.295347
-0.271991
-0.25076
-0.230971
-0.565345
-0.550819
-0.538437
-0.521955
-0.500391
-0.474258
-0.444899
-0.414133
-0.383592
-0.354388
-0.327105
-0.301929
-0.278816
-0.257736
-0.238091
-0.560023
-0.545733
-0.533874
-0.518463
-0.498461
-0.474124
-0.446501
-0.417211
-0.387819
-0.359463
-0.332786
-0.308042
-0.285226
-0.264344
-0.244888
-0.553969
-0.539962
-0.5286
-0.514196
-0.495694
-0.473132
-0.447278
-0.419535
-0.391377
-0.36395
-0.337953
-0.313702
-0.291238
-0.270596
-0.251373
-0.547288
-0.53361
-0.522721
-0.509257
-0.49218
-0.471352
-0.447279
-0.421138
-0.39429
-0.367871
-0.342624
-0.318927
-0.296868
-0.276507
-0.257557
-0.540081
-0.526777
-0.51634
-0.503746
-0.488009
-0.468858
-0.446557
-0.422058
-0.396588
-0.371249
-0.346821
-0.323735
-0.302131
-0.282093
-0.263452
-0.532451
-0.519563
-0.509558
-0.497766
-0.483277
-0.465726
-0.445171
-0.422336
-0.398298
-0.374108
-0.350562
-0.328144
-0.307045
-0.287369
-0.269073
-0.524493
-0.512061
-0.502473
-0.491415
-0.478078
-0.462038
-0.443182
-0.422015
-0.399451
-0.37647
-0.353869
-0.332174
-0.311628
-0.292352
-0.274434
-0.516299
-0.504359
-0.495175
-0.48479
-0.472505
-0.457877
-0.440653
-0.421141
-0.400081
-0.37836
-0.356762
-0.335844
-0.315898
-0.29706
-0.27955
-0.507955
-0.496539
-0.487749
-0.47798
-0.46665
-0.453325
-0.437653
-0.419763
-0.40022
-0.379803
-0.359261
-0.339172
-0.319874
-0.301509
-0.284438
-0.499541
-0.488676
-0.480275
-0.47107
-0.460601
-0.448466
-0.43425
-0.417932
-0.399904
-0.380823
-0.361387
-0.342177
-0.323572
-0.305718
-0.289114
-0.49113
-0.48084
-0.472823
-0.464137
-0.454439
-0.44338
-0.430514
-0.4157
-0.39917
-0.381446
-0.363159
-0.344875
-0.32701
-0.309705
-0.293597
-0.482787
-0.473089
-0.465454
-0.457248
-0.448241
-0.438145
-0.426516
-0.413123
-0.398054
-0.381697
-0.364595
-0.347284
-0.330204
-0.313485
-0.297902
-0.47457
-0.465476
-0.458223
-0.450465
-0.442074
-0.432833
-0.422324
-0.410256
-0.396598
-0.381602
-0.365713
-0.349417
-0.333169
-0.317077
-0.302049
-0.466527
-0.458047
-0.451175
-0.443839
-0.436
-0.427513
-0.418004
-0.407156
-0.394842
-0.381188
-0.366529
-0.351289
-0.33592
-0.320494
-0.306056
-0.458703
-0.450837
-0.444348
-0.437413
-0.430068
-0.422243
-0.413618
-0.403879
-0.392829
-0.380481
-0.367062
-0.352911
-0.338467
-0.323752
-0.30994
-0.451131
-0.443879
-0.437772
-0.43122
-0.424322
-0.417075
-0.409226
-0.40048
-0.390602
-0.379512
-0.367328
-0.354295
-0.340823
-0.326864
-0.313723
-0.443841
-0.437195
-0.43147
-0.425286
-0.418795
-0.412053
-0.404877
-0.397011
-0.388205
-0.378309
-0.367345
-0.355451
-0.342995
-0.32984
-0.317423
-0.436853
-0.430804
-0.425457
-0.41963
-0.413512
-0.407213
-0.400617
-0.39352
-0.385682
-0.376906
-0.36713
-0.356387
-0.344992
-0.33269
-0.321062
-0.430186
-0.424718
-0.419744
-0.414262
-0.408491
-0.40258
-0.396483
-0.390052
-0.383075
-0.375335
-0.366705
-0.357114
-0.346819
-0.335422
-0.324662
-0.423851
-0.418946
-0.414338
-0.40919
-0.40374
-0.398174
-0.392504
-0.386645
-0.380426
-0.373631
-0.36609
-0.35764
-0.348481
-0.33804
-0.328249
-0.417858
-0.413493
-0.40924
-0.404414
-0.399266
-0.394007
-0.388705
-0.383334
-0.377773
-0.371829
-0.365311
-0.357977
-0.349984
-0.340544
-0.331848
-0.412213
-0.408362
-0.404451
-0.399933
-0.395067
-0.390085
-0.3851
-0.380145
-0.375153
-0.369965
-0.364393
-0.358138
-0.351331
-0.342934
-0.335487
-0.406923
-0.403556
-0.399968
-0.395743
-0.391142
-0.386411
-0.381703
-0.377102
-0.372598
-0.368074
-0.363368
-0.358138
-0.352527
-0.345203
-0.339195