/*--------------------------------*- C++ -*----------------------------------*\
  =========                 |
  \\      /  F ield         | OpenFOAM: The Open Source CFD Toolbox
   \\    /   O peration     | Website:  https://openfoam.org
    \\  /    A nd           | Version:  7
     \\/     M anipulation  |
\*---------------------------------------------------------------------------*/
FoamFile
{
    version     2.0;
    format      ascii;
    class       surfaceScalarField;
    location    "5";
    object      phi;
}
// * * * * * * * * * * * * * * * * * * * * * * * * * * * * * * * * * * * * * //

dimensions      [0 3 -1 0 0 0 0];

internalField   nonuniform List<scalar> 
37105
(
-8.38797e-07
8.38805e-07
-8.67742e-12
-2.9614e-06
2.12264e-06
-4.05288e-11
-6.1575e-06
3.19619e-06
-8.53457e-11
-1.02673e-05
4.10999e-06
-1.39108e-10
-1.51756e-05
4.90848e-06
-1.98996e-10
-2.08081e-05
5.63269e-06
-2.63877e-10
-2.71267e-05
6.319e-06
-3.33908e-10
-3.41251e-05
6.99881e-06
-4.09842e-10
-4.18222e-05
7.69761e-06
-4.92441e-10
-5.02561e-05
8.43445e-06
-5.82089e-10
-5.94779e-05
9.22245e-06
-6.78445e-10
-6.95475e-05
1.00704e-05
-7.80607e-10
-8.05295e-05
1.09829e-05
-8.87038e-10
-9.24834e-05
1.19548e-05
-9.95606e-10
1.30027e-05
-1.10389e-09
-0.000105485
-8.21931e-07
1.66074e-06
-2.90636e-06
4.20707e-06
-6.04942e-06
6.33924e-06
-1.00951e-05
8.15567e-06
-1.49296e-05
9.74298e-06
-2.04782e-05
1.11813e-05
-2.6701e-05
1.25418e-05
-3.35884e-05
1.38862e-05
-4.1155e-05
1.52643e-05
-4.9434e-05
1.67134e-05
-5.84704e-05
1.82589e-05
-6.83178e-05
1.99178e-05
-7.90333e-05
2.16984e-05
-9.06683e-05
2.35898e-05
2.56212e-05
-0.000103287
-7.88781e-07
2.44952e-06
-2.79799e-06
6.21628e-06
-5.83633e-06
9.37758e-06
-9.75516e-06
1.20745e-05
-1.44436e-05
1.44315e-05
-1.98263e-05
1.6564e-05
-2.58595e-05
1.8575e-05
-3.25273e-05
2.0554e-05
-3.98362e-05
2.25732e-05
-4.78094e-05
2.46865e-05
-5.64807e-05
2.69303e-05
-6.58906e-05
2.93276e-05
-7.60822e-05
3.189e-05
-8.70915e-05
3.45991e-05
3.74895e-05
-9.89597e-05
-7.40485e-07
3.19e-06
-2.63966e-06
8.11545e-06
-5.52431e-06
1.22622e-05
-9.25651e-06
1.58067e-05
-1.37298e-05
1.89048e-05
-1.88678e-05
2.1702e-05
-2.46216e-05
2.43287e-05
-3.09662e-05
2.68986e-05
-3.78964e-05
2.95034e-05
-4.54212e-05
3.22114e-05
-5.35582e-05
3.50672e-05
-6.2329e-05
3.80985e-05
-7.17571e-05
4.13181e-05
-8.18571e-05
4.4699e-05
4.8271e-05
-9.26386e-05
-6.78685e-07
3.86869e-06
-2.43624e-06
9.87301e-06
-5.12222e-06
1.49482e-05
-8.61232e-06
1.92968e-05
-1.28059e-05
2.30983e-05
-1.76255e-05
2.65216e-05
-2.30158e-05
2.9719e-05
-2.89408e-05
3.28235e-05
-3.53805e-05
3.59431e-05
-4.2326e-05
3.91569e-05
-4.97745e-05
4.25157e-05
-5.77244e-05
4.60484e-05
-6.61746e-05
4.97683e-05
-7.51143e-05
5.36387e-05
5.76717e-05
-8.45151e-05
-6.05456e-07
4.47414e-06
-2.19397e-06
1.14615e-05
-4.64145e-06
1.73957e-05
-7.83955e-06
2.24949e-05
-1.16947e-05
2.69535e-05
-1.61288e-05
3.09557e-05
-2.10791e-05
3.46693e-05
-2.64972e-05
3.82416e-05
-3.2346e-05
4.1792e-05
-3.85962e-05
4.54071e-05
-4.52211e-05
4.91406e-05
-5.21927e-05
5.302e-05
-5.94816e-05
5.70572e-05
-6.705e-05
6.12072e-05
6.54493e-05
-7.48275e-05
-5.23222e-07
4.99737e-06
-1.9202e-06
1.28585e-05
-4.09551e-06
1.9571e-05
-6.95854e-06
2.53579e-05
-1.04238e-05
3.04187e-05
-1.4413e-05
3.49449e-05
-1.8856e-05
3.91123e-05
-2.36907e-05
4.30764e-05
-2.8862e-05
4.69632e-05
-3.43178e-05
5.0863e-05
-4.00061e-05
5.48288e-05
-4.58698e-05
5.88837e-05
-5.18495e-05
6.30369e-05
-5.78807e-05
6.72384e-05
7.14174e-05
-6.38489e-05
-4.34644e-07
5.43201e-06
-1.6231e-06
1.4047e-05
-3.49964e-06
2.14475e-05
-5.99236e-06
2.78507e-05
-9.02481e-06
3.34512e-05
-1.25189e-05
3.84391e-05
-1.63974e-05
4.29908e-05
-2.05847e-05
4.72636e-05
-2.50066e-05
5.13851e-05
-2.95881e-05
5.54445e-05
-3.42505e-05
5.94912e-05
-3.89072e-05
6.35405e-05
-4.34679e-05
6.75975e-05
-4.78433e-05
7.16139e-05
7.54487e-05
-5.18747e-05
-3.42519e-07
5.77453e-06
-1.3114e-06
1.50158e-05
-2.87029e-06
2.30064e-05
-4.96618e-06
2.99466e-05
-7.53219e-06
3.60172e-05
-1.04913e-05
4.13982e-05
-1.37596e-05
4.6259e-05
-1.72485e-05
5.07526e-05
-2.08655e-05
5.50021e-05
-2.45127e-05
5.90917e-05
-2.80849e-05
6.30635e-05
-3.14669e-05
6.69224e-05
-3.45374e-05
7.0668e-05
-3.71867e-05
7.42632e-05
7.74752e-05
-3.92131e-05
-2.49664e-07
6.02419e-06
-9.94071e-07
1.57602e-05
-2.22461e-06
2.4237e-05
-3.90655e-06
3.16285e-05
-5.98274e-06
3.80934e-05
-8.37786e-06
4.37933e-05
-1.10026e-05
4.88837e-05
-1.37564e-05
5.35064e-05
-1.65297e-05
5.77753e-05
-1.92028e-05
6.17649e-05
-2.16459e-05
6.55065e-05
-2.37164e-05
6.89929e-05
-2.5264e-05
7.22156e-05
-2.61646e-05
7.51638e-05
7.74882e-05
-2.61777e-05
-1.58812e-07
6.183e-06
-6.79977e-07
1.62814e-05
-1.57985e-06
2.51368e-05
-2.84054e-06
3.28892e-05
-4.41437e-06
3.96672e-05
-6.22841e-06
4.56073e-05
-8.18905e-06
5.08444e-05
-1.01857e-05
5.55031e-05
-1.20934e-05
5.96829e-05
-1.37731e-05
6.34446e-05
-1.50722e-05
6.68057e-05
-1.5824e-05
6.97446e-05
-1.58508e-05
7.22425e-05
-1.5026e-05
7.4339e-05
7.5555e-05
-1.30929e-05
-7.25279e-08
6.25553e-06
-3.77587e-07
1.65865e-05
-9.52778e-07
2.5712e-05
-1.7949e-06
3.37313e-05
-2.86504e-06
4.07374e-05
-4.09307e-06
4.68353e-05
-5.38255e-06
5.21338e-05
-6.61478e-06
5.67354e-05
-7.65187e-06
6.072e-05
-8.3383e-06
6.4131e-05
-8.50182e-06
6.69692e-05
-7.95463e-06
6.91975e-05
-6.49043e-06
7.07783e-05
-3.93109e-06
7.17797e-05
7.22088e-05
-5.8484e-07
7.03905e-09
6.24849e-06
-9.46675e-08
1.66882e-05
-3.5917e-07
2.59765e-05
-7.95239e-07
3.41674e-05
-1.37154e-06
4.13137e-05
-2.02101e-06
4.74848e-05
-2.6457e-06
5.27585e-05
-3.121e-06
5.72107e-05
-3.29911e-06
6.08981e-05
-3.01118e-06
6.38431e-05
-2.06864e-06
6.60267e-05
-2.65257e-07
6.73941e-05
2.62012e-06
6.78929e-05
6.80019e-06
6.75996e-05
6.66572e-05
1.23517e-05
7.78179e-08
6.17068e-06
1.61907e-07
1.66041e-05
1.86764e-07
2.59517e-05
1.34927e-07
3.42192e-05
3.17156e-08
4.14169e-05
-5.88243e-08
4.75754e-05
-3.83954e-08
5.27381e-05
2.21279e-07
5.6951e-05
8.74841e-07
6.02446e-05
2.10078e-06
6.26172e-05
4.10004e-06
6.40274e-05
7.09491e-06
6.43992e-05
1.13287e-05
6.36591e-05
1.70118e-05
6.19165e-05
5.93567e-05
2.43123e-05
1.38266e-07
6.03241e-06
3.86471e-07
1.63559e-05
6.7284e-07
2.56653e-05
9.74857e-07
3.39172e-05
1.31377e-06
4.1078e-05
1.7511e-06
4.7138e-05
2.38439e-06
5.21048e-05
3.34347e-06
5.59919e-05
4.78681e-06
5.88012e-05
6.89881e-06
6.05052e-05
9.88859e-06
6.10376e-05
1.399e-05
6.02978e-05
1.94645e-05
5.81846e-05
2.65521e-05
5.48289e-05
5.04729e-05
3.54359e-05
1.87329e-07
5.84508e-06
5.74656e-07
1.59685e-05
1.08937e-06
2.51506e-05
1.70762e-06
3.3299e-05
2.44876e-06
4.03368e-05
3.37241e-06
4.62144e-05
4.57482e-06
5.09024e-05
6.18554e-06
5.43812e-05
8.36406e-06
5.66227e-05
1.12972e-05
5.7572e-05
1.51983e-05
5.71366e-05
2.03084e-05
5.51877e-05
2.69053e-05
5.15876e-05
3.52622e-05
4.6472e-05
4.01324e-05
4.56028e-05
2.24308e-07
5.62077e-06
7.23544e-07
1.54693e-05
1.42945e-06
2.44447e-05
2.32053e-06
3.24079e-05
3.41661e-06
3.92407e-05
4.7764e-06
4.48546e-05
6.49461e-06
4.91842e-05
8.69917e-06
5.21766e-05
1.15484e-05
5.37735e-05
1.52285e-05
5.38918e-05
1.99538e-05
5.24113e-05
2.59693e-05
4.91722e-05
3.35664e-05
4.39905e-05
4.30563e-05
3.69822e-05
2.84443e-05
5.47443e-05
2.48965e-07
5.37181e-06
8.31734e-07
1.48865e-05
1.68922e-06
2.35872e-05
2.80587e-06
3.12912e-05
4.20434e-06
3.78423e-05
5.94373e-06
4.31152e-05
8.11742e-06
4.70105e-05
1.08511e-05
4.9443e-05
1.43004e-05
5.03242e-05
1.86494e-05
4.95428e-05
2.4111e-05
4.69498e-05
3.09323e-05
4.23509e-05
3.94169e-05
3.55058e-05
4.9917e-05
2.64821e-05
1.54896e-05
6.28717e-05
2.615e-07
5.11031e-06
8.99387e-07
1.42487e-05
1.8681e-06
2.26185e-05
3.16128e-06
2.99981e-05
4.80685e-06
3.61967e-05
6.86584e-06
4.10562e-05
9.4311e-06
4.44452e-05
1.26262e-05
4.62479e-05
1.66041e-05
4.63462e-05
2.15463e-05
4.46007e-05
2.76644e-05
4.08317e-05
3.52078e-05
3.48074e-05
4.44923e-05
2.62214e-05
5.59129e-05
1.50615e-05
1.31228e-06
7.00902e-05
2.62541e-07
4.84777e-06
9.28219e-07
1.3583e-05
1.96878e-06
2.15779e-05
3.39005e-06
2.85768e-05
5.22757e-06
3.43592e-05
7.54613e-06
3.87376e-05
1.04395e-05
4.15518e-05
1.40306e-05
4.26568e-05
1.84708e-05
4.1906e-05
2.3941e-05
3.91305e-05
3.06541e-05
3.41186e-05
3.88652e-05
2.65963e-05
4.89034e-05
1.61832e-05
6.12086e-05
2.75633e-06
-1.40862e-05
7.66071e-05
2.53125e-07
4.59464e-06
9.21456e-07
1.29146e-05
1.99727e-06
2.05021e-05
3.5012e-06
2.70729e-05
5.47873e-06
3.23816e-05
8.00064e-06
3.62157e-05
1.11639e-05
3.83885e-05
1.50932e-05
3.87276e-05
1.99418e-05
3.70574e-05
2.58941e-05
3.31782e-05
3.317e-05
2.68428e-05
4.20366e-05
1.77297e-05
5.28387e-05
5.3811e-06
6.60648e-05
-1.04698e-05
-3.07456e-05
8.27243e-05
2.34668e-07
4.35997e-06
8.83751e-07
1.22656e-05
1.96269e-06
1.94232e-05
3.50926e-06
2.55263e-05
5.58127e-06
3.03096e-05
8.25809e-06
3.35389e-05
1.16431e-05
3.50035e-05
1.58666e-05
3.45041e-05
2.10892e-05
3.18348e-05
2.75055e-05
2.67618e-05
3.53507e-05
1.89976e-05
4.49131e-05
8.16726e-06
5.65546e-05
-6.26039e-06
7.08194e-05
-2.47346e-05
-4.87358e-05
8.88096e-05
2.08935e-07
4.15104e-06
8.2104e-07
1.16535e-05
1.87703e-06
1.83672e-05
3.43391e-06
2.39694e-05
5.56426e-06
2.81793e-05
8.35921e-06
3.07439e-05
1.19326e-05
3.14301e-05
1.6426e-05
3.00107e-05
2.20142e-05
2.62466e-05
2.89111e-05
1.98649e-05
3.73773e-05
1.05314e-05
4.77323e-05
-2.18775e-06
6.03531e-05
-1.88812e-05
7.58499e-05
-4.02315e-05
-6.81301e-05
9.52443e-05
1.77984e-07
3.97306e-06
7.40345e-07
1.10911e-05
1.75469e-06
1.73529e-05
3.29917e-06
2.24249e-05
5.46378e-06
2.60147e-05
8.35511e-06
2.78526e-05
1.21026e-05
2.76827e-05
1.68656e-05
2.52476e-05
2.28416e-05
2.02706e-05
3.02738e-05
1.24327e-05
3.94586e-05
1.34659e-06
5.07548e-05
-1.34839e-05
6.45461e-05
-3.26725e-05
8.15194e-05
-5.72048e-05
-8.89653e-05
0.000102354
1.44094e-07
3.82896e-06
6.49489e-07
1.05857e-05
1.61186e-06
1.63905e-05
3.13234e-06
2.09044e-05
5.32122e-06
2.38258e-05
8.30474e-06
2.48691e-05
1.22336e-05
2.37538e-05
1.72928e-05
2.01885e-05
2.37113e-05
1.38521e-05
3.17711e-05
4.37288e-06
4.18121e-05
-8.69438e-06
5.42348e-05
-2.59066e-05
6.94147e-05
-4.78524e-05
8.81154e-05
-7.59055e-05
-0.000111191
0.000110341
1.09671e-07
3.71929e-06
5.56757e-07
1.01386e-05
1.46579e-06
1.54814e-05
2.96268e-06
1.94076e-05
5.18107e-06
2.16074e-05
8.27147e-06
2.17787e-05
1.24122e-05
1.96131e-05
1.78211e-05
1.47796e-05
2.4767e-05
6.90619e-06
3.35778e-05
-4.43794e-06
4.46395e-05
-1.97561e-05
5.83873e-05
-3.96544e-05
7.51689e-05
-6.4634e-05
9.5796e-05
-9.65325e-05
-0.000134627
0.000119232
7.71346e-08
3.64216e-06
4.70476e-07
9.74528e-06
1.33387e-06
1.46181e-05
2.81973e-06
1.79217e-05
5.0883e-06
1.93388e-05
8.31903e-06
1.8548e-05
1.27238e-05
1.52083e-05
1.85604e-05
8.94301e-06
2.61433e-05
-6.7674e-07
3.58489e-05
-1.41435e-05
4.81045e-05
-3.20117e-05
6.33606e-05
-5.49105e-05
8.19174e-05
-8.31908e-05
0.000104547
-0.000119162
-0.000158959
0.000128879
4.87875e-08
3.59337e-06
3.98573e-07
9.39549e-06
1.23266e-06
1.3784e-05
2.73166e-06
1.64227e-05
5.08554e-06
1.6985e-05
8.50721e-06
1.51263e-05
1.32474e-05
1.04681e-05
1.96085e-05
2.58196e-06
2.79531e-05
-9.02131e-06
3.87025e-05
-2.48929e-05
5.2313e-05
-4.56223e-05
6.92201e-05
-7.18176e-05
8.96648e-05
-0.000103635
0.000114173
-0.000143671
-0.000183806
0.000139021
2.66968e-08
3.56667e-06
3.48133e-07
9.07405e-06
1.17698e-06
1.29551e-05
2.72354e-06
1.48761e-05
5.2104e-06
1.44981e-05
8.88773e-06
1.1449e-05
1.40489e-05
5.30694e-06
2.10425e-05
-4.41168e-06
3.02767e-05
-1.82555e-05
4.22072e-05
-3.68234e-05
5.72982e-05
-6.07133e-05
7.59391e-05
-9.04584e-05
9.8329e-05
-0.000126025
0.000124394
-0.000169736
-0.000208759
0.000149347
1.26048e-08
3.55407e-06
3.25006e-07
8.76165e-06
1.17905e-06
1.21011e-05
2.81593e-06
1.32393e-05
5.4932e-06
1.18208e-05
9.50091e-06
7.44124e-06
1.51765e-05
-3.68621e-07
2.29131e-05
-1.21483e-05
3.31557e-05
-2.84981e-05
4.63751e-05
-5.00428e-05
6.30127e-05
-7.73509e-05
8.3376e-05
-0.000110822
0.000107664
-0.000150314
0.000135098
-0.00019717
-0.000233132
0.00015947
7.69642e-09
3.54637e-06
3.33485e-07
8.43586e-06
1.2479e-06
1.11867e-05
3.02385e-06
1.14633e-05
5.95536e-06
8.88931e-06
1.03735e-05
3.02312e-06
1.66585e-05
-6.65366e-06
2.5242e-05
-2.07319e-05
3.65908e-05
-3.98468e-05
5.11639e-05
-6.46159e-05
6.93381e-05
-9.55251e-05
9.12813e-05
-0.000132765
0.000117042
-0.000176074
0.000145547
-0.000225675
-0.000270333
0.000182748
1.23529e-08
3.53402e-06
3.76149e-07
8.07207e-06
1.3891e-06
1.01737e-05
3.35628e-06
9.49613e-06
6.60877e-06
5.63682e-06
1.15179e-05
-1.88597e-06
1.85026e-05
-1.36384e-05
2.80223e-05
-3.02516e-05
4.05454e-05
-5.23699e-05
5.64859e-05
-8.05564e-05
7.61091e-05
-0.000115148
9.93936e-05
-0.00015605
0.000126114
-0.000202794
0.000154937
-0.000254498
-0.000303818
0.000188422
2.69623e-08
3.50706e-06
4.53963e-07
7.64507e-06
1.60472e-06
9.02295e-06
3.81625e-06
7.2846e-06
7.45601e-06
1.99706e-06
1.29328e-05
-7.36276e-06
2.06972e-05
-2.14028e-05
3.12218e-05
-4.07761e-05
4.49516e-05
-6.60998e-05
6.22196e-05
-9.78243e-05
8.31343e-05
-0.000136063
0.000107446
-0.000180361
0.00013457
-0.000229919
0.000163076
-0.000283004
-0.000334508
0.000193766
5.13712e-08
3.45568e-06
5.66379e-07
7.13006e-06
1.89374e-06
7.69559e-06
4.40143e-06
4.7769e-06
8.49136e-06
-2.09287e-06
1.46051e-05
-1.34765e-05
2.32146e-05
-3.00123e-05
3.47874e-05
-5.2349e-05
4.97176e-05
-8.10299e-05
6.82201e-05
-0.000116327
9.02094e-05
-0.000158052
0.000115188
-0.00020534
0.000142252
-0.000256983
0.000169934
-0.000310685
-0.000362718
0.000198144
8.49044e-08
3.37078e-06
7.11614e-07
6.50335e-06
2.25256e-06
6.15464e-06
5.10515e-06
1.92432e-06
9.7025e-06
-6.69022e-06
1.65121e-05
-2.02861e-05
2.60146e-05
-3.95148e-05
3.86513e-05
-6.49858e-05
5.47352e-05
-9.71138e-05
7.43297e-05
-0.000135921
9.71293e-05
-0.000180852
0.000122392
-0.000230602
0.00014897
-0.000283561
0.000175405
-0.00033712
-0.000388526
0.000201213
1.26674e-07
3.24411e-06
8.87035e-07
5.74299e-06
2.67582e-06
4.36586e-06
5.91761e-06
-1.31747e-06
1.10723e-05
-1.18449e-05
1.86246e-05
-2.78383e-05
2.90483e-05
-4.99385e-05
4.27352e-05
-7.86727e-05
5.98869e-05
-0.000114266
8.03865e-05
-0.000156421
0.000103698
-0.000204164
0.000128859
-0.000255763
0.000154569
-0.000309271
0.000179441
-0.000361991
-0.000411967
0.000202882
1.75707e-07
3.0684e-06
1.08957e-06
4.82913e-06
3.15708e-06
2.29834e-06
6.82714e-06
-4.98753e-06
1.25807e-05
-1.75985e-05
2.09089e-05
-3.61666e-05
3.22614e-05
-6.12909e-05
4.6955e-05
-9.33664e-05
6.50514e-05
-0.000132362
8.62329e-05
-0.000177602
0.000109739
-0.00022767
0.000134432
-0.000280456
0.000158951
-0.000333791
0.000182047
-0.000385086
-0.000433093
0.000203172
2.31054e-07
2.83734e-06
1.31605e-06
3.74413e-06
3.68956e-06
-7.51671e-08
7.82123e-06
-9.1192e-06
1.42061e-05
-2.39833e-05
2.33293e-05
-4.52898e-05
3.55964e-05
-7.3558e-05
5.1224e-05
-0.000108994
7.01087e-05
-0.000151247
9.17221e-05
-0.000199216
0.000115103
-0.00025105
0.000138998
-0.000304352
0.000162076
-0.000356869
0.000183277
-0.000406287
-0.000451998
0.000202182
2.91873e-07
2.54547e-06
1.5635e-06
2.47251e-06
4.2666e-06
-2.77827e-06
8.8873e-06
-1.37399e-05
1.59263e-05
-3.10223e-05
2.58487e-05
-5.52122e-05
3.89947e-05
-8.67041e-05
5.54553e-05
-0.000125455
7.49433e-05
-0.000170735
9.67237e-05
-0.000220996
0.000119673
-0.000274
0.000142493
-0.000327172
0.000163956
-0.000378332
0.000183225
-0.000425556
-0.00046882
0.000200046
3.57485e-07
2.18799e-06
1.82929e-06
1.00071e-06
4.88201e-06
-5.831e-06
1.00131e-05
-1.8871e-05
1.77194e-05
-3.87285e-05
2.84295e-05
-6.59223e-05
4.23966e-05
-0.000100671
5.95636e-05
-0.000142622
7.94488e-05
-0.00019062
0.000101129
-0.000242676
0.00012337
-0.000296241
0.000144897
-0.000348699
0.000164643
-0.000398078
0.000182011
-0.000442923
-0.000483724
0.000196916
4.27389e-07
1.7606e-06
2.11118e-06
-6.83084e-07
5.53009e-06
-9.24991e-06
1.11869e-05
-2.45278e-05
1.95631e-05
-4.71048e-05
3.10338e-05
-7.7393e-05
4.5743e-05
-0.00011538
6.3467e-05
-0.000160346
8.35301e-05
-0.000210683
0.000104852
-0.000263998
0.000126148
-0.000317538
0.000146228
-0.000368779
0.000164224
-0.000416073
0.000179771
-0.000458471
-0.000496896
0.000192943
5.01237e-07
1.25936e-06
2.4073e-06
-2.58914e-06
6.20558e-06
-1.30482e-05
1.2397e-05
-3.07192e-05
2.14353e-05
-5.61431e-05
3.36234e-05
-8.9581e-05
4.89754e-05
-0.000130732
6.70893e-05
-0.000178459
8.71075e-05
-0.000230701
0.000107834
-0.000284725
0.000127996
-0.000337699
0.000146536
-0.000387319
0.000162801
-0.000432338
0.000176645
-0.000472315
-0.000508523
0.000188272
5.78796e-07
6.80565e-07
2.71598e-06
-4.72633e-06
6.90339e-06
-1.72356e-05
1.36318e-05
-3.74476e-05
2.33132e-05
-6.58245e-05
3.61593e-05
-0.000102427
5.20369e-05
-0.00014661
7.03619e-05
-0.000196784
9.0118e-05
-0.000250457
0.000110045
-0.000304651
0.000128931
-0.000356586
0.000145892
-0.00040428
0.000160492
-0.000446938
0.00017277
-0.000484593
-0.000518787
0.000183034
6.59885e-07
2.06806e-08
3.03564e-06
-7.10208e-06
7.61836e-06
-2.18183e-05
1.48791e-05
-4.47083e-05
2.51731e-05
-7.61186e-05
3.86027e-05
-0.000115857
5.48738e-05
-0.000162881
7.3226e-05
-0.000215137
9.25176e-05
-0.000269749
0.000111474
-0.000323608
0.000128995
-0.000374107
0.000144386
-0.000419671
0.000157413
-0.000459965
0.000168272
-0.000495452
-0.000527856
0.000177342
7.44312e-07
-7.23631e-07
3.36459e-06
-9.72235e-06
8.34497e-06
-2.67987e-05
1.6126e-05
-5.24894e-05
2.69908e-05
-8.69833e-05
4.09151e-05
-0.000129781
5.74371e-05
-0.000179403
7.56347e-05
-0.000233334
9.4281e-05
-0.000288395
0.000112137
-0.000341464
0.000128247
-0.000390217
0.000142111
-0.000433535
0.00015368
-0.000471533
0.000163266
-0.000505039
-0.000535883
0.000171293
8.31845e-07
-1.55548e-06
3.70091e-06
-1.25914e-05
9.07716e-06
-3.2175e-05
1.7359e-05
-6.07712e-05
2.87412e-05
-9.83655e-05
4.30596e-05
-0.000144099
5.96836e-05
-0.000196027
7.75538e-05
-0.000251204
9.54012e-05
-0.000306243
0.000112066
-0.000358128
0.000126758
-0.00040491
0.000139167
-0.000445944
0.000149399
-0.000481765
0.000157852
-0.000513492
-0.000542999
0.000164968
9.22138e-07
-2.47761e-06
4.04236e-06
-1.57116e-05
9.80818e-06
-3.79408e-05
1.85633e-05
-6.95262e-05
3.03992e-05
-0.000110201
4.50015e-05
-0.000158702
6.15782e-05
-0.000212604
7.89625e-05
-0.000268589
9.58873e-05
-0.000323167
0.000111306
-0.000373547
0.000124605
-0.000418209
0.000135649
-0.000456987
0.000144667
-0.000490783
0.000152115
-0.00052094
-0.000549316
0.000158433
1.01473e-06
-3.49234e-06
4.38629e-06
-1.90832e-05
1.05306e-05
-4.40851e-05
1.97237e-05
-7.87193e-05
3.19402e-05
-0.000122418
4.671e-05
-0.000173471
6.3094e-05
-0.000228988
7.98531e-05
-0.000285348
9.57624e-05
-0.000339077
0.000109913
-0.000387698
0.000121868
-0.000430164
0.000131645
-0.000466764
0.00013957
-0.000498709
0.000146128
-0.000527498
-0.000554928
0.00015174
1.10902e-06
-4.60136e-06
4.72971e-06
-2.27039e-05
1.12365e-05
-5.0592e-05
2.08248e-05
-8.83076e-05
3.33408e-05
-0.000134934
4.81589e-05
-0.00018829
6.42135e-05
-0.000245042
8.02301e-05
-0.000301365
9.50601e-05
-0.000353907
0.000107948
-0.000400585
0.000118624
-0.00044084
0.000127237
-0.000475376
0.000134182
-0.000505654
0.000139949
-0.000533265
-0.000559911
0.000144932
1.20429e-06
-5.80565e-06
5.06924e-06
-2.65688e-05
1.19175e-05
-5.74402e-05
2.18512e-05
-9.82413e-05
3.45797e-05
-0.000147662
4.93277e-05
-0.000203038
6.49285e-05
-0.000260643
8.01082e-05
-0.000316544
9.38222e-05
-0.00036762
0.000105474
-0.000412237
0.000114949
-0.000450315
0.000122499
-0.000482927
0.000128566
-0.00051172
0.000133627
-0.000538327
-0.000564325
0.000138042
1.29973e-06
-7.10538e-06
5.40128e-06
-3.06704e-05
1.25649e-05
-6.46038e-05
2.27881e-05
-0.000108465
3.56385e-05
-0.000160513
5.02018e-05
-0.000217601
6.52392e-05
-0.000275681
7.95108e-05
-0.000330816
9.20956e-05
-0.000380205
0.000102555
-0.000422697
0.000110911
-0.000458671
0.000117496
-0.000489512
0.000122774
-0.000516998
0.000127201
-0.000542754
-0.00056822
0.000131095
1.3944e-06
-8.49978e-06
5.72202e-06
-3.4998e-05
1.31701e-05
-7.20518e-05
2.3622e-05
-0.000118916
3.65018e-05
-0.000173393
5.07727e-05
-0.000231872
6.51538e-05
-0.000290062
7.84679e-05
-0.00034413
8.99299e-05
-0.000391667
9.92525e-05
-0.00043202
0.000106572
-0.00046599
0.000112282
-0.000495221
0.000116849
-0.000521565
0.0001207
-0.000546605
-0.000571632
0.000124112
1.48733e-06
-9.98711e-06
6.02759e-06
-3.95383e-05
1.37249e-05
-7.97492e-05
2.43405e-05
-0.000129532
3.71583e-05
-0.00018621
5.10382e-05
-0.000245752
6.46872e-05
-0.000303711
7.7014e-05
-0.000356457
8.73755e-05
-0.000402029
9.56232e-05
-0.000440267
0.000101989
-0.000472357
0.000106905
-0.000500137
0.000110829
-0.00052549
0.000114151
-0.000549927
-0.00057459
0.000117109
1.57748e-06
-1.15646e-05
6.31412e-06
-4.42749e-05
1.42216e-05
-8.76567e-05
2.49335e-05
-0.000140244
3.76004e-05
-0.000198877
5.10015e-05
-0.000259153
6.38594e-05
-0.000316569
7.51866e-05
-0.000367784
8.44817e-05
-0.000411324
9.17206e-05
-0.000447506
9.72108e-05
-0.000477847
0.000101404
-0.00050433
0.000104741
-0.000528827
0.000107572
-0.000552758
-0.000577114
0.000110097
1.66382e-06
-1.32284e-05
6.57789e-06
-4.9189e-05
1.46531e-05
-9.57319e-05
2.53927e-05
-0.000150983
3.78245e-05
-0.000211309
5.06708e-05
-0.000271999
6.26946e-05
-0.000328592
7.30246e-05
-0.000378114
8.12957e-05
-0.000419595
8.75925e-05
-0.000453803
9.22791e-05
-0.000482533
9.58136e-05
-0.000507865
9.86105e-05
-0.000531624
0.00010098
-0.000555127
-0.00057922
0.000103086
1.7453e-06
-1.49737e-05
6.81538e-06
-5.42591e-05
1.50134e-05
-0.00010393
2.57123e-05
-0.000161682
3.78308e-05
-0.000223428
5.00583e-05
-0.000284227
6.12198e-05
-0.000339754
7.05665e-05
-0.000387461
7.78619e-05
-0.00042689
8.32821e-05
-0.000459223
8.72306e-05
-0.000486482
9.01605e-05
-0.000510795
9.2455e-05
-0.000533918
9.43852e-05
-0.000557058
-0.00058092
9.6085e-05
1.82091e-06
-1.67946e-05
7.02337e-06
-5.94615e-05
1.52974e-05
-0.000112204
2.58886e-05
-0.000172273
3.76228e-05
-0.000235162
4.91799e-05
-0.000295784
5.94636e-05
-0.000350038
6.78504e-05
-0.000395847
7.42211e-05
-0.000433261
7.8827e-05
-0.000463829
8.20964e-05
-0.000489751
8.44676e-05
-0.000513166
8.62904e-05
-0.000535741
8.7799e-05
-0.000558566
-0.000582221
8.91002e-05
1.8897e-06
-1.86843e-05
7.19901e-06
-6.47708e-05
1.55013e-05
-0.000120506
2.59204e-05
-0.000182693
3.72071e-05
-0.000246449
4.80536e-05
-0.00030663
5.74554e-05
-0.00035944
6.49124e-05
-0.000403304
7.04105e-05
-0.000438759
7.42605e-05
-0.000467679
7.69025e-05
-0.000492393
7.87536e-05
-0.000515017
8.01291e-05
-0.000537116
8.12292e-05
-0.000559666
-0.000583129
8.21375e-05
1.95079e-06
-2.06351e-05
7.33988e-06
-7.01599e-05
1.56223e-05
-0.000128789
2.58086e-05
-0.000192879
3.65929e-05
-0.000257233
4.66994e-05
-0.000316737
5.52244e-05
-0.000367965
6.17863e-05
-0.000409866
6.64633e-05
-0.000443436
6.96111e-05
-0.000470827
7.16708e-05
-0.000494453
7.30338e-05
-0.00051638
7.39812e-05
-0.000538064
7.46826e-05
-0.000560368
-0.000583649
7.52018e-05
2.00335e-06
-2.26385e-05
7.44403e-06
-7.56006e-05
1.5659e-05
-0.000137004
2.55559e-05
-0.000202776
3.57914e-05
-0.000267468
4.51384e-05
-0.000326084
5.2799e-05
-0.000375625
5.85037e-05
-0.000415571
6.24093e-05
-0.000447342
6.49034e-05
-0.000473321
6.64197e-05
-0.000495969
6.73209e-05
-0.000517281
6.78552e-05
-0.000538598
6.81649e-05
-0.000560677
-0.000583782
6.82978e-05
2.0467e-06
-2.46852e-05
7.50998e-06
-8.10639e-05
1.56112e-05
-0.000145105
2.51671e-05
-0.000212332
3.48154e-05
-0.000277117
4.33918e-05
-0.00033466
5.02064e-05
-0.00038244
5.50931e-05
-0.000420458
5.82745e-05
-0.000450523
6.01584e-05
-0.000475205
6.11645e-05
-0.000496975
6.16251e-05
-0.000517742
6.17578e-05
-0.000538731
6.1681e-05
-0.000560601
-0.00058353
6.14296e-05
2.08024e-06
-2.67654e-05
7.53676e-06
-8.65204e-05
1.54796e-05
-0.000153048
2.46481e-05
-0.0002215
3.36787e-05
-0.000286147
4.14809e-05
-0.000342462
4.74723e-05
-0.000388431
5.15807e-05
-0.000424566
5.40818e-05
-0.000453024
5.53941e-05
-0.000476517
5.5918e-05
-0.000497499
5.59552e-05
-0.000517779
5.56949e-05
-0.000538471
5.52352e-05
-0.000560141
-0.000582896
5.46007e-05
2.1035e-06
-2.88689e-05
7.52391e-06
-9.19408e-05
1.5266e-05
-0.00016079
2.40062e-05
-0.00023024
3.23959e-05
-0.000294537
3.94266e-05
-0.000349493
4.46207e-05
-0.000393625
4.79896e-05
-0.000427935
4.9851e-05
-0.000454886
5.06255e-05
-0.000477292
5.06908e-05
-0.000497565
5.03182e-05
-0.000517406
4.96716e-05
-0.000537824
4.88313e-05
-0.000559301
-0.000581879
4.78148e-05
2.11611e-06
-3.0985e-05
7.47144e-06
-9.72961e-05
1.49731e-05
-0.000168291
2.32496e-05
-0.000238517
3.09817e-05
-0.000302269
3.72489e-05
-0.00035576
4.16735e-05
-0.00039805
4.43405e-05
-0.000430602
4.55994e-05
-0.000456144
4.58656e-05
-0.000477558
4.54918e-05
-0.000497191
4.47204e-05
-0.000516635
4.36921e-05
-0.000536796
4.24729e-05
-0.000558082
-0.000580481
4.10753e-05
2.11786e-06
-3.31029e-05
7.3798e-06
-0.000102558
1.46044e-05
-0.000175516
2.23872e-05
-0.0002463
2.9451e-05
-0.000309333
3.49665e-05
-0.000361276
3.86507e-05
-0.000401734
4.06518e-05
-0.000432603
4.13415e-05
-0.000456834
4.1125e-05
-0.000477342
4.03285e-05
-0.000496394
3.91669e-05
-0.000515473
3.77603e-05
-0.000535389
3.61632e-05
-0.000556485
-0.000578703
3.43851e-05
2.10862e-06
-3.52115e-05
7.24986e-06
-0.000107699
1.4164e-05
-0.00018243
2.14282e-05
-0.000253564
2.78182e-05
-0.000315723
3.25974e-05
-0.000366055
3.55705e-05
-0.000404707
3.69395e-05
-0.000433972
3.70902e-05
-0.000456985
3.64131e-05
-0.000476664
3.52074e-05
-0.000495189
3.36622e-05
-0.000513928
3.18797e-05
-0.000533606
2.99053e-05
-0.00055451
-0.000576544
2.77464e-05
2.08841e-06
-3.72999e-05
7.08286e-06
-0.000112694
1.36566e-05
-0.000189004
2.03822e-05
-0.000260289
2.60973e-05
-0.000321438
3.0158e-05
-0.000370116
3.24491e-05
-0.000406998
3.32176e-05
-0.000434741
3.28563e-05
-0.000456624
3.17376e-05
-0.000475546
3.01339e-05
-0.000493585
2.82101e-05
-0.000512004
2.60531e-05
-0.000531449
2.37018e-05
-0.000552159
-0.000574003
2.11608e-05
2.05734e-06
-3.93572e-05
6.88036e-06
-0.000117517
1.3087e-05
-0.000195211
1.92586e-05
-0.000266461
2.43018e-05
-0.000326481
2.76633e-05
-0.000373477
2.93012e-05
-0.000408636
2.94984e-05
-0.000434938
2.86491e-05
-0.000455774
2.71053e-05
-0.000474002
2.51129e-05
-0.000491593
2.28146e-05
-0.000509706
2.02834e-05
-0.000528918
1.75548e-05
-0.00054943
-0.000571078
1.46293e-05
2.01562e-06
-4.13729e-05
6.64419e-06
-0.000122145
1.24605e-05
-0.000201027
1.80669e-05
-0.000272067
2.24443e-05
-0.000330859
2.51272e-05
-0.00037616
2.61395e-05
-0.000409648
2.57925e-05
-0.000434591
2.44765e-05
-0.000454458
2.25219e-05
-0.000472047
2.0149e-05
-0.00048922
1.74803e-05
-0.000507037
1.45759e-05
-0.000526014
1.14639e-05
-0.000546318
-0.000567761
8.14692e-06
1.96357e-06
-4.33364e-05
6.37639e-06
-0.000126558
1.17825e-05
-0.000206433
1.68161e-05
-0.000277101
2.05364e-05
-0.000334579
2.25623e-05
-0.000378186
2.29754e-05
-0.000410061
2.2109e-05
-0.000433725
2.03453e-05
-0.000452695
1.79921e-05
-0.000469694
1.52459e-05
-0.000486473
1.22114e-05
-0.000504003
8.94034e-06
-0.000522743
5.4353e-06
-0.000542813
-0.000563963
1.63743e-06
1.90158e-06
-4.5238e-05
6.07916e-06
-0.000130736
1.10583e-05
-0.000211412
1.5515e-05
-0.000281558
1.85892e-05
-0.000337653
1.99796e-05
-0.000379576
1.98189e-05
-0.000409901
1.84557e-05
-0.000432361
1.62612e-05
-0.0004505
1.35202e-05
-0.000466953
1.04063e-05
-0.00048336
7.00901e-06
-0.000500606
3.37806e-06
-0.000519112
-4.36324e-07
-0.000538999
-0.00055979
-4.609e-06
1.83009e-06
-4.70681e-05
5.75483e-06
-0.00013466
1.02933e-05
-0.000215951
1.4172e-05
-0.000285436
1.66128e-05
-0.000340094
1.73893e-05
-0.000380353
1.66786e-05
-0.00040919
1.48394e-05
-0.000430522
1.22292e-05
-0.00044789
9.10971e-06
-0.000463834
5.6335e-06
-0.000479883
1.875e-06
-0.000496847
-2.12606e-06
-0.000515111
-6.37206e-06
-0.000534753
-0.000555351
-1.08117e-05
1.74963e-06
-4.88177e-05
5.40581e-06
-0.000138317
9.49275e-06
-0.000220037
1.27948e-05
-0.000288738
1.46162e-05
-0.000341915
1.48004e-05
-0.000380537
1.35622e-05
-0.000407952
1.12659e-05
-0.000428226
8.25328e-06
-0.000444877
4.76392e-06
-0.000460344
9.2957e-07
-0.000476049
-3.1851e-06
-0.000492732
-7.55105e-06
-0.000510745
-1.21615e-05
-0.000530142
-0.00055054
-1.69726e-05
1.66075e-06
-5.04785e-05
5.03454e-06
-0.00014169
8.66178e-06
-0.000223665
1.1391e-05
-0.000291468
1.26079e-05
-0.000343132
1.22207e-05
-0.00038015
1.04763e-05
-0.000406207
7.74008e-06
-0.00042549
4.33711e-06
-0.000441474
4.83631e-07
-0.000456491
-3.70093e-06
-0.000471864
-8.1707e-06
-0.000488263
-1.29005e-05
-0.000506015
-1.78735e-05
-0.000525169
-0.000545351
-2.30624e-05
1.56407e-06
-5.20426e-05
4.64348e-06
-0.00014477
7.80526e-06
-0.000226827
9.96727e-06
-0.00029363
1.05954e-05
-0.00034376
9.65733e-06
-0.000379212
7.42654e-06
-0.000403977
4.26614e-06
-0.000422329
4.82772e-07
-0.000437691
-3.72316e-06
-0.000452285
-8.25748e-06
-0.00046733
-1.30796e-05
-0.000483441
-1.81702e-05
-0.000500924
-2.35089e-05
-0.000519831
-0.000539787
-2.90727e-05
1.46023e-06
-5.35028e-05
4.23505e-06
-0.000147545
6.92787e-06
-0.000229519
8.52991e-06
-0.000295232
8.58551e-06
-0.000343816
7.11644e-06
-0.000377743
4.41778e-06
-0.000401278
8.47768e-07
-0.000418759
-3.30345e-06
-0.00043354
-7.85959e-06
-0.000447729
-1.27378e-05
-0.000462452
-1.79089e-05
-0.000478269
-2.33583e-05
-0.000495475
-2.90638e-05
-0.000514125
-0.000533851
-3.49995e-05
1.34989e-06
-5.48527e-05
3.81166e-06
-0.000150006
6.03403e-06
-0.000231742
7.08474e-06
-0.000296282
6.58433e-06
-0.000343316
4.60337e-06
-0.000375762
1.45435e-06
-0.000398129
-2.51157e-06
-0.000414793
-7.02321e-06
-0.000429028
-1.19221e-05
-0.00044283
-1.71397e-05
-0.000457234
-2.26563e-05
-0.000472753
-2.84621e-05
-0.000489669
-3.45345e-05
-0.000508053
-0.000527546
-4.08396e-05
1.23376e-06
-5.60864e-05
3.37563e-06
-0.000152148
5.12788e-06
-0.000233494
5.63717e-06
-0.000296792
4.59733e-06
-0.000342276
2.12287e-06
-0.000373287
-1.46009e-06
-0.000394546
-5.80984e-06
-0.000410443
-1.06733e-05
-0.000424165
-1.5909e-05
-0.000437594
-2.14612e-05
-0.000451682
-2.73191e-05
-0.000466895
-3.34788e-05
-0.000483509
-3.99174e-05
-0.000501614
-0.000520874
-4.659e-05
1.11262e-06
-5.7199e-05
2.92923e-06
-0.000153965
4.21328e-06
-0.000234778
4.19224e-06
-0.000296771
2.62932e-06
-0.000340713
-3.18599e-07
-0.000370339
-4.32229e-06
-0.000390542
-9.04476e-06
-0.000405721
-1.42519e-05
-0.000418958
-1.98186e-05
-0.000432027
-2.57005e-05
-0.0004458
-3.18953e-05
-0.0004607
-3.84054e-05