/*--------------------------------*- C++ -*----------------------------------*\
  =========                 |
  \\      /  F ield         | OpenFOAM: The Open Source CFD Toolbox
   \\    /   O peration     | Website:  https://openfoam.org
    \\  /    A nd           | Version:  7
     \\/     M anipulation  |
\*---------------------------------------------------------------------------*/
FoamFile
{
    version     2.0;
    format      ascii;
    class       volVectorField;
    location    "5";
    object      U;
}
// * * * * * * * * * * * * * * * * * * * * * * * * * * * * * * * * * * * * * //

dimensions      [0 1 -1 0 0 0 0];

internalField   nonuniform List<vector> 
18750
(
(-0.00201631 0.0018024 -9.92125e-20)
(-0.011646 0.00425051 2.96072e-20)
(-0.0300436 0.00591382 2.02117e-19)
(-0.0529438 0.007023 3.49238e-20)
(-0.078926 0.0077348 -5.19459e-20)
(-0.106935 0.00817451 -1.07095e-19)
(-0.136196 0.0084389 8.18951e-20)
(-0.166241 0.00859913 4.4925e-20)
(-0.196807 0.00870415 -3.05457e-20)
(-0.22776 0.00878436 -7.25664e-20)
(-0.259046 0.00885613 2.52372e-19)
(-0.290667 0.00892653 -1.90499e-19)
(-0.32263 0.00899587 1.07148e-19)
(-0.354614 0.00905752 -1.94153e-19)
(-0.38696 0.00912101 4.60696e-20)
(-0.00216059 0.00536829 6.60936e-20)
(-0.0118687 0.0126719 5.31626e-20)
(-0.0301355 0.0176447 -6.11366e-21)
(-0.0528028 0.0209678 1.78891e-19)
(-0.0784865 0.0231049 3.05147e-19)
(-0.106151 0.0244277 3.33266e-19)
(-0.135028 0.0252238 -2.28881e-19)
(-0.164649 0.0257054 3.06171e-19)
(-0.194742 0.0260188 2.53749e-19)
(-0.225165 0.0262553 -5.70436e-20)
(-0.255846 0.0264644 -2.62511e-19)
(-0.286779 0.0266677 1.98451e-20)
(-0.317957 0.0268667 5.6866e-20)
(-0.349032 0.0270427 1.29775e-19)
(-0.380305 0.0272227 -1.87586e-19)
(-0.00244314 0.00881906 1.41796e-19)
(-0.0123056 0.0208576 1.34204e-19)
(-0.030315 0.0290896 -4.23661e-19)
(-0.0525233 0.0346138 -1.69885e-20)
(-0.0776172 0.0381821 -5.97715e-19)
(-0.104599 0.0403996 1.45718e-19)
(-0.132717 0.0417373 -3.26146e-19)
(-0.161498 0.042544 -5.84473e-20)
(-0.190656 0.0430622 -2.04736e-19)
(-0.220028 0.0434441 4.97668e-19)
(-0.249517 0.0437733 5.8893e-19)
(-0.279089 0.0440871 4.71293e-19)
(-0.308723 0.0443903 2.61743e-19)
(-0.338012 0.044655 1.70695e-19)
(-0.367175 0.044922 -3.01048e-19)
(-0.00285227 0.0120826 -4.82646e-19)
(-0.01294 0.0286586 5.17498e-19)
(-0.0305743 0.0400655 -3.26224e-19)
(-0.0521104 0.0477681 -5.44879e-19)
(-0.0763377 0.0527757 7.52998e-19)
(-0.102314 0.0559065 -6.17751e-19)
(-0.129312 0.0578014 7.26803e-19)
(-0.156853 0.0589398 -5.25841e-19)
(-0.184633 0.0596571 3.05197e-19)
(-0.212458 0.0601671 -7.0066e-19)
(-0.240194 0.0605887 -9.0139e-19)
(-0.267772 0.0609772 4.17111e-20)
(-0.295145 0.0613435 -1.5564e-19)
(-0.321834 0.0616563 -3.09771e-19)
(-0.347921 0.0619647 1.1099e-18)
(-0.00337119 0.0150936 -2.47661e-19)
(-0.0137475 0.035937 5.61522e-19)
(-0.0309018 0.0504008 1.80272e-19)
(-0.0515717 0.060247 4.87058e-19)
(-0.0746768 0.0667021 -4.46316e-19)
(-0.0993473 0.0707694 1.75352e-19)
(-0.124885 0.0732427 1.61583e-18)
(-0.150812 0.0747216 1.94106e-19)
(-0.176798 0.0756316 3.06671e-19)
(-0.202612 0.0762471 -8.59306e-20)
(-0.228078 0.0767247 1.06309e-19)
(-0.253079 0.0771402 -2.43856e-20)
(-0.277541 0.077515 -8.19351e-19)
(-0.3009 0.0778227 -4.42207e-19)
(-0.323043 0.0781154 -1.26168e-18)
(-0.00397893 0.0177956 5.89484e-19)
(-0.0146979 0.0425709 1.92093e-20)
(-0.0312828 0.0599394 -2.51784e-19)
(-0.0509171 0.0718798 -1.658e-19)
(-0.0726716 0.0797876 7.18766e-20)
(-0.0957626 0.0848172 -1.57606e-18)
(-0.119532 0.0878935 -2.04701e-19)
(-0.1435 0.0897247 9.38893e-20)
(-0.16731 0.0908204 -4.87911e-19)
(-0.190694 0.0915152 -6.01631e-19)
(-0.213423 0.0920058 3.98383e-19)
(-0.235328 0.0923914 -3.71811e-19)
(-0.256308 0.0927091 1.06954e-18)
(-0.275717 0.0929485 -7.9168e-19)
(-0.293167 0.0931626 1.71598e-18)
(-0.00465137 0.020143 -4.04177e-19)
(-0.0157558 0.048457 -8.23005e-19)
(-0.0317004 0.0685444 2.41488e-19)
(-0.0501583 0.0825121 1.71902e-18)
(-0.0703668 0.0918706 1.4794e-18)
(-0.0916389 0.0978877 -4.01288e-19)
(-0.113364 0.101594 1.8203e-19)
(-0.135065 0.103791 8.77823e-20)
(-0.156362 0.105066 9.65531e-19)
(-0.176944 0.105813 1.24133e-18)
(-0.196532 0.106269 -5.85993e-19)
(-0.214897 0.106561 -1.01248e-18)
(-0.231915 0.106748 -1.78333e-18)
(-0.246876 0.106849 2.90253e-19)
(-0.259015 0.106921 -2.075e-18)
(-0.00536254 0.0221023 -2.50353e-19)
(-0.0168825 0.0535142 -3.46075e-19)
(-0.0321363 0.0761017 -2.50937e-18)
(-0.0493095 0.0920089 7.36887e-19)
(-0.0678134 0.102805 -9.65966e-19)
(-0.0870662 0.109831 5.05899e-19)
(-0.106511 0.114193 4.08152e-19)
(-0.12568 0.116772 -1.87138e-18)
(-0.144173 0.118221 -1.11683e-18)
(-0.161637 0.118992 -1.72271e-18)
(-0.177745 0.119364 -3.04173e-19)
(-0.192208 0.119496 1.0754e-18)
(-0.204881 0.119473 3.98279e-18)
(-0.215027 0.119362 -5.745e-19)
(-0.221374 0.119232 1.02096e-18)
(-0.00608588 0.0236531 1.4209e-18)
(-0.0180381 0.0576853 6.18586e-19)
(-0.0325715 0.0825227 2.66055e-18)
(-0.0483861 0.100258 -1.81189e-18)
(-0.0650678 0.112464 7.08546e-19)
(-0.0821435 0.12051 -1.04887e-18)
(-0.0991168 0.125552 -2.13563e-18)
(-0.115535 0.128527 1.80075e-18)
(-0.130983 0.130147 1.79398e-19)
(-0.145073 0.130915 2.51184e-18)
(-0.157433 0.131154 -7.66895e-19)
(-0.167715 0.131059 -3.18837e-18)
(-0.175758 0.130747 -1.86136e-18)
(-0.180861 0.130344 1.85077e-19)
(-0.181072 0.129949 -8.46696e-19)
(-0.00679562 0.024788 -1.07482e-18)
(-0.0191831 0.0609383 -6.8953e-19)
(-0.0329874 0.0877466 7.15218e-19)
(-0.0474055 0.107173 1.10601e-19)
(-0.0621898 0.120739 -2.67311e-19)
(-0.0769765 0.129804 -2.7659e-19)
(-0.0913346 0.135542 9.98297e-19)
(-0.104834 0.138927 -1.00219e-18)
(-0.11705 0.140716 9.28398e-19)
(-0.12757 0.141457 1.03007e-18)
(-0.135983 0.141518 -1.7688e-18)
(-0.141893 0.141131 3.19991e-18)
(-0.145118 0.140452 3.63687e-19)
(-0.145087 0.139675 4.42252e-19)
(-0.138953 0.138952 1.00957e-18)
(-0.00746801 0.0255127 1.7843e-18)
(-0.0202805 0.0632664 -6.28387e-19)
(-0.0333673 0.0917412 -2.8244e-18)
(-0.046386 0.112693 9.84897e-19)
(-0.0592416 0.127546 -5.64816e-19)
(-0.0716752 0.137612 6.30307e-19)
(-0.0833238 0.144051 3.93892e-18)
(-0.0937867 0.147853 1.68598e-18)
(-0.102641 0.149809 1.03587e-18)
(-0.109456 0.150504 -3.32177e-18)
(-0.113797 0.150346 3.38237e-18)
(-0.115222 0.149608 1.12415e-18)
(-0.11353 0.148489 -1.78565e-18)
(-0.108411 0.147254 2.12466e-18)
(-0.0958853 0.146257 -6.64709e-20)
(-0.00808251 0.0258446 2.38489e-19)
(-0.0212974 0.0646879 1.22119e-19)
(-0.0336968 0.094504 -1.02073e-19)
(-0.0453474 0.116788 -1.72843e-18)
(-0.0562856 0.132828 3.23126e-18)
(-0.0663498 0.143852 -1.54564e-18)
(-0.0752458 0.150983 -4.12593e-18)
(-0.0826086 0.155202 1.06315e-18)
(-0.0880271 0.15732 -1.69131e-18)
(-0.0910649 0.157951 2.45075e-18)
(-0.0912726 0.157537 -4.14666e-18)
(-0.088179 0.156396 2.93881e-19)
(-0.0815486 0.154769 1.57726e-18)
(-0.0714313 0.152983 -3.19116e-18)
(-0.0527858 0.152211 -7.31968e-19)
(-0.00862268 0.0258121 -1.07763e-18)
(-0.0222069 0.0652445 3.38864e-19)
(-0.0339655 0.0960616 9.92488e-19)
(-0.0443099 0.119457 -2.27024e-20)
(-0.053383 0.136554 -4.19649e-18)
(-0.0611082 0.148468 4.15131e-19)
(-0.0672588 0.15626 1.32598e-18)
(-0.0715112 0.160885 -3.30968e-18)
(-0.0734759 0.163155 2.19631e-18)
(-0.0727226 0.163705 -1.91402e-18)
(-0.0688006 0.163005 4.96183e-18)
(-0.0612263 0.161413 -2.02083e-18)
(-0.0497169 0.159215 2.25702e-18)
(-0.034521 0.15681 4.44855e-18)
(-0.0101399 0.15639 1.85488e-18)
(-0.00907675 0.0254524 -3.87679e-19)
(-0.0229891 0.0649987 1.66671e-20)
(-0.0341672 0.096468 -6.6724e-20)
(-0.0432945 0.12073 -1.14075e-19)
(-0.0505913 0.138722 -1.87602e-18)
(-0.056052 0.15143 -7.50746e-19)
(-0.0595126 0.159828 1.22919e-18)
(-0.0606956 0.164831 6.56632e-19)
(-0.0592424 0.167236 -3.82797e-18)
(-0.0547411 0.167687 -2.16196e-19)
(-0.0467517 0.166673 -9.74445e-19)
(-0.0347934 0.164585 1.87904e-18)
(-0.0185458 0.161755 -2.50724e-18)
(0.00160383 0.158642 -3.24116e-19)
(0.0316527 0.158153 -2.08663e-18)
(-0.00943843 0.0248103 1.66967e-18)
(-0.0236322 0.064031 -1.57127e-18)
(-0.0343008 0.0958024 -2.17107e-18)
(-0.0423219 0.120665 3.71841e-18)
(-0.0479627 0.139361 3.16995e-18)
(-0.0512718 0.152733 3.81075e-18)
(-0.0521422 0.161658 1.26648e-19)
(-0.0503445 0.166991 2.21503e-18)
(-0.0455595 0.169503 2.84001e-18)
(-0.0374047 0.169832 3.96525e-18)
(-0.0254631 0.168479 -1.70646e-18)
(-0.00926928 0.165854 3.43789e-18)
(0.0115367 0.162331 -5.57185e-20)
(0.036373 0.158419 -1.65471e-18)
(0.0719439 0.157666 -3.91028e-18)
(-0.00970706 0.0239356 -1.02624e-18)
(-0.0241334 0.062436 1.75315e-18)
(-0.0343706 0.0941662 1.14839e-18)
(-0.0414118 0.119348 -3.44893e-18)
(-0.0455411 0.13853 -1.55028e-18)
(-0.0468435 0.152408 -2.59996e-19)
(-0.045261 0.161751 -1.80799e-18)
(-0.0406127 0.167344 -2.94332e-18)
(-0.0326248 0.169919 -4.66905e-18)
(-0.0209544 0.170098 -1.89331e-18)
(-0.00521768 0.168382 2.52221e-18)
(0.0150239 0.165186 -5.08994e-18)
(0.0401816 0.160916 1.72133e-19)
(0.0694234 0.156083 2.9772e-18)
(0.110291 0.154989 4.15848e-18)
(-0.00988731 0.0228807 -2.43083e-18)
(-0.0244982 0.0603185 2.03295e-18)
(-0.0343855 0.0916782 -3.52707e-18)
(-0.040582 0.116889 -1.61615e-18)
(-0.0433601 0.136317 -5.54803e-20)
(-0.0428234 0.150514 2.04976e-18)
(-0.0389534 0.160139 3.0333e-18)
(-0.0316161 0.165899 8.90428e-19)
(-0.0205869 0.168477 1.24638e-18)
(-0.00556921 0.168471 -3.5578e-18)
(0.0137801 0.166368 7.44547e-20)
(0.0378642 0.162577 -2.40608e-18)
(0.0671621 0.15752 -1.73329e-18)
(0.100561 0.151636 -4.79032e-18)
(0.146546 0.150073 -6.52119e-20)
(-0.00998889 0.0216991 2.14581e-18)
(-0.0247405 0.0577892 3.51404e-19)
(-0.0343587 0.0884707 5.66878e-19)
(-0.0398467 0.113418 4.06864e-18)
(-0.0414396 0.132837 1.65307e-18)
(-0.0392427 0.147143 -1.84469e-18)
(-0.0332667 0.156887 1.42062e-18)
(-0.0234204 0.1627 -7.51219e-19)
(-0.00952877 0.165207 -1.39408e-18)
(0.00865569 0.164972 1.56411e-18)
(0.031433 0.162461 -4.9265e-18)
(0.059167 0.158063 -1.92547e-19)
(0.0924271 0.152202 -2.52532e-18)
(0.129802 0.145156 3.82526e-18)
(0.180875 0.142921 3.55718e-19)
(-0.0100259 0.0204429 -8.18762e-19)
(-0.0248806 0.05496 -2.44817e-18)
(-0.0343061 0.0846837 6.33222e-19)
(-0.0392145 0.109083 -4.63864e-18)
(-0.0397827 0.128228 -3.032e-18)
(-0.0361025 0.142416 -1.63545e-18)
(-0.0282028 0.152101 -2.63059e-18)
(-0.0160285 0.157832 2.48647e-18)
(0.000549607 0.160179 3.21363e-18)
(0.0217328 0.159665 5.91814e-18)
(0.047782 0.156731 -2.28502e-19)
(0.0790261 0.15173 6.02344e-18)
(0.116153 0.145085 2.25426e-18)
(0.157437 0.136805 1.69432e-18)
(0.213812 0.133674 -3.6857e-18)
(-0.0100157 0.019161 1.41624e-18)
(-0.0249441 0.05194 3.72172e-18)
(-0.0342438 0.0804598 2.55918e-18)
(-0.0386859 0.104041 3.22273e-18)
(-0.0383726 0.122649 -4.03384e-20)
(-0.0333691 0.136485 1.11466e-18)
(-0.0237107 0.145916 8.00552e-20)
(-0.00936929 0.15142 -1.77197e-18)
(0.00974782 0.15351 2.76124e-18)
(0.0338049 0.152669 -9.1166e-18)
(0.0630367 0.149305 2.47409e-18)
(0.0977501 0.143733 -1.59361e-18)
(0.138786 0.13637 2.83065e-19)
(0.184078 0.126843 -2.17027e-18)
(0.246288 0.122656 -2.36622e-18)
(-0.00997824 0.0178975 -2.31008e-18)
(-0.0249594 0.0488312 3.31388e-18)
(-0.0341861 0.0759389 -7.90479e-19)
(-0.0382504 0.0984545 -1.37575e-18)
(-0.0371689 0.116273 2.75861e-18)
(-0.0309688 0.129524 2.02199e-19)
(-0.0196797 0.138506 -7.66224e-19)
(-0.00328722 0.143634 -8.76418e-20)
(0.0182791 0.145369 -1.74681e-18)
(0.0451642 0.144156 4.36366e-18)
(0.0775978 0.140375 2.55893e-18)
(0.115888 0.134296 1.34537e-18)
(0.161066 0.12635 -1.08928e-19)
(0.210676 0.115638 2.85302e-18)
(0.279603 0.110408 -2.48706e-19)
(-0.00993406 0.0166902 6.79438e-19)
(-0.0249545 0.0457249 -7.44226e-19)
(-0.0341415 0.0712532 6.55808e-19)
(-0.0378833 0.0924847 2.56705e-18)
(-0.0361042 0.109282 -1.60054e-18)
(-0.0287844 0.121728 -1.02392e-18)
(-0.0159342 0.130074 -1.68963e-18)
(0.00246374 0.134683 1.3011e-18)
(0.0264785 0.135975 -1.26433e-18)
(0.0562613 0.134362 -1.45274e-18)
(0.0920658 0.130201 -2.20876e-18)
(0.134233 0.123725 -1.22831e-18)
(0.184009 0.115405 4.32262e-18)
(0.238493 0.103656 -5.71923e-18)
(0.3153 0.097686 -1.34082e-19)
(-0.00990322 0.0155693 2.94153e-18)
(-0.0249545 0.0426991 -1.19807e-18)
(-0.0341105 0.0665222 -3.19976e-18)
(-0.037543 0.0862869 -8.01296e-19)
(-0.0350825 0.101858 4.21058e-18)
(-0.0266534 0.113304 -1.60577e-19)
(-0.0122324 0.120844 1.82278e-18)
(0.0082215 0.12481 -1.0001e-18)
(0.0348029 0.125589 -3.46359e-18)
(0.0677012 0.123573 7.60607e-18)
(0.107228 0.119106 -5.36034e-18)
(0.153788 0.112391 1.49545e-18)
(0.208842 0.103988 -6.22171e-18)
(0.269004 0.091438 2.19693e-18)
(0.354942 0.0854153 1.72078e-18)
(-0.00990359 0.0145569 -1.03307e-18)
(-0.0249787 0.0398156 -3.68876e-18)
(-0.0340816 0.0618496 1.73717e-18)
(-0.0371685 0.080004 3.19744e-19)
(-0.0339769 0.0941823 -3.85069e-18)
(-0.0243684 0.104463 2.30108e-18)
(-0.00826907 0.11106 1.09362e-19)
(0.0144098 0.114286 -5.96602e-19)
(0.0438191 0.114514 -3.84585e-18)
(0.0802213 0.112125 -4.32598e-19)
(0.124016 0.107465 4.32773e-18)
(0.175703 0.100724 3.89857e-19)
(0.236886 0.0925989 9.49398e-19)
(0.30375 0.0795717 2.61559e-18)
(0.399814 0.0745858 -6.19308e-18)
(-0.00994934 0.013666 -1.6141e-18)
(-0.0250372 0.0371186 1.16485e-20)
(-0.0340293 0.0573194 -2.15396e-18)
(-0.0366779 0.0737623 1.76514e-18)
(-0.0326312 0.0864222 2.21933e-18)
(-0.0216802 0.095415 -1.60911e-18)
(-0.00368292 0.100968 -2.34891e-19)
(0.0215237 0.103398 -1.21805e-18)
(0.0541789 0.103075 2.79953e-18)
(0.0946502 0.100385 6.18985e-19)
(0.143445 0.095687 -6.50825e-18)
(0.201169 0.0891845 1.81948e-18)
(0.269407 0.0817398 9.72266e-19)
(0.344148 0.0686522 -4.31405e-18)
(0.450619 0.0660996 7.84363e-19)
(-0.0100496 0.0129006 3.81623e-19)
(-0.025129 0.0346341 1.07075e-18)
(-0.0339121 0.0529944 2.14565e-18)
(-0.0359687 0.0676676 -1.73399e-18)
(-0.0308622 0.0787294 1.12671e-20)
(-0.0183057 0.086357 4.1531e-18)
(0.00192965 0.0908131 -1.07175e-19)
(0.0301069 0.0924338 2.59634e-20)
(0.0665819 0.0916029 4.82803e-18)
(0.111849 0.0887281 -2.67354e-18)
(0.16652 0.0841903 1.61794e-18)
(0.231291 0.0782368 -4.60428e-18)
(0.307449 0.071869 3.68327e-19)
(0.391288 0.0592571 -1.14773e-18)
(0.507236 0.0606103 1.76949e-18)
(-0.0102074 0.0122564 -2.61698e-19)
(-0.0252404 0.0323702 1.41194e-18)
(-0.0336723 0.0489147 -1.82569e-18)
(-0.0349188 0.0618018 4.00807e-18)
(-0.0284647 0.0712326 -3.17328e-18)
(-0.0139373 0.0774671 -2.72549e-18)
(0.00899619 0.0808219 -1.72354e-18)
(0.040721 0.0816692 -3.50022e-18)
(0.0817284 0.080422 -6.26288e-18)
(0.132642 0.0775204 7.32704e-19)
(0.194142 0.0733746 4.33214e-18)
(0.266962 0.0683163 3.25506e-18)
(0.351691 0.0633601 4.27344e-19)
(0.445723 0.0519601 -2.44343e-18)
(0.568539 0.0584922 -1.0817e-18)
(-0.0104191 0.011721 7.11573e-19)
(-0.0253442 0.0303177 1.34896e-18)
(-0.033236 0.0450984 -5.83746e-18)
(-0.0333903 0.0562215 -4.01606e-18)
(-0.0252188 0.0640342 -1.24995e-19)
(-0.0082569 0.0688969 3.04989e-18)
(0.0179462 0.0711961 -1.04436e-18)
(0.0539115 0.0713545 7.77332e-18)
(0.100268 0.0698266 2.90348e-19)
(0.157746 0.0670929 -4.06905e-18)
(0.22702 0.0635935 -3.43482e-18)
(0.308761 0.0597925 -5.08398e-18)
(0.402403 0.0564647 5.53361e-18)
(0.507326 0.047393 3.36538e-18)
(0.632271 0.0600103 -9.54008e-20)
(-0.0106739 0.0112754 -1.96866e-18)
(-0.0254001 0.0284528 -3.96756e-18)
(-0.0325153 0.0415423 2.93262e-18)
(-0.0312332 0.0509581 3.64195e-18)
(-0.0208984 0.0572079 2.24274e-18)
(-0.000949947 0.0607665 -2.09691e-18)
(0.0291878 0.0621034 5.46504e-18)
(0.0701725 0.061703 -7.32551e-18)
(0.122752 0.0600691 7.75451e-18)
(0.187705 0.0577248 4.64198e-18)
(0.265594 0.055131 -1.48428e-18)
(0.356875 0.0529208 -1.88885e-18)
(0.459503 0.0512805 -2.29188e-18)
(0.575433 0.0462083 -4.19252e-18)
(0.695677 0.0649023 4.78146e-18)
(-0.0109541 0.0108957 5.65898e-18)
(-0.0253555 0.0267395 4.70303e-18)
(-0.0314109 0.0382248 1.1114e-18)
(-0.028291 0.0460185 -5.52931e-20)
(-0.0152797 0.0507982 -7.59457e-19)
(0.00828015 0.0531628 -9.42956e-19)
(0.0430865 0.0536739 -4.32291e-18)
(0.0899168 0.052885 7.30453e-18)
(0.14959 0.0513517 -5.53548e-18)
(0.222843 0.0496341 7.26458e-20)
(0.309975 0.0481911 4.79924e-18)
(0.411032 0.0478114 3.13435e-18)
(0.522502 0.0477958 2.96064e-18)
(0.648977 0.0486079 2.26599e-20)
(0.758423 0.0697267 -3.10371e-18)
(-0.0112359 0.0105551 -3.41692e-18)
(-0.0251475 0.0251333 -3.83307e-18)
(-0.0298157 0.0351094 1.2618e-18)
(-0.0244059 0.0413888 -2.05729e-18)
(-0.00814973 0.044823 -9.32062e-19)
(0.0196999 0.0461401 3.39027e-18)
(0.059948 0.0459993 -9.19408e-19)
(0.113454 0.0450265 -7.2475e-19)
(0.18103 0.0438256 -2.58368e-18)
(0.26324 0.0429795 -5.50607e-18)
(0.359937 0.0429093 2.48984e-18)
(0.470474 0.0444735 -2.76372e-18)
(0.590157 0.0460416 -3.73852e-18)
(0.725097 0.05323 -1.53107e-18)
(0.825039 0.0665206 5.70357e-18)
(-0.0114913 0.0102261 3.919e-18)
(-0.0247051 0.0235848 -3.34118e-18)
(-0.0276174 0.0321488 -5.63351e-18)
(-0.0194232 0.037039 5.67669e-19)
(0.00068714 0.0392778 1.42882e-18)
(0.0335368 0.0397248 -9.30382e-19)
(0.0800076 0.0391377 2.72326e-18)
(0.140979 0.0382137 7.12081e-19)
(0.217149 0.0375967 -7.17707e-19)
(0.308741 0.0378699 -3.0022e-19)
(0.414951 0.0393764 -2.67614e-18)
(0.534135 0.0429199 2.21159e-19)
(0.660603 0.0461203 1.17107e-18)
(0.797914 0.0562346 -8.43924e-19)
(0.902644 0.0573975 6.29537e-18)
(-0.0116895 0.00988195 8.4273e-19)
(-0.0239519 0.022043 -1.95855e-18)
(-0.0247024 0.029291 5.52134e-18)
(-0.0131957 0.0329283 4.3669e-18)
(0.0114048 0.0341425 -4.41898e-18)
(0.0499748 0.033922 -2.61587e-19)
(0.103426 0.0331209 -2.06722e-18)
(0.172572 0.0325016 -6.72408e-19)
(0.257859 0.032734 5.63871e-18)
(0.358976 0.0343728 2.72543e-18)
(0.474247 0.0376412 3.96273e-18)
(0.600771 0.0431569 -2.92259e-18)
(0.73193 0.0480898 1.73608e-18)
(0.867999 0.0594025 -9.49925e-19)
(0.973787 0.0574281 -8.03806e-18)
(-0.0117972 0.00949804 6.78488e-19)
(-0.0228093 0.0204605 1.13204e-18)
(-0.0209583 0.026484 -3.05426e-18)
(-0.00558582 0.0290124 -3.55566e-18)
(0.0241535 0.0293891 -3.31809e-18)
(0.0691533 0.0287252 3.12772e-19)
(0.130289 0.0279647 2.52369e-18)
(0.208202 0.0279251 -4.72398e-18)
(0.302923 0.0292809 -2.68824e-18)
(0.413398 0.0325223 1.50404e-18)
(0.536876 0.0377092 -3.81929e-18)
(0.66905 0.0451678 2.81997e-19)
(0.802422 0.0518742 2.26381e-18)
(0.93457 0.0637757 -2.75532e-18)
(1.03707 0.0615296 2.16089e-18)
(-0.0117807 0.00905365 -1.52717e-18)
(-0.0211982 0.0187965 3.7382e-18)
(-0.016276 0.0236813 2.52384e-18)
(0.00353296 0.0252505 1.70979e-18)
(0.0390594 0.0249902 2.83775e-18)
(0.0911686 0.0241256 -2.95044e-19)
(0.160618 0.0236801 -2.39646e-18)
(0.247741 0.0245094 4.62846e-19)
(0.351973 0.0272645 3.43741e-18)
(0.471312 0.032326 -6.17878e-18)
(0.601764 0.0395425 -3.0679e-18)
(0.737602 0.0488742 4.32249e-20)
(0.870603 0.0572472 -7.41309e-19)
(0.996515 0.0693701 3.61514e-18)
(1.09321 0.067695 -2.86786e-18)
(-0.0116064 0.00853328 1.70659e-18)
(-0.0190406 0.0170195 1.25386e-18)
(-0.0105511 0.0208468 -1.27784e-19)
(0.0142757 0.0216113 -1.10648e-18)
(0.056226 0.0209275 2.56242e-19)
(0.116077 0.0201221 -3.4298e-18)
(0.194366 0.0202828 8.3346e-19)
(0.290969 0.02228 -1.77039e-18)
(0.404531 0.0267029 -2.14193e-18)
(0.531911 0.0337688 4.35171e-18)
(0.667775 0.0430633 6.38648e-18)
(0.805097 0.0541379 2.88804e-18)
(0.935216 0.0639366 2.48302e-18)
(1.053 0.0759995 -2.9715e-18)
(1.14188 0.0750724 -2.83055e-18)
(-0.0112423 0.00792706 1.45851e-18)
(-0.0162611 0.0151094 -2.8575e-18)
(-0.00368457 0.0179582 -1.41746e-18)
(0.0267461 0.018079 -3.24831e-18)
(0.0757352 0.0171982 1.4662e-18)
(0.143899 0.0167285 3.63596e-18)
(0.231434 0.0178008 -4.45441e-18)
(0.337588 0.0212677 1.61374e-18)
(0.460025 0.0276084 3.35633e-18)
(0.594308 0.0368141 1.07013e-18)
(0.733759 0.0481583 -4.39875e-18)
(0.870312 0.0607757 -1.61802e-18)
(0.995267 0.071667 2.3488e-20)
(1.10348 0.0834195 1.59765e-18)
(1.18322 0.0830789 5.64854e-18)
(-0.0106584 0.00723067 -2.32227e-18)
(-0.0127876 0.0130585 -2.5096e-18)
(0.00441651 0.01501 1.43878e-18)
(0.0410364 0.0146572 5.76344e-18)
(0.0976481 0.0138203 -3.79938e-18)
(0.174619 0.0139786 1.10893e-18)
(0.271666 0.016278 1.80006e-18)
(0.387228 0.0215107 -1.13549e-19)
(0.517803 0.0299857 4.12648e-19)
(0.65757 0.0414028 2.16773e-18)
(0.79861 0.0546839 -2.05052e-18)
(0.932193 0.068575 -3.83847e-18)
(1.05004 0.0801751 -2.9587e-18)
(1.14771 0.0913788 2.41354e-18)
(1.21761 0.0913392 6.01518e-19)
(-0.00982644 0.00644513 -5.89539e-19)
(-0.00855201 0.0108719 5.09114e-18)
(0.0138385 0.0120145 1.11836e-18)
(0.0572271 0.0113709 1.5692e-18)
(0.122004 0.0108351 1.42803e-18)
(0.208184 0.0119281 1.38535e-18)
(0.314849 0.0157742 -5.45124e-19)
(0.439445 0.0230509 1.04593e-18)
(0.577152 0.0338277 5.99252e-19)
(0.720751 0.0474504 2.76497e-18)
(0.861313 0.0624716 1.62589e-19)
(0.989899 0.077311 2.67553e-18)
(1.09912 0.089221 -1.82275e-18)
(1.18573 0.0996537 -1.53112e-18)
(1.24564 0.0996118 9.18104e-19)
(-0.00871995 0.00557624 2.19475e-18)
(-0.00349033 0.008567 -2.06578e-18)
(0.0246605 0.0090026 2.7543e-19)
(0.0753853 0.00826756 -3.18823e-18)
(0.148819 0.00830698 -2.69816e-18)
(0.244504 0.0106527 4.78128e-18)
(0.360718 0.0163609 1.48781e-18)
(0.493736 0.0259278 -2.24191e-18)
(0.637318 0.0391094 5.77361e-19)
(0.782936 0.0548471 -7.4454e-18)
(0.920987 0.0713365 2.5747e-18)
(1.04282 0.0867619 -2.85633e-18)
(1.14235 0.0985975 2.99931e-18)
(1.21781 0.108064 -4.50063e-19)
(1.26799 0.107753 -1.44028e-18)
(-0.00731415 0.00463394 -3.45257e-18)
(0.00245677 0.00617278 -3.74527e-18)
(0.0369529 0.00602229 -3.85659e-18)
(0.0955626 0.00541511 -2.97681e-18)
(0.178082 0.00632116 1.98853e-18)
(0.283443 0.0102446 -8.29977e-18)
(0.408947 0.0181147 7.87584e-19)
(0.549539 0.030171 7.75465e-19)
(0.697525 0.0457831 4.4424e-19)
(0.843272 0.0634601 3.48263e-18)
(0.97692 0.0810863 -2.75035e-18)
(1.09059 0.0967221 6.19544e-18)
(1.17979 0.108135 -1.21625e-18)
(1.24436 0.116476 -2.07978e-18)
(1.28538 0.115686 1.12118e-18)
(-0.00558559 0.00363175 6.18997e-19)
(0.00934378 0.00372841 3.06941e-18)
(0.0507764 0.00313714 4.48598e-18)
(0.117792 0.00289981 6.85486e-19)
(0.209749 0.00497972 3.64653e-18)
(0.324819 0.0108054 2.04824e-18)
(0.459153 0.0211095 6.43271e-19)
(0.606247 0.0357925 -3.59228e-18)
(0.757012 0.0537761 -2.4836e-19)
(0.901006 0.0731392 1.74612e-18)
(1.02858 0.0915319 6.70475e-18)
(1.13305 0.107011 -8.62654e-19)
(1.21168 0.117702 2.02897e-18)
(1.26591 0.124801 1.7932e-18)
(1.29855 0.123385 2.61391e-18)
(-0.00351197 0.00258613 1.15961e-18)
(0.0172197 0.00128191 -4.14804e-18)
(0.0661795 0.00042395 -8.64637e-19)
(0.142083 0.000822444 6.1186e-24)
(0.24374 0.00439596 -6.88626e-18)
(0.368399 0.012439 1.82403e-18)
(0.510899 0.0254078 -9.29867e-19)
(0.663228 0.0427815 1.15189e-18)
(0.815053 0.0629918 4.10747e-18)
(0.955511 0.0837243 -1.53282e-18)
(1.07563 0.102496 -5.02312e-18)
(1.17022 0.117477 -6.43643e-19)
(1.23839 0.127205 -6.87749e-19)
(1.28302 0.132986 -1.4877e-18)
(1.30818 0.130855 -2.84741e-18)
(-0.00107221 0.00151613 2.36197e-19)
(0.0261272 -0.00111121 1.11067e-18)
(0.0831964 -0.00202989 -2.97012e-18)
(0.168422 -0.000705847 1.22154e-18)
(0.279934 0.00468849 2.87285e-18)
(0.413898 0.0152444 -1.23078e-18)
(0.563705 0.0310543 -2.61222e-19)
(0.719845 0.0511014 -3.02602e-18)
(0.870993 0.0733142 6.54095e-19)
(1.0063 0.095054 -2.43751e-18)
(1.11788 0.113821 2.36614e-18)
(1.2023 0.128003 -1.86276e-18)
(1.26039 0.136583 3.08611e-18)
(1.29628 0.141009 -1.07027e-18)
(1.31489 0.138122 -2.01652e-18)
(0.00175357 0.000442958 1.29108e-18)
(0.0361014 -0.0033893 8.67442e-19)
(0.101844 -0.00412906 7.79755e-19)
(0.196763 -0.0015679 1.69229e-19)
(0.318169 0.0059751 1.35438e-18)
(0.460982 0.0193085 -3.24646e-18)
(0.617056 0.0380707 1.81055e-18)
(0.775479 0.060691 4.39957e-18)
(0.924266 0.0846138 -4.87454e-19)
(1.05304 0.106974 3.56223e-18)
(1.15534 0.125372 2.12671e-18)
(1.22956 0.138501 3.86777e-19)
(1.27817 0.145803 6.01997e-19)
(1.30623 0.14887 1.09557e-18)
(1.3192 0.145224 2.39018e-18)
(0.00498349 -0.00061007 2.001e-18)
(0.0471687 -0.0054856 2.98801e-18)
(0.122122 -0.00577294 -2.73463e-18)
(0.227029 -0.00164478 2.48147e-18)
(0.358237 0.00836719 -5.79161e-18)
(0.509275 0.0247006 1.37161e-18)
(0.670422 0.0464538 -5.16939e-19)
(0.829551 0.0714672 -2.74425e-18)
(0.974412 0.0967549 -5.09081e-18)
(1.09552 0.119341 -2.008e-18)
(1.18811 0.13704 -4.97753e-18)
(1.25238 0.148912 3.02157e-18)
(1.29222 0.154853 -3.83123e-18)
(1.3134 0.156586 2.39683e-18)
(1.32158 0.152201 1.49456e-18)
(0.00863334 -0.00161777 -4.74727e-18)
(0.0593455 -0.00732953 1.97126e-19)
(0.144007 -0.00685806 3.38115e-19)
(0.259111 -0.000819778 6.91123e-19)
(0.39989 0.0119649 3.53932e-19)
(0.558367 0.031469 2.77929e-18)
(0.723278 0.0561749 1.57416e-18)
(0.881546 0.08333 -4.53297e-19)
(1.02108 0.109602 2.28298e-18)
(1.13367 0.13203 1.5061e-18)
(1.21639 0.14874 6.88113e-19)
(1.27116 0.1592 -1.67944e-18)
(1.30303 0.163739 5.29293e-18)
(1.31823 0.16418 8.67257e-19)
(1.32242 0.159094 -1.66729e-18)
(0.0127162 -0.00255323 4.41475e-18)
(0.0726362 -0.00884752 -3.31738e-18)
(0.167453 -0.0072804 1.06915e-18)
(0.292863 0.0010181 -1.08877e-19)
(0.442842 0.0168531 5.64943e-18)
(0.607826 0.0396385 -4.83526e-19)
(0.775117 0.0671825 -1.88331e-18)
(0.931021 0.0961686 4.76555e-18)
(1.06404 0.123027 4.51118e-19)
(1.16754 0.144935 1.9596e-18)
(1.24047 0.16041 -3.93667e-18)
(1.28632 0.169349 1.11604e-19)
(1.31106 0.172477 -1.60608e-18)
(1.32112 0.171682 -2.63756e-19)
(1.32201 0.165941 -9.33159e-19)
(0.0172418 -0.0033879 -1.16635e-18)
(0.0870328 -0.00996407 3.53949e-18)
(0.192391 -0.00693754 2.16434e-18)
(0.328109 0.003971 1.74512e-18)
(0.486775 0.0230989 -9.00342e-19)
(0.657211 0.0492103 -3.92257e-19)
(0.825467 0.0794059 2.56484e-18)
(0.977618 0.109867 -2.0098e-18)
(1.10316 0.13691 6.40882e-19)
(1.19724 0.157969 -3.32518e-18)
(1.26067 0.172009 2.27861e-19)
(1.29828 0.179358 4.85205e-19)
(1.31671 0.18109 -6.61676e-19)
(1.32242 0.179121 -3.83889e-18)
(1.3206 0.172774 1.50986e-18)
(0.0222154 -0.00409179 -2.12652e-18)
(0.102513 -0.0106028 -2.79405e-18)
(0.218728 -0.00573073 1.53378e-18)
(0.364641 0.00812958 -1.87447e-19)
(0.531349 0.0307494 -2.39211e-18)
(0.706087 0.0601629 -1.09223e-19)
(0.873909 0.0927593 -1.787e-18)
(1.02107 0.124307 -3.61293e-18)
(1.1384 0.151145 -1.46958e-18)
(1.22296 0.171063 1.37526e-18)
(1.27731 0.183513 1.24578e-18)
(1.30743 0.189234 -1.16293e-19)
(1.32035 0.189605 -1.85148e-18)
(1.3224 0.186526 3.218e-18)
(1.31839 0.179619 9.33504e-19)
(0.0276377 -0.00463374 2.12354e-18)
(0.11904 -0.0106874 1.57094e-20)
(0.246346 -0.00356678 -3.72508e-18)
(0.402224 0.0135708 -7.22246e-20)
(0.576206 0.0398309 5.91501e-19)
(0.754034 0.0724544 1.06671e-18)
(0.92008 0.107146 -1.9626e-18)
(1.06118 0.139378 1.00785e-18)
(1.16979 0.165641 -4.77202e-20)
(1.24493 0.184166 1.12361e-18)
(1.29076 0.194908 -9.92948e-19)
(1.31412 0.198995 -2.71694e-18)
(1.32228 0.198049 -1.328e-19)
(1.32129 0.193921 -1.55716e-18)
(1.31551 0.186495 -1.25339e-18)
(0.0335041 -0.0049818 8.80403e-19)
(0.13656 -0.0101432 -1.89314e-18)
(0.275104 -0.00036004 1.90784e-18)
(0.440601 0.0203562 -6.22465e-19)
(0.620985 0.0503492 -3.3874e-19)
(0.800663 0.0860254 -9.73984e-19)
(0.96368 0.122465 1.55083e-18)
(1.09784 0.154973 1.01686e-18)
(1.19745 0.180318 -6.08717e-19)
(1.26342 0.197239 -1.71637e-18)
(1.30133 0.206194 -6.09128e-19)
(1.31869 0.208659 2.79707e-18)
(1.32278 0.206445 1.6639e-18)
(1.31927 0.201328 1.5716e-18)
(1.31208 0.193416 -4.53764e-19)
(0.0398043 -0.00510364 -5.47289e-19)
(0.155007 -0.00889811 2.00392e-19)
(0.30484 0.00396589 -8.0244e-19)
(0.479497 0.0285306 -2.14177e-20)
(0.665325 0.06229 -6.36489e-19)
(0.845618 0.100802 -9.69971e-19)
(1.00447 0.138609 3.2897e-19)
(1.13101 0.170993 -2.0441e-18)
(1.2215 0.195112 1.79813e-18)
(1.27869 0.210257 2.25233e-18)
(1.30934 0.217375 2.68722e-19)
(1.32141 0.218245 -2.43733e-18)
(1.32204 0.214816 -2.28253e-18)
(1.31649 0.208761 -1.64991e-18)
(1.30817 0.200389 6.1489e-19)
(0.0465221 -0.00496708 -1.8102e-18)
(0.174297 -0.00688414 5.1313e-19)
(0.335373 0.00947645 -3.91183e-19)
(0.518625 0.0381212 -8.24909e-21)
(0.708879 0.0756205 -1.71765e-19)
(0.888587 0.116698 -3.82254e-19)
(1.04229 0.155475 6.90136e-19)
(1.1607 0.18735 -4.15246e-19)
(1.24213 0.209969 -5.11462e-19)
(1.29102 0.223204 -1.0032e-18)
(1.31509 0.228459 -8.85117e-19)
(1.32254 0.227773 -4.03378e-19)
(1.32026 0.223179 1.42235e-18)
(1.31304 0.216231 -5.47728e-20)
(1.30383 0.207417 1.01519e-18)
(0.0536351 -0.00454062 7.50228e-19)
(0.194332 -0.00403882 1.33272e-18)
(0.366505 0.0162247 2.29639e-19)
(0.557693 0.0491374 8.63975e-19)
(0.751318 0.0902908 1.9025e-18)
(0.929304 0.13362 7.03811e-19)
(1.07701 0.172959 2.63427e-18)
(1.18698 0.203964 1.37738e-18)
(1.25954 0.224846 8.76901e-19)
(1.30067 0.236068 1.97192e-18)
(1.31883 0.239457 5.9699e-19)
(1.32228 0.237259 1.0705e-18)
(1.31758 0.231547 5.23463e-19)
(1.30903 0.223742 2.26907e-19)
(1.29911 0.214497 7.09821e-19)
(0.0611147 -0.00379408 1.06447e-18)
(0.215001 -0.000306498 -1.89384e-18)
(0.398027 0.0242499 -3.85933e-19)
(0.596408 0.0615707 8.98018e-19)
(0.792336 0.106236 -1.92938e-18)
(0.967548 0.15147 -7.95173e-19)
(1.10857 0.190964 -1.62507e-18)
(1.20993 0.220763 -4.99565e-20)
(1.27394 0.239708 -4.26287e-19)
(1.30789 0.248844 -1.66518e-18)
(1.32078 0.250379 1.25078e-18)
(1.32081 0.246715 9.50834e-20)
(1.31411 0.239926 -5.16394e-20)
(1.30449 0.231296 3.9676e-19)
(1.29404 0.221624 -8.70024e-19)
(0.0689265 -0.00269919 -6.86919e-20)
(0.23618 0.00436036 8.3094e-19)
(0.429718 0.0335771 2.36431e-19)
(0.634485 0.0753955 -1.26842e-18)
(0.831656 0.12338 8.56776e-19)
(1.00314 0.170144 2.79831e-19)
(1.13695 0.209394 -7.42134e-19)
(1.22969 0.237684 -3.53916e-19)
(1.28553 0.254526 -1.05086e-18)
(1.3129 0.261529 1.77409e-19)
(1.32115 0.261233 -1.2109e-18)
(1.31827 0.25615 -8.33206e-19)
(1.30993 0.24832 2.14068e-19)
(1.29949 0.238889 2.09297e-19)
(1.28861 0.228789 -3.60401e-19)
(0.0770304 -0.00123015 -4.01378e-19)
(0.257736 0.01 -2.60202e-19)
(0.461353 0.0442157 6.05014e-19)
(0.671647 0.0905696 1.09693e-18)
(0.869034 0.141633 2.18727e-19)
(1.03596 0.189538 -6.06168e-19)
(1.16216 0.228162 7.63331e-19)
(1.24639 0.25467 6.69039e-19)
(1.29452 0.269275 3.42413e-19)
(1.31592 0.27412 6.15453e-20)
(1.32011 0.272024 3.88066e-19)
(1.31478 0.265569 1.66315e-19)
(1.30512 0.256727 -1.08417e-19)
(1.29404 0.246513 -1.37407e-19)
(1.28285 0.235978 1.13756e-19)