/*--------------------------------*- C++ -*----------------------------------*\
  =========                 |
  \\      /  F ield         | OpenFOAM: The Open Source CFD Toolbox
   \\    /   O peration     | Website:  https://openfoam.org
    \\  /    A nd           | Version:  7
     \\/     M anipulation  |
\*---------------------------------------------------------------------------*/
FoamFile
{
    version     2.0;
    format      ascii;
    class       volScalarField;
    location    "18.0015";
    object      p;
}
// * * * * * * * * * * * * * * * * * * * * * * * * * * * * * * * * * * * * * //

dimensions      [0 2 -2 0 0 0 0];

internalField   nonuniform List<scalar> 
18750
(
-0.0381986
-0.0488739
-0.0675814
-0.0949749
-0.129324
-0.169852
-0.215552
-0.26566
-0.319417
-0.376224
-0.435491
-0.496561
-0.558541
-0.620307
-0.680677
-0.0423925
-0.0527864
-0.0712404
-0.0984173
-0.13259
-0.172974
-0.218558
-0.268568
-0.322235
-0.378955
-0.438148
-0.499169
-0.561105
-0.622765
-0.682917
-0.0505943
-0.0604413
-0.0783967
-0.105146
-0.138965
-0.179062
-0.22441
-0.274216
-0.32769
-0.384221
-0.443245
-0.504138
-0.565959
-0.627404
-0.68716
-0.0624657
-0.0715294
-0.0887571
-0.11488
-0.148177
-0.187839
-0.232822
-0.282305
-0.335469
-0.391686
-0.450409
-0.511047
-0.572641
-0.633765
-0.692996
-0.0775259
-0.0856079
-0.101903
-0.12722
-0.159836
-0.19892
-0.243404
-0.292433
-0.345153
-0.400912
-0.459173
-0.519385
-0.580599
-0.641295
-0.699922
-0.0951843
-0.102116
-0.11731
-0.14168
-0.173476
-0.211844
-0.255692
-0.304131
-0.356265
-0.411409
-0.46903
-0.528619
-0.589275
-0.649435
-0.707428
-0.114789
-0.120391
-0.134385
-0.157709
-0.188574
-0.226106
-0.269188
-0.316901
-0.368307
-0.422683
-0.479486
-0.538252
-0.598162
-0.657681
-0.715042
-0.13561
-0.139733
-0.152499
-0.174731
-0.204587
-0.241182
-0.283385
-0.330245
-0.380792
-0.43426
-0.490087
-0.547847
-0.60683
-0.665605
-0.722358
-0.156865
-0.159444
-0.171034
-0.192174
-0.220975
-0.256563
-0.297792
-0.343692
-0.393265
-0.445709
-0.500431
-0.557034
-0.614928
-0.672859
-0.729034
-0.177771
-0.178845
-0.189402
-0.209489
-0.237224
-0.271766
-0.311956
-0.356811
-0.405319
-0.456647
-0.510174
-0.56551
-0.622182
-0.679164
-0.734788
-0.19759
-0.19732
-0.207068
-0.226171
-0.252866
-0.286355
-0.325471
-0.369222
-0.416596
-0.466745
-0.519021
-0.573027
-0.628379
-0.684303
-0.73938
-0.215648
-0.214358
-0.223558
-0.241769
-0.267486
-0.29995
-0.337983
-0.3806
-0.426797
-0.475727
-0.526724
-0.579379
-0.633357
-0.688107
-0.742596
-0.231384
-0.229618
-0.238455
-0.255893
-0.280737
-0.312232
-0.3492
-0.390676
-0.435675
-0.483363
-0.533075
-0.584392
-0.636992
-0.690462
-0.744227
-0.244385
-0.242862
-0.251391
-0.268237
-0.29234
-0.322943
-0.358882
-0.399231
-0.443031
-0.489472
-0.537901
-0.587907
-0.639175
-0.691313
-0.74405
-0.254649
-0.253712
-0.262087
-0.278582
-0.302093
-0.331886
-0.366845
-0.406097
-0.448711
-0.493911
-0.541062
-0.58978
-0.639789
-0.690663
-0.741913
-0.262215
-0.26197
-0.270503
-0.2868
-0.309859
-0.338923
-0.372957
-0.411149
-0.452595
-0.496571
-0.542453
-0.58989
-0.638678
-0.688453
-0.737974
-0.267227
-0.267714
-0.276631
-0.29291
-0.315579
-0.34397
-0.377139
-0.414301
-0.454598
-0.497364
-0.541997
-0.588156
-0.635721
-0.684433
-0.732547
-0.270027
-0.271226
-0.280551
-0.296892
-0.319253
-0.347027
-0.379366
-0.415507
-0.454667
-0.496223
-0.539634
-0.584522
-0.630834
-0.678592
-0.725351
-0.271154
-0.272896
-0.282435
-0.298792
-0.320893
-0.348096
-0.379617
-0.414747
-0.452769
-0.493112
-0.535327
-0.578963
-0.623933
-0.670895
-0.716172
-0.271251
-0.273134
-0.282494
-0.298735
-0.320571
-0.34721
-0.377907
-0.41202
-0.448892
-0.488001
-0.529019
-0.57148
-0.614949
-0.661274
-0.704978
-0.270909
-0.272265
-0.280941
-0.296892
-0.318409
-0.344447
-0.374281
-0.407344
-0.443043
-0.480867
-0.520623
-0.562072
-0.603846
-0.649659
-0.691796
-0.270438
-0.270413
-0.27798
-0.293482
-0.314564
-0.339916
-0.368821
-0.40076
-0.435238
-0.471723
-0.510032
-0.550713
-0.590611
-0.636002
-0.676606
-0.269707
-0.267456
-0.273862
-0.288758
-0.309212
-0.333753
-0.361638
-0.392335
-0.425483
-0.460632
-0.497156
-0.53733
-0.575241
-0.620293
-0.659421
-0.268241
-0.26329
-0.268967
-0.283004
-0.302544
-0.326116
-0.35287
-0.382172
-0.413762
-0.447665
-0.481975
-0.521799
-0.557703
-0.602456
-0.640443
-0.265661
-0.258391
-0.263795
-0.276504
-0.29479
-0.31721
-0.342678
-0.370437
-0.40006
-0.432843
-0.464571
-0.503966
-0.538005
-0.582191
-0.619769
-0.261927
-0.253963
-0.258767
-0.269557
-0.286263
-0.307317
-0.331246
-0.357341
-0.384434
-0.41608
-0.445111
-0.483678
-0.516405
-0.559309
-0.597184
-0.25761
-0.250919
-0.254021
-0.262545
-0.277406
-0.296823
-0.318783
-0.343091
-0.367097
-0.397228
-0.42378
-0.460647
-0.49329
-0.534045
-0.572583
-0.253446
-0.249043
-0.249601
-0.256008
-0.268759
-0.286214
-0.3056
-0.327828
-0.348431
-0.376171
-0.400931
-0.434566
-0.468533
-0.506771
-0.546126
-0.250032
-0.247485
-0.245929
-0.250615
-0.260895
-0.276041
-0.292164
-0.311693
-0.328901
-0.352909
-0.376961
-0.405717
-0.441736
-0.477363
-0.519777
-0.24748
-0.245825
-0.243648
-0.246749
-0.254325
-0.266856
-0.279153
-0.294905
-0.309029
-0.327705
-0.352098
-0.374586
-0.413829
-0.443908
-0.493432
-0.245636
-0.244234
-0.242641
-0.244317
-0.249449
-0.259124
-0.267368
-0.278019
-0.289233
-0.301175
-0.326335
-0.342923
-0.385023
-0.409975
-0.46229
-0.244237
-0.243006
-0.242137
-0.243059
-0.246476
-0.253194
-0.257477
-0.261909
-0.269916
-0.274768
-0.299429
-0.313035
-0.355566
-0.380425
-0.432671
-0.24309
-0.242094
-0.241781
-0.242708
-0.245254
-0.249167
-0.249878
-0.247618
-0.25133
-0.250684
-0.270984
-0.286369
-0.325175
-0.355004
-0.408967
-0.242009
-0.241328
-0.241559
-0.242883
-0.245158
-0.246799
-0.244305
-0.236465
-0.233857
-0.230355
-0.242759
-0.262899
-0.296126
-0.333878
-0.385984
-0.240827
-0.240533
-0.241352
-0.243192
-0.245338
-0.245489
-0.240147
-0.228634
-0.219166
-0.213644
-0.221038
-0.242632
-0.274779
-0.318646
-0.363138
-0.239407
-0.239545
-0.24091
-0.243143
-0.245145
-0.244427
-0.236834
-0.223247
-0.208228
-0.200504
-0.206255
-0.228127
-0.260117
-0.305218
-0.345315
-0.237661
-0.238226
-0.239988
-0.242453
-0.244197
-0.242857
-0.233777
-0.219035
-0.200744
-0.191235
-0.19661
-0.219856
-0.25065
-0.292674
-0.331744
-0.235572
-0.236501
-0.238439
-0.240903
-0.242244
-0.24027
-0.230413
-0.214929
-0.195864
-0.186043
-0.191629
-0.214793
-0.244886
-0.282187
-0.319642
-0.233226
-0.234404
-0.236268
-0.238463
-0.239224
-0.236383
-0.226434
-0.210584
-0.192833
-0.184421
-0.19089
-0.212313
-0.24085
-0.273667
-0.308541
-0.230831
-0.232113
-0.233695
-0.235373
-0.235307
-0.23175
-0.222441
-0.207519
-0.191319
-0.185752
-0.193004
-0.211923
-0.237659
-0.266683
-0.298353
-0.22869
-0.229963
-0.231164
-0.232202
-0.231404
-0.227508
-0.219859
-0.207137
-0.192173
-0.189059
-0.196409
-0.212672
-0.235178
-0.260714
-0.288948
-0.227105
-0.228312
-0.22918
-0.229785
-0.228517
-0.224491
-0.219063
-0.207611
-0.195608
-0.193191
-0.199986
-0.213902
-0.233203
-0.25537
-0.280339
-0.226257
-0.227396
-0.228063
-0.22842
-0.226973
-0.222923
-0.218528
-0.208736
-0.199688
-0.197627
-0.203512
-0.215185
-0.231495
-0.250513
-0.272347
-0.226244
-0.227255
-0.227828
-0.228081
-0.226616
-0.222831
-0.216
-0.210317
-0.203596
-0.202019
-0.206754
-0.216265
-0.229879
-0.245945
-0.264897
-0.226819
-0.227758
-0.228302
-0.228535
-0.227171
-0.22375
-0.214733
-0.211456
-0.206954
-0.205887
-0.209506
-0.217034
-0.228185
-0.241571
-0.257894
-0.227876
-0.228727
-0.229244
-0.229514
-0.22878
-0.223166
-0.216408
-0.212669
-0.209531
-0.208942
-0.211602
-0.217378
-0.226334
-0.237304
-0.251234
-0.22923
-0.229983
-0.23044
-0.230871
-0.23154
-0.223074
-0.218586
-0.214237
-0.211483
-0.211067
-0.212916
-0.217248
-0.22426
-0.233067
-0.244856
-0.230732
-0.23139
-0.231712
-0.232906
-0.232539
-0.225653
-0.220476
-0.215742
-0.212908
-0.212329
-0.213461
-0.216591
-0.221909
-0.228831
-0.238684
-0.23228
-0.23284
-0.23287
-0.235861
-0.231204
-0.228361
-0.222346
-0.217054
-0.213863
-0.212855
-0.213278
-0.215403
-0.219266
-0.224548
-0.232658
-0.233823
-0.234184
-0.234134
-0.238272
-0.231517
-0.229547
-0.223629
-0.218009
-0.21435
-0.212754
-0.212473
-0.213709
-0.216304
-0.220194
-0.226731
-0.235362
-0.235271
-0.236248
-0.23757
-0.234518
-0.230431
-0.224308
-0.218505
-0.21438
-0.212133
-0.211132
-0.211545
-0.213038
-0.215739
-0.220844
-0.236924
-0.23605
-0.239224
-0.234269
-0.236258
-0.231195
-0.22456
-0.218517
-0.213948
-0.211044
-0.209337
-0.208972
-0.209476
-0.211157
-0.214962
-0.238432
-0.236896
-0.241614
-0.232625
-0.235676
-0.231203
-0.224453
-0.218129
-0.213095
-0.209549
-0.20715
-0.206031
-0.205649
-0.20644
-0.209043
-0.239817
-0.238548
-0.241697
-0.235548
-0.23517
-0.230659
-0.223944
-0.217357
-0.211852
-0.207679
-0.204613
-0.202771
-0.201579
-0.201572
-0.203064
-0.241145
-0.241529
-0.239272
-0.239841
-0.235861
-0.229995
-0.223058
-0.216215
-0.210254
-0.205475
-0.201763
-0.19922
-0.197288
-0.196553
-0.197011
-0.242493
-0.245588
-0.235445
-0.241456
-0.236583
-0.229462
-0.22198
-0.214762
-0.208329
-0.202957
-0.198618
-0.195404
-0.192789
-0.191377
-0.190885
-0.244101
-0.249331
-0.234487
-0.240437
-0.236474
-0.22889
-0.220796
-0.213069
-0.206112
-0.200151
-0.195201
-0.191338
-0.188087
-0.186046
-0.184694
-0.246364
-0.251508
-0.238721
-0.239686
-0.235674
-0.228045
-0.219474
-0.211174
-0.203633
-0.197068
-0.191516
-0.18703
-0.183187
-0.180561
-0.178449
-0.249679
-0.251654
-0.246262
-0.241129
-0.235003
-0.226922
-0.217917
-0.209051
-0.200901
-0.193721
-0.187572
-0.182484
-0.178088
-0.174923
-0.172158
-0.254453
-0.250473
-0.253022
-0.244317
-0.235105
-0.225748
-0.216113
-0.206666
-0.197901
-0.190103
-0.183365
-0.177699
-0.172788
-0.169134
-0.165816
-0.261182
-0.249435
-0.257567
-0.247812
-0.235905
-0.224729
-0.214112
-0.203989
-0.194604
-0.186202
-0.17889
-0.17267
-0.167282
-0.163188
-0.159405
-0.269616
-0.252239
-0.260268
-0.250692
-0.236906
-0.223845
-0.21197
-0.201024
-0.190989
-0.181994
-0.174131
-0.167389
-0.161563
-0.157075
-0.152893
-0.279231
-0.26027
-0.262632
-0.252597
-0.237575
-0.222884
-0.209662
-0.197774
-0.187041
-0.177461
-0.169072
-0.161843
-0.155617
-0.150775
-0.146241
-0.288913
-0.272219
-0.265951
-0.253669
-0.237562
-0.221569
-0.207095
-0.194222
-0.182753
-0.172588
-0.163694
-0.156015
-0.149427
-0.144267
-0.139423
-0.297138
-0.2845
-0.270315
-0.254269
-0.236765
-0.219694
-0.204142
-0.190325
-0.178111
-0.167361
-0.157984
-0.149885
-0.142968
-0.137529
-0.132427
-0.30282
-0.294064
-0.274539
-0.254565
-0.235271
-0.217168
-0.200697
-0.186026
-0.173095
-0.161772
-0.151927
-0.143433
-0.136217
-0.130539
-0.125242
-0.305375
-0.299908
-0.277446
-0.254379
-0.233195
-0.214007
-0.196703
-0.181273
-0.167676
-0.155804
-0.14551
-0.136642
-0.129148
-0.123266
-0.117841
-0.305751
-0.30246
-0.278662
-0.25347
-0.230573
-0.210259
-0.192148
-0.17603
-0.161826
-0.149442
-0.138723
-0.129502
-0.121744
-0.115678
-0.110166
-0.305204
-0.302734
-0.278286
-0.25169
-0.227369
-0.205953
-0.187036
-0.170274
-0.155519
-0.142666
-0.131553
-0.122005
-0.114003
-0.107758
-0.102113
-0.304664
-0.301699
-0.276601
-0.249005
-0.223528
-0.201082
-0.181372
-0.163995
-0.148736
-0.135459
-0.123987
-0.114149
-0.105939
-0.0995219
-0.0935578
-0.30459
-0.299986
-0.273894
-0.245444
-0.218998
-0.195619
-0.175146
-0.157181
-0.141458
-0.127801
-0.116012
-0.105926
-0.0975669
-0.091027
-0.0844058
-0.305033
-0.297909
-0.270381
-0.241056
-0.213746
-0.189525
-0.168336
-0.149817
-0.133671
-0.119679
-0.107618
-0.0973359
-0.0888961
-0.0823287
-0.0746967
-0.305769
-0.295583
-0.266194
-0.235877
-0.207743
-0.182756
-0.16091
-0.141882
-0.125361
-0.111088
-0.0988077
-0.0883893
-0.0799341
-0.0733856
-0.0646867
-0.306405
-0.292999
-0.261383
-0.229918
-0.200957
-0.175266
-0.15283
-0.133354
-0.116519
-0.102028
-0.0895942
-0.0791157
-0.0707114
-0.0640138
-0.0547333
-0.306498
-0.289995
-0.255907
-0.223152
-0.193348
-0.16701
-0.14406
-0.124217
-0.107146
-0.092507
-0.079995
-0.0695475
-0.0612585
-0.0541259
-0.0448778
-0.305691
-0.286187
-0.249642
-0.215524
-0.184874
-0.157948
-0.134579
-0.114472
-0.097252
-0.0825357
-0.0700247
-0.0596821
-0.0514684
-0.0438768
-0.0350272
-0.303644
-0.28122
-0.242418
-0.206956
-0.175491
-0.14806
-0.124387
-0.104133
-0.0868452
-0.0721118
-0.0596718
-0.0494876
-0.0412923
-0.0334047
-0.0251
-0.300077
-0.274846
-0.23407
-0.197366
-0.165161
-0.137348
-0.113509
-0.0932118
-0.0759005
-0.061222
-0.0489336
-0.0389388
-0.0307431
-0.022774
-0.0150577
-0.294765
-0.266891
-0.224452
-0.186685
-0.153865
-0.125845
-0.101974
-0.0816525
-0.0644056
-0.0498713
-0.0378078
-0.0280304
-0.0198711
-0.0119872
-0.00489373
-0.287552
-0.257252
-0.213452
-0.174871
-0.14163
-0.113581
-0.0896932
-0.0694511
-0.0523662
-0.0380687
-0.0262975
-0.0167729
-0.00871924
-0.0010293
0.00538941
-0.278343
-0.245895
-0.200977
-0.161913
-0.128525
-0.100437
-0.0766625
-0.0566151
-0.039795
-0.0258263
-0.0144135
-0.00518288
0.00269594
0.0101105
0.0157903
-0.267097
-0.232864
-0.186962
-0.147815
-0.114454
-0.0864348
-0.0628927
-0.0431576
-0.0267082
-0.0131599
-0.00217099
0.00672275
0.0143688
0.0214382
0.0262966
-0.253813
-0.218236
-0.171425
-0.132511
-0.0993723
-0.0715945
-0.0484061
-0.0290979
-0.0131254
-8.7189e-05
0.0104144
0.0189297
0.0262883
0.0329387
0.0368717
-0.238523
-0.20202
-0.154506
-0.115926
-0.0832751
-0.0559373
-0.0332311
-0.0144616
0.000931035
0.0133747
0.0233322
0.0314273
0.0384259
0.0445462
0.0474617
-0.221302
-0.184043
-0.136345
-0.0981606
-0.0661922
-0.0394875
-0.0174
0.000720553
0.0154364
0.027211
0.0365787
0.0442077
0.050735
0.0561364
0.0579679
-0.202273
-0.164017
-0.117137
-0.0793617
-0.048186
-0.0222788
-0.000947799
0.0164141
0.0303642
0.0414091
0.0501528
0.0572596
0.0631581
0.0675512
0.0681083
-0.181579
-0.142066
-0.0967832
-0.059645
-0.0293398
-0.0043591
0.0160856
0.0325823
0.0456872
0.0559552
0.0640455
0.0705531
0.0756257
0.0786221
0.0773781
-0.159283
-0.118569
-0.0752105
-0.0390713
-0.00973901
0.0142111
0.0336541
0.0491866
0.0613767
0.0708285
0.0782263
0.0840241
0.088038
0.0892105
0.085605
-0.13532
-0.0940258
-0.052498
-0.0176706
0.0105438
0.0333643
0.051705
0.0661858
0.0774013
0.0859968
0.0926345
0.0975698
0.100281
0.0994116
0.0937929
-0.109736
-0.0687209
-0.0288116
0.00451158
0.0314438
0.0530316
0.070181
0.0835354
0.0937237
0.101413
0.107188
0.111079
0.11231
0.109758
0.103992
-0.0827708
-0.0426456
-0.00431263
0.0273919
0.0528936
0.0731438
0.0890215
0.101186
0.110298
0.117018
0.121809
0.124498
0.124229
0.120546
0.118017
-0.05465
-0.0158113
0.020866
0.050864
0.0748158
0.0936303
0.108164
0.119083
0.127068
0.132745
0.136443
0.137856
0.136266
0.132053
0.131693
-0.0255804
0.0117098
0.046608
0.074816
0.0971234
0.114417
0.127542
0.137166
0.143971
0.14853
0.15106
0.15122
0.148563
0.144234
0.144655
0.00425126
0.0398056
0.0728005
0.0991372
0.119724
0.135428
0.147087
0.15537
0.160944
0.164323
0.165648
0.164618
0.161061
0.156638
0.156978
0.0346661
0.0683406
0.0993267
0.123719
0.142522
0.156579
0.166727
0.173628
0.177925
0.180079
0.180198
0.178057
0.173721
0.169086
0.168834
0.0654926
0.0971718
0.126066
0.148452
0.16542
0.177788
0.186388
0.191871
0.194856
0.195761
0.194683
0.191475
0.186379
0.181369
0.180379
0.0965619
0.126153
0.152893
0.173228
0.188323
0.19897
0.205993
0.210032
0.21168
0.211327
0.209072
0.20484
0.198986
0.193455
0.191643
0.127709
0.155141
0.179684
0.197937
0.211133
0.220037
0.225466
0.228043
0.228342
0.226729
0.22331
0.218062
0.211426
0.20531
0.202662
0.158772
0.183994
0.206315
0.22247
0.233753
0.240905
0.24473
0.245839
0.244786
0.24192
0.237356
0.231108
0.223672
0.2169
0.213406
0.189594
0.212573
0.232662
0.246719
0.256088
0.261488
0.263711
0.263353
0.260953
0.256844
0.251144
0.243902
0.235665
0.228227
0.223869
0.220019
0.240744
0.258607
0.270578
0.278044
0.281702
0.282333
0.280521
0.276787
0.271452
0.264636
0.256414
0.247367
0.239233
0.234012
0.249899
0.268376
0.284032
0.293943
0.299528
0.301465
0.300525
0.297276
0.292227
0.285684
0.277769
0.268587
0.25875
0.249917
0.243814
0.279089
0.295341
0.308825
0.316714
0.320451
0.320698
0.318215
0.313558
0.30722
0.299496
0.290508
0.280384
0.269762
0.260222
0.253244
0.30745
0.321519
0.332876
0.338791
0.340725
0.339322
0.335333
0.329302
0.321706
0.31283
0.3028
0.291769
0.280388
0.270137
0.262274
0.33485
0.346793
0.356082
0.360083
0.360266
0.357264
0.351814
0.344451
0.335636
0.325644
0.314605
0.302695
0.290573
0.27962
0.27088
0.36116
0.37105
0.378341
0.380499
0.378995
0.37445
0.367593
0.358945
0.348955
0.337889
0.325885
0.313138
0.300301
0.288646
0.279037
0.386262
0.394186
0.39956
0.399954
0.396834
0.390814
0.38261
0.372731
0.361617
0.349523
0.336596
0.32305
0.309529
0.297189
0.286724
0.410041
0.4161
0.419648
0.418368
0.413713
0.40629
0.396804
0.385757
0.373573
0.360505
0.346707
0.332407
0.318231
0.30522
0.293922
0.43239
0.436699
0.438523
0.435665
0.429563
0.420817
0.410124
0.397974
0.384781
0.370794
0.356179
0.341174
0.326378
0.312718
0.300612
0.453211
0.455896
0.456105
0.451775
0.44432
0.434339
0.422517
0.409336
0.395201
0.380359
0.364982
0.349321
0.333943
0.31966
0.306779
0.472411
0.47361
0.472324
0.466634
0.457928
0.446803
0.433937
0.419802
0.404794
0.389161
0.373085
0.356822
0.340901
0.326026
0.31241
0.489906
0.489772
0.487115
0.480182
0.470332
0.458162
0.444341
0.429333
0.413528
0.397172
0.380461
0.363651
0.347229
0.331798
0.317492
0.505618
0.504318
0.500421
0.492366
0.481484
0.46837
0.453688
0.437893
0.421369
0.404365
0.387084
0.369783
0.352908
0.336961
0.322017
0.519484
0.517191
0.512189
0.503137
0.491339
0.47739
0.461945
0.445452
0.428291
0.410714
0.392931
0.375199
0.357917
0.341501
0.325977
0.531463
0.528328
0.522368
0.51245
0.49986
0.485186
0.469079
0.451982
0.43427
0.416196
0.397983
0.37988
0.362242
0.345406
0.329367
0.541521
0.537674
0.530916
0.520269
0.507011
0.491728
0.475066
0.45746
0.439284
0.420795
0.40222
0.383807
0.365866
0.348667
0.332185
0.549621
0.545191
0.537794
0.526561
0.512766
0.496993
0.479882
0.461866
0.443317
0.424493
0.405629
0.386967
0.368779
0.351278
0.334432
0.555727
0.550852
0.542976
0.531302
0.517102
0.500958
0.483509
0.465185
0.446353
0.427277
0.408197
0.389347
0.370971
0.353236
0.336112
0.559814
0.554638
0.546443
0.534473
0.520002
0.503611
0.485935
0.467404
0.448383
0.429139
0.409915
0.390939
0.372435
0.35454
0.337228
0.561862
0.556535
0.548179
0.536062
0.521456
0.50494
0.487151
0.468516
0.449401
0.430072
0.410775
0.391737
0.373169
0.355192
0.337785
0.561864
0.556536
0.548181
0.536063
0.521457
0.504941
0.487152
0.468517
0.449402
0.430073
0.410776
0.391738
0.373169
0.355193
0.337786
0.559818
0.554641
0.546446
0.534476
0.520006
0.503614
0.485938
0.467406
0.448386
0.429142
0.409917
0.390942
0.372437
0.354543
0.33723
0.555734
0.550858
0.542982
0.531307
0.517108
0.500963
0.483514
0.465189
0.446357
0.427282
0.408201
0.389351
0.370975
0.35324
0.336115
0.54963
0.545199
0.537802
0.526569
0.512774
0.497
0.479888
0.461873
0.443323
0.424499
0.405635
0.386972
0.368784
0.351283
0.334437
0.541533
0.537685
0.530926
0.520279
0.507021
0.491738
0.475074
0.457468
0.439292
0.420802
0.402228
0.383814
0.365873
0.348674
0.332191
0.531477
0.528342
0.522381
0.512462
0.499871
0.485197
0.46909
0.451992
0.43428
0.416206
0.397992
0.379888
0.36225
0.345414
0.329375
0.519501
0.517207
0.512204
0.503151
0.491353
0.477403
0.461957
0.445464
0.428303
0.410725
0.392942
0.37521
0.357927
0.341511
0.325986
0.505638
0.504337
0.500439
0.492383
0.4815
0.468386
0.453703
0.437907
0.421383
0.404378
0.387096
0.369795
0.352919
0.336973
0.322028
0.489928
0.489793
0.487135
0.480201
0.47035
0.458179
0.444357
0.429348
0.413543
0.397187
0.380475
0.363664
0.347243
0.331811
0.317505
0.472436
0.473634
0.472347
0.466656
0.457949
0.446823
0.433956
0.41982
0.404811
0.389177
0.373101
0.356837
0.340916
0.32604
0.312424
0.453239
0.455922
0.45613
0.451799
0.444343
0.43436
0.422538
0.409356
0.39522
0.380377
0.364999
0.349338
0.333959
0.319676
0.306794
0.432421
0.436728
0.43855
0.435691
0.429587
0.420841
0.410147
0.397995
0.384802
0.370814
0.356198
0.341192
0.326396
0.312736
0.300628
0.410074
0.416132
0.419678
0.418396
0.41374
0.406315
0.396829
0.38578
0.373596
0.360527
0.346728
0.332428
0.31825
0.305239
0.29394
0.386298
0.39422
0.399592
0.399985
0.396863
0.390842
0.382636
0.372757
0.361641
0.349546
0.336618
0.323072
0.30955
0.29721
0.286744
0.361199
0.371087
0.378376
0.380532
0.379026
0.37448
0.367622
0.358972
0.348981
0.337914
0.325909
0.313161
0.300323
0.288668
0.279058
0.334891
0.346832
0.356119
0.360118
0.360299
0.357296
0.351845
0.34448
0.335664
0.325671
0.314631
0.302721
0.290598
0.279644
0.270902
0.307494
0.321561
0.332916
0.338829
0.34076
0.339356
0.335366
0.329333
0.321736
0.312858
0.302827
0.291796
0.280414
0.270163
0.262297
0.279136
0.295386
0.308867
0.316753
0.320489
0.320734
0.318249
0.313591
0.307252
0.299526
0.290537
0.280413
0.26979
0.260249
0.253269
0.249949
0.268423
0.284077
0.293985
0.299568
0.301503
0.300561
0.297311
0.29226
0.285716
0.2778
0.268617
0.258779
0.249945
0.243841
0.220071
0.240794
0.258654
0.270622
0.278086
0.281742
0.282372
0.280557
0.276822
0.271486
0.264669
0.256445
0.247397
0.239262
0.23404
0.189649
0.212625
0.232711
0.246766
0.256133
0.26153
0.263751
0.263392
0.26099
0.25688
0.251178
0.243935
0.235697
0.228258
0.223899
0.15883
0.184049
0.206366
0.222519
0.2338
0.240949
0.244773
0.24588
0.244825
0.241958
0.237392
0.231143
0.223706
0.216933
0.213437
0.12777
0.155199
0.179738
0.197988
0.211182
0.220083
0.225511
0.228086
0.228383
0.226768
0.223348
0.218098
0.211462
0.205344
0.202695
0.0966255
0.126213
0.15295
0.173281
0.188374
0.199018
0.20604
0.210076
0.211723
0.211368
0.209112
0.204878
0.199023
0.193491
0.191677
0.065559
0.0972343
0.126125
0.148508
0.165473
0.177839
0.186437
0.191917
0.194901
0.195804
0.194724
0.191515
0.186418
0.181406
0.180415
0.0347353
0.0684058
0.0993882
0.123777
0.142577
0.156632
0.166778
0.173676
0.177972
0.180124
0.180241
0.178098
0.173761
0.169125
0.168871
0.00432326
0.0398734
0.0728645
0.0991979
0.119781
0.135482
0.14714
0.15542
0.160992
0.164369
0.165693
0.164661
0.161102
0.156678
0.157017
-0.0255056
0.0117802
0.0466746
0.074879
0.0971833
0.114475
0.127596
0.137218
0.144021
0.148579
0.151106
0.151265
0.148606
0.144276
0.144695
-0.0545724
-0.0157384
0.020935
0.0509294
0.0748779
0.0936895
0.10822
0.119137
0.12712
0.132795
0.136491
0.137902
0.13631
0.132097
0.131736
-0.0826905
-0.04257
-0.00424117
0.0274596
0.052958
0.0732051
0.08908
0.101242
0.110352
0.11707
0.121859
0.124546
0.124276
0.120592
0.118062
-0.109653
-0.0686428
-0.0287377
0.00458158
0.0315103
0.053095
0.0702416
0.0835933
0.0937794
0.101467
0.107239
0.111129
0.112358
0.109805
0.104038
-0.135234
-0.0939452
-0.0524216
-0.0175983
0.0106124
0.0334298
0.0517676
0.0662457
0.0774588
0.0860521
0.0926877
0.097621
0.100331
0.0994598
0.0938408
-0.159195
-0.118485
-0.0751317
-0.0389967
-0.00966818
0.0142786
0.0337186
0.0492484
0.061436
0.0708855
0.0782812
0.084077
0.088089
0.08926
0.0856537
-0.181488
-0.14198
-0.0967019
-0.0595682
-0.0292669
-0.00428955
0.0161521
0.032646
0.0457483
0.0560139
0.064102
0.0706076
0.0756782
0.0786728
0.0774277
-0.202179
-0.163928
-0.117054
-0.0792827
-0.0481109
-0.0222072
-0.000879404
0.0164796
0.0304271
0.0414696
0.050211
0.0573157
0.0632121
0.0676032
0.0681588
-0.221206
-0.183952
-0.136259
-0.0980795
-0.066115
-0.0394139
-0.0173297
0.000787879
0.015501
0.0272731
0.0366385
0.0442653
0.0507905
0.0561898
0.0580197
-0.238425
-0.201926
-0.154418
-0.115843
-0.0831958
-0.0558617
-0.0331589
-0.0143924
0.000997383
0.0134385
0.0233937
0.0314864
0.0384829
0.0446011
0.0475147
-0.253712
-0.21814
-0.171334
-0.132425
-0.0992909
-0.071517
-0.048332
-0.0290269
-0.0130574
-2.17499e-05
0.0104774
0.0189904
0.0263467
0.0329949
0.036926
-0.266993
-0.232766
-0.18687
-0.147727
-0.114371
-0.0863553
-0.0628168
-0.0430849
-0.0266385
-0.0130928
-0.00210642
0.00678496
0.0144287
0.0214959
0.0263523
-0.278237
-0.245795
-0.200882
-0.161824
-0.12844
-0.100356
-0.0765848
-0.0565407
-0.0397235
-0.0257576
-0.0143474
-0.00511916
0.00275732
0.0101695
0.0158472
-0.287444
-0.257149
-0.213355
-0.174779
-0.141543
-0.113498
-0.0896139
-0.069375
-0.0522931
-0.0379985
-0.0262299
-0.0167077
-0.00865641
-0.000968819
0.00544768
-0.294655
-0.266787
-0.224353
-0.186592
-0.153776
-0.12576
-0.101893
-0.0815746
-0.0643309
-0.0497995
-0.0377386
-0.0279638
-0.0198069
-0.0119254
-0.00483413
-0.299965
-0.27474
-0.233969
-0.19727
-0.16507
-0.137261
-0.113427
-0.0931323
-0.0758242
-0.0611486
-0.048863
-0.0388707
-0.0306774
-0.0227108
-0.0149968
-0.303532
-0.281112
-0.242316
-0.206859
-0.175399
-0.147972
-0.124302
-0.104051
-0.0867674
-0.0720369
-0.0595997
-0.049418
-0.0412252
-0.0333401
-0.0250378
-0.305577
-0.286077
-0.249538
-0.215425
-0.18478
-0.157858
-0.134493
-0.114389
-0.0971726
-0.0824593
-0.0699511
-0.0596111
-0.0513998
-0.0438109
-0.0349638
-0.306383
-0.289884
-0.255802
-0.223051
-0.193252
-0.166918
-0.143973
-0.124133
-0.107065
-0.0924292
-0.0799201
-0.0694751
-0.0611886
-0.0540587
-0.0448131
-0.306289
-0.292887
-0.261276
-0.229816
-0.20086
-0.175173
-0.152741
-0.133268
-0.116437
-0.101948
-0.0895178
-0.0790421
-0.0706401
-0.0639452
-0.0546675
-0.305653
-0.29547
-0.266086
-0.235774
-0.207645
-0.182661
-0.160819
-0.141795
-0.125277
-0.111007
-0.09873
-0.0883143
-0.0798616
-0.0733156
-0.0646196
-0.304916
-0.297795
-0.270271
-0.240951
-0.213646
-0.189429
-0.168244
-0.149729
-0.133586
-0.119597
-0.107539
-0.0972596
-0.0888224
-0.0822573
-0.0746285
-0.304473
-0.299871
-0.273783
-0.245338
-0.218896
-0.195521
-0.175052
-0.157091
-0.141371
-0.127717
-0.115931
-0.105849
-0.097492
-0.0909545
-0.0843362
-0.304547
-0.301582
-0.276489
-0.248897
-0.223425
-0.200983
-0.181277
-0.163903
-0.148648
-0.135374
-0.123906
-0.11407
-0.105863
-0.0994483
-0.0934868
-0.305087
-0.302616
-0.278172
-0.25158
-0.227265
-0.205853
-0.18694
-0.170181
-0.15543
-0.14258
-0.13147
-0.121925
-0.113926
-0.107684
-0.102041
-0.305633
-0.30234
-0.278546
-0.253359
-0.230467
-0.210158
-0.19205
-0.175936
-0.161735
-0.149354
-0.138638
-0.129421
-0.121665
-0.115602
-0.110092
-0.305254
-0.299786
-0.277329
-0.254267
-0.233088
-0.213904
-0.196604
-0.181178
-0.167584
-0.155715
-0.145424
-0.13656
-0.129068
-0.123189
-0.117767
-0.302696
-0.293939
-0.27442
-0.254452
-0.235163
-0.217064
-0.200597
-0.18593
-0.173002
-0.161682
-0.15184
-0.143349
-0.136136
-0.130461
-0.125166
-0.297014
-0.284372
-0.270195
-0.254155
-0.236656
-0.219589
-0.204041
-0.190227
-0.178017
-0.16727
-0.157896
-0.1498
-0.142886
-0.13745
-0.13235
-0.288787
-0.272091
-0.265831
-0.253555
-0.237451
-0.221463
-0.206992
-0.194123
-0.182658
-0.172495
-0.163605
-0.155929
-0.149343
-0.144186
-0.139345
-0.279104
-0.260144
-0.262513
-0.252482
-0.237463
-0.222776
-0.209559
-0.197674
-0.186944
-0.177368
-0.168981
-0.161756
-0.155533
-0.150693
-0.146162
-0.269491
-0.252117
-0.260149
-0.250574
-0.236793
-0.223736
-0.211865
-0.200923
-0.190891
-0.1819
-0.174039
-0.167301
-0.161477
-0.156992
-0.152813
-0.261057
-0.249317
-0.257447
-0.247693
-0.235792
-0.22462
-0.214007
-0.203886
-0.194506
-0.186106
-0.178798
-0.172581
-0.167196
-0.163104
-0.159324
-0.25433
-0.250356
-0.2529
-0.244198
-0.234991
-0.225638
-0.216007
-0.206562
-0.197801
-0.190007
-0.183272
-0.177608
-0.1727
-0.169049
-0.165735
-0.249558
-0.251536
-0.246138
-0.24101
-0.23489
-0.226812
-0.21781
-0.208947
-0.2008
-0.193623
-0.187477
-0.182392
-0.177999
-0.174838
-0.172075
-0.246244
-0.251389
-0.238598
-0.239569
-0.23556
-0.227934
-0.219365
-0.211068
-0.203531
-0.196969
-0.19142
-0.186937
-0.183097
-0.180474
-0.178366
-0.243981
-0.24921
-0.234369
-0.240321
-0.23636
-0.228778
-0.220687
-0.212963
-0.206008
-0.200051
-0.195104
-0.191244
-0.187996
-0.185959
-0.18461
-0.242374
-0.245467
-0.23533
-0.241339
-0.236467
-0.22935
-0.22187
-0.214655
-0.208224
-0.202856
-0.19852
-0.19531
-0.192697
-0.191288
-0.190799
-0.241026
-0.241408
-0.239158
-0.239721
-0.235745
-0.229881
-0.222947
-0.216107
-0.210149
-0.205373
-0.201664
-0.199124
-0.197195
-0.196464
-0.196925
-0.239698
-0.238429
-0.24158
-0.235426
-0.235053
-0.230545
-0.223832
-0.217247
-0.211746
-0.207575
-0.204513
-0.202674
-0.201485
-0.201482
-0.202976
-0.238313
-0.236778
-0.241495
-0.232507
-0.23556
-0.231088
-0.22434
-0.218019
-0.212987
-0.209445
-0.207049
-0.205933
-0.205554
-0.206348
-0.208954
-0.236805
-0.235933
-0.239103
-0.234155
-0.23614
-0.231078
-0.224446
-0.218405
-0.213839
-0.210938
-0.209235
-0.208873
-0.20938
-0.211065
-0.214872
-0.235243
-0.235153
-0.236128
-0.237454
-0.234397
-0.230314
-0.224193
-0.218392
-0.21427
-0.212026
-0.211029
-0.211445
-0.212941
-0.215645
-0.220753
-0.233704
-0.234065
-0.234015
-0.238153
-0.231398
-0.229429
-0.223512
-0.217894
-0.214239
-0.212647
-0.212369
-0.213608
-0.216206
-0.220099
-0.226639
-0.232161
-0.232722
-0.232752
-0.23574
-0.231087
-0.228241
-0.222227
-0.216938
-0.213751
-0.212747
-0.213173
-0.215301
-0.219167
-0.224452
-0.232566
-0.230613
-0.231271
-0.231594
-0.232786
-0.232421
-0.225531
-0.220357
-0.215626
-0.212795
-0.21222
-0.213355
-0.216488
-0.221809
-0.228734
-0.23859
-0.229111
-0.229864
-0.230321
-0.230752
-0.231419
-0.222954
-0.218466
-0.21412
-0.21137
-0.210957
-0.212809
-0.217144
-0.224158
-0.232969
-0.244761
-0.227757
-0.228608
-0.229126
-0.229395
-0.228659
-0.223049
-0.216287
-0.212552
-0.209417
-0.208831
-0.211494
-0.217273
-0.226232
-0.237204
-0.251137
-0.2267
-0.22764
-0.228184
-0.228417
-0.227052
-0.223631
-0.214614
-0.211339
-0.206841
-0.205776
-0.209398
-0.216928
-0.228081
-0.24147
-0.257797
-0.226125
-0.227137
-0.227711
-0.227964
-0.226499
-0.222712
-0.215885
-0.210201
-0.203482
-0.201909
-0.206646
-0.216158
-0.229774
-0.245843
-0.264798
-0.226141
-0.227279
-0.227946
-0.228304
-0.226857
-0.222807
-0.218413
-0.208622
-0.199576
-0.197517
-0.203403
-0.215077
-0.231388
-0.250409
-0.272246
-0.226989
-0.228197
-0.229064
-0.22967
-0.228402
-0.224377
-0.218949
-0.207501
-0.195498
-0.193083
-0.199877
-0.213793
-0.233094
-0.255264
-0.280236
-0.228575
-0.229848
-0.231049
-0.232088
-0.231291
-0.227397
-0.219749
-0.207028
-0.192066
-0.188952
-0.1963
-0.212562
-0.235068
-0.260606
-0.288844
-0.230716
-0.231998
-0.23358
-0.235259
-0.235196
-0.23164
-0.222334
-0.207415
-0.191216
-0.185646
-0.192895
-0.211812
-0.237547
-0.266573
-0.298247
-0.233111
-0.234288
-0.236153
-0.238349
-0.239112
-0.236274
-0.226329