/*--------------------------------*- C++ -*----------------------------------*\
  =========                 |
  \\      /  F ield         | OpenFOAM: The Open Source CFD Toolbox
   \\    /   O peration     | Website:  https://openfoam.org
    \\  /    A nd           | Version:  7
     \\/     M anipulation  |
\*---------------------------------------------------------------------------*/
FoamFile
{
    version     2.0;
    format      ascii;
    class       surfaceScalarField;
    location    "18.0015";
    object      phi;
}
// * * * * * * * * * * * * * * * * * * * * * * * * * * * * * * * * * * * * * //

dimensions      [0 3 -1 0 0 0 0];

internalField   nonuniform List<scalar> 
37105
(
-1.16828e-05
1.17068e-05
-2.40162e-08
-2.71353e-05
1.54819e-05
-2.93911e-08
-4.31039e-05
1.59971e-05
-2.84677e-08
-5.97693e-05
1.66923e-05
-2.68636e-08
-7.72413e-05
1.74964e-05
-2.43558e-08
-9.56144e-05
1.8394e-05
-2.09245e-08
-0.000114973
1.9375e-05
-1.65373e-08
-0.000135382
2.04206e-05
-1.12164e-08
-0.000156905
2.15278e-05
-5.00529e-09
-0.000179593
2.2686e-05
1.97563e-09
-0.00020349
2.38879e-05
9.55785e-09
-0.000228604
2.50963e-05
1.76711e-08
-0.000254891
2.62608e-05
2.60961e-08
-0.000282262
2.73362e-05
3.45544e-08
2.83635e-05
4.24837e-08
-0.000310668
-1.15032e-05
2.321e-05
-2.67819e-05
3.07606e-05
-4.25772e-05
3.17924e-05
-5.90482e-05
3.31633e-05
-7.62984e-05
3.47465e-05
-9.44116e-05
3.65072e-05
-0.000113461
3.84245e-05
-0.0001335
4.04595e-05
-0.000154576
4.26038e-05
-0.000176724
4.48335e-05
-0.000199969
4.71338e-05
-0.000224308
4.94345e-05
-0.000249689
5.16419e-05
-0.000276018
5.36652e-05
5.55663e-05
-0.00030322
-1.11476e-05
3.43576e-05
-2.60826e-05
4.56956e-05
-4.15363e-05
4.72461e-05
-5.76261e-05
4.92532e-05
-7.44436e-05
5.15639e-05
-9.20532e-05
5.41168e-05
-0.000110508
5.68797e-05
-0.00012984
5.97912e-05
-0.000150071
6.28347e-05
-0.000171207
6.597e-05
-0.000193249
6.91749e-05
-0.000216169
7.23554e-05
-0.000239916
7.53886e-05
-0.000264389
7.81382e-05
8.06476e-05
-0.00028947
-1.06232e-05
4.49808e-05
-2.50516e-05
6.0124e-05
-4.00035e-05
6.2198e-05
-5.55389e-05
6.47885e-05
-7.17324e-05
6.77575e-05
-8.86227e-05
7.10071e-05
-0.000106238
7.44946e-05
-0.000124581
7.81347e-05
-0.000143647
8.19009e-05
-0.000163412
8.57345e-05
-0.000183845
8.96087e-05
-0.000204907
9.34173e-05
-0.000226546
9.70275e-05
-0.000248668
0.00010026
0.000103103
-0.000271124
-9.943e-06
5.49238e-05
-2.37081e-05
7.38891e-05
-3.80093e-05
7.64992e-05
-5.28355e-05
7.96148e-05
-6.82395e-05
8.31615e-05
-8.42299e-05
8.69975e-05
-0.000100807
9.10713e-05
-0.000117946
9.52743e-05
-0.000135616
9.95706e-05
-0.000153765
0.000103883
-0.000172342
0.000108186
-0.000191298
0.000112373
-0.000210593
0.000116323
-0.000230156
0.000119823
0.000122783
-0.000249835
-9.1408e-06
6.40646e-05
-2.20747e-05
8.6823e-05
-3.55893e-05
9.00138e-05
-4.95738e-05
9.35993e-05
-6.40513e-05
9.7639e-05
-7.89989e-05
0.000101945
-9.43889e-05
0.000106461
-0.000110173
0.000111059
-0.000126297
0.000115694
-0.000142691
0.000120277
-0.00015929
0.000124785
-0.000176046
0.000129128
-0.000192937
0.000133214
-0.00020993
0.000136817
0.000139756
-0.000226904
-8.18812e-06
7.22527e-05
-2.01622e-05
9.8797e-05
-3.27817e-05
0.000102633
-4.58166e-05
0.000106634
-5.92597e-05
0.000111082
-7.30584e-05
0.000115744
-8.71595e-05
0.000120562
-0.000101494
0.000125393
-0.000115991
0.000130192
-0.000130572
0.000134858
-0.000145167
0.00013938
-0.00015973
0.000143692
-0.000174266
0.000147749
-0.000188787
0.000151337
0.000154187
-0.000203217
-7.08524e-06
7.93379e-05
-1.79866e-05
0.000109698
-2.96256e-05
0.000114272
-4.16281e-05
0.000118637
-5.39568e-05
0.000123411
-6.65337e-05
0.000128321
-7.92837e-05
0.000133312
-9.21207e-05
0.00013823
-0.000104964
0.000143036
-0.000117732
0.000147625
-0.000130356
0.000152004
-0.000142798
0.000156134
-0.00015508
0.000160031
-0.000167259
0.000163516
0.000166241
-0.000179313
-5.85147e-06
8.51894e-05
-1.5571e-05
0.000119418
-2.6162e-05
0.000124863
-3.70711e-05
0.000129546
-4.823e-05
0.00013457
-5.95415e-05
0.000139632
-7.09116e-05
0.000144683
-8.22405e-05
0.000149559
-9.34415e-05
0.000154237
-0.000104435
0.000158618
-0.000115158
0.000162728
-0.000125578
0.000166554
-0.000135722
0.000170174
-0.00014568
0.000173474
0.000176045
-0.000155483
-4.4992e-06
8.96886e-05
-1.29406e-05
0.000127859
-2.24334e-05
0.000134356
-3.22056e-05
0.000139318
-4.21608e-05
0.000144525
-5.21876e-05
0.000149659
-6.21755e-05
0.000154671
-7.2013e-05
0.000159396
-8.16087e-05
0.000163832
-9.08871e-05
0.000167897
-9.97947e-05
0.000171635
-0.000108299
0.000175059
-0.000116417
0.000178293
-0.000124245
0.000181301
0.000183674
-0.000131874
-3.03326e-06
9.27218e-05
-1.01235e-05
0.00013495
-1.84797e-05
0.000142712
-2.70864e-05
0.000147925
-3.58222e-05
0.000153261
-4.45649e-05
0.000158402
-5.31879e-05
0.000163294
-6.15699e-05
0.000167778
-6.9615e-05
0.000171877
-7.72501e-05
0.000175532
-8.44297e-05
0.000178815
-9.11222e-05
0.000181751
-9.7319e-05
0.000184489
-0.000103077
0.000187059
0.000189154
-0.000108557
-1.44205e-06
9.41639e-05
-7.15851e-06
0.000140666
-1.43396e-05
0.000149893
-2.17621e-05
0.000155347
-2.92795e-05
0.000160778
-3.67542e-05
0.000165876
-4.40439e-05
0.000170583
-5.1019e-05
0.000174753
-5.75775e-05
0.000178436
-6.36444e-05
0.000181599
-6.91777e-05
0.000184348
-7.41492e-05
0.000186723
-7.85194e-05
0.00018886
-8.22563e-05
0.000190796
0.00019247
-8.55718e-05
2.75915e-07
9.3888e-05
-4.09045e-06
0.000145032
-1.00379e-05
0.000155841
-1.6276e-05
0.000161585
-2.25906e-05
0.000167093
-2.88242e-05
0.00017211
-3.4821e-05
0.00017658
-4.0445e-05
0.000180377
-4.55863e-05
0.000183577
-5.01623e-05
0.000186175
-5.41233e-05
0.000188309
-5.7446e-05
0.000190045
-6.00871e-05
0.000191501
-6.18809e-05
0.00019259
0.000193481
-6.28924e-05
1.77909e-06
9.21089e-05
-9.74993e-07
0.000147786
-5.60565e-06
0.000160472
-1.0671e-05
0.000166651
-1.58064e-05
0.000172228
-2.08335e-05
0.000177137
-2.55838e-05
0.00018133
-2.99162e-05
0.00018471
-3.37098e-05
0.000187371
-3.68709e-05
0.000189336
-3.93289e-05
0.000190767
-4.105e-05
0.000191766
-4.20309e-05
0.000192482
-4.20863e-05
0.000192645
0.000191887
-4.04919e-05
3.42063e-06
8.86883e-05
2.3365e-06
0.000148871
-1.10057e-06
0.000163909
-4.98938e-06
0.00017054
-8.97468e-06
0.000176213
-1.28317e-05
0.000180994
-1.63854e-05
0.000184884
-1.9486e-05
0.00018781
-2.19979e-05
0.000189883
-2.38179e-05
0.000191156
-2.48459e-05
0.000191795
-2.50077e-05
0.000191928
-2.42809e-05
0.000191755
-2.27338e-05
0.000191098
0.000188239
-1.90859e-05
5.10455e-06
8.35837e-05
5.7153e-06
0.00014826
3.5788e-06
0.000166045
7.20758e-07
0.000173398
-2.15331e-06
0.000179087
-4.86917e-06
0.00018371
-7.27602e-06
0.000187291
-9.20192e-06
0.000189736
-1.04943e-05
0.000191175
-1.10364e-05
0.000191698
-1.07026e-05
0.000191462
-9.373e-06
0.000190599
-6.97516e-06
0.000189357
-3.38583e-06
0.000187509
0.000183714
1.1384e-06
6.76593e-06
7.68178e-05
9.10679e-06
0.000145919
8.29168e-06
0.00016686
6.582e-06
0.000175107
4.745e-06
0.000180924
3.05608e-06
0.000185399
1.70064e-06
0.000188646
8.69894e-07
0.000190567
7.30581e-07
0.000191314
1.43558e-06
0.000190993
3.08396e-06
0.000189813
5.84609e-06
0.000187837
9.81322e-06
0.00018539
1.4971e-05
0.000182351
0.00017682
2.18654e-05
8.33907e-06
6.84787e-05
1.24552e-05
0.000141803
1.29912e-05
0.000166324
1.23801e-05
0.000175718
1.15983e-05
0.000181706
1.09519e-05
0.000186045
1.06484e-05
0.00018895
1.08779e-05
0.000190338
1.18236e-05
0.000190369
1.36527e-05
0.000189164
1.64971e-05
0.000186969
2.06102e-05
0.000183723
2.62097e-05
0.00017979
3.2859e-05
0.000175702
0.000167997
4.16824e-05
9.73345e-06
5.87453e-05
1.56664e-05
0.00013587
1.76312e-05
0.000164359
1.81271e-05
0.000175222
1.83506e-05
0.000181483
1.86924e-05
0.000185703
1.93776e-05
0.000188265
2.06048e-05
0.00018911
2.25813e-05
0.000188392
2.55213e-05
0.000186224
2.95415e-05
0.000182949
3.48913e-05
0.000178374
4.21388e-05
0.000172543
5.03475e-05
0.000167493
0.000157541
6.08033e-05
1.08127e-05
4.79326e-05
1.86162e-05
0.000128066
2.214e-05
0.000160836
2.37826e-05
0.00017358
2.49823e-05
0.000180283
2.62669e-05
0.000184419
2.78955e-05
0.000186636
3.0075e-05
0.000186931
3.30263e-05
0.000185441
3.7034e-05
0.000182216
4.22393e-05
0.000177743
4.86695e-05
0.000171944
5.75248e-05
0.000163687
6.73558e-05
0.000157662
0.000145495
7.94014e-05
1.13742e-05
3.65584e-05
2.11521e-05
0.000118288
2.64198e-05
0.000155568
2.92815e-05
0.000170718
3.14521e-05
0.000178113
3.3646e-05
0.000182225
3.6177e-05
0.000184105
3.92714e-05
0.000183837
4.31399e-05
0.000181572
4.81364e-05
0.00017722
5.45775e-05
0.000171302
6.19718e-05
0.000164549
7.23859e-05
0.000153273
8.38572e-05
0.000146191
0.000131763
9.75895e-05
1.11763e-05
2.53821e-05
2.31155e-05
0.000106349
3.03362e-05
0.000148347
3.45311e-05
0.000166523
3.77065e-05
0.000174937
4.0793e-05
0.000179138
4.41828e-05
0.000180715
4.81608e-05
0.000179859
5.29197e-05
0.000176813
5.87538e-05
0.000171386
6.65333e-05
0.000163523
7.47697e-05
0.000156313
8.65411e-05
0.000141502
9.98775e-05
0.000132854
0.000115831
0.000115809
1.01007e-05
1.52814e-05
2.43664e-05
9.20835e-05
3.3705e-05
0.000139009
3.94081e-05
0.00016082
4.36738e-05
0.000170672
4.76607e-05
0.000175151
5.18688e-05
0.000176507
5.6679e-05
0.000175048
6.23636e-05
0.000171129
6.88637e-05
0.000164885
7.80704e-05
0.000154316
8.72993e-05
0.000147084
9.99442e-05
0.000128857
0.000114588
0.000118211
9.66642e-05
0.000133755
8.3412e-06
6.94022e-06
2.47259e-05
7.56988e-05
3.6294e-05
0.00012744
4.37621e-05
0.000153352
4.92652e-05
0.000165169
5.4182e-05
0.000170235
5.91805e-05
0.000171508
6.47283e-05
0.000169501
7.14386e-05
0.000164419
7.84361e-05
0.000157888
8.89134e-05
0.000143839
9.96136e-05
0.000136384
0.000113543
0.000114927
0.000128211
0.000103543
7.43692e-05
0.000150506
6.28327e-06
6.56948e-07
2.39257e-05
5.80563e-05
3.78528e-05
0.000113513
4.74105e-05
0.000143794
5.4347e-05
0.000158232
6.02593e-05
0.000164322
6.60698e-05
0.000165698
7.21865e-05
0.000163384
8.00294e-05
0.000156576
8.75794e-05
0.000150338
9.88011e-05
0.000132617
0.000110898
0.000124287
0.000127379
9.84457e-05
0.000142054
8.88689e-05
4.99406e-05
0.000166482
4.21791e-06
-3.56096e-06
2.17023e-05
4.0572e-05
3.81387e-05
9.70769e-05
5.01229e-05
0.00013181
5.87353e-05
0.00014962
6.57301e-05
0.000157327
7.24593e-05
0.000158969
7.90115e-05
0.000156832
8.78701e-05
0.000147717
9.63598e-05
0.000141848
0.000108071
0.000120906
0.000120653
0.000111705
0.000139982
7.91169e-05
0.000155764
7.30864e-05
2.40403e-05
0.000181665
2.31363e-06
-5.87459e-06
1.8113e-05
2.47725e-05
3.69474e-05
7.82425e-05
5.15565e-05
0.000117201
6.21553e-05
0.000139021
7.03802e-05
0.000149103
7.81727e-05
0.000151176
8.51527e-05
0.000149852
9.46334e-05
0.000138236
0.000104362
0.00013212
0.000117034
0.000108234
0.000129589
9.91501e-05
0.000150528
5.81774e-05
0.000168325
5.529e-05
-2.70262e-06
0.000195067
8.88798e-07
-6.76339e-06
1.37196e-05
1.19417e-05
3.41263e-05
5.78358e-05
5.12951e-05
0.000100032
6.42452e-05
0.000126071
7.38854e-05
0.000139462
8.29344e-05
0.000142127
9.06082e-05
0.000142178
0.000100132
0.000128713
0.000110827
0.000121425
0.000124809
9.42515e-05
0.000138251
8.57083e-05
0.000158646
3.77824e-05
0.000178909
3.50269e-05
-2.9965e-05
0.000206172
1.50402e-07
-6.91379e-06
9.49008e-06
2.60207e-06
2.94267e-05
3.78992e-05
4.8868e-05
8.05909e-05
6.45554e-05
0.000110383
7.59215e-05
0.000128096
8.61932e-05
0.000131856
9.51064e-05
0.000133265
0.000104623
0.000119196
0.000115634
0.000110413
0.000129258
8.06275e-05
0.000146304
6.86626e-05
0.000162846
2.12406e-05
0.0001873
1.05727e-05
-5.64967e-05
0.000213832
-7.78193e-08
-6.83597e-06
6.04462e-06
-3.52037e-06
2.32073e-05
2.07365e-05
4.39997e-05
5.97985e-05
6.24635e-05
9.19196e-05
7.6036e-05
0.000114524
8.75245e-05
0.000120367
9.77219e-05
0.000123067
0.000107401
0.000109517
0.000120131
9.76831e-05
0.000130531
7.02275e-05
0.000151686
4.75074e-05
0.000163811
9.1157e-06
0.000192349
-1.79655e-05
-8.19266e-05
0.000217779
1.71887e-08
-6.85316e-06
3.84464e-06
-7.34782e-06
1.68533e-05
7.72783e-06
3.69428e-05
3.9709e-05
5.74469e-05
7.14155e-05
7.34679e-05
9.85029e-05
8.63328e-05
0.000107502
9.82596e-05
0.000111141
0.000107217
0.00010056
0.000122551
8.23497e-05
0.000130243
6.25349e-05
0.00015408
2.36709e-05
0.000161797
1.39837e-06
0.000195086
-5.1254e-05
-9.188e-05
0.000205039
2.79015e-07
-7.13218e-06
2.98308e-06
-1.00519e-05
1.18333e-05
-1.12235e-06
2.88499e-05
2.26923e-05
4.94573e-05
5.08081e-05
6.76824e-05
8.02778e-05
8.15388e-05
9.36456e-05
9.57651e-05
9.69145e-05
0.00010476
9.15643e-05
0.00012021
6.68998e-05
0.000129494
5.3251e-05
0.000152055
1.10959e-06
0.000159211
-5.75709e-06
0.000193648
-8.56913e-05
-8.66389e-05
0.000188407
6.60038e-07
-7.79221e-06
2.97782e-06
-1.23697e-05
8.79281e-06
-6.93734e-06
2.15136e-05
9.97151e-06
3.95569e-05
3.27648e-05
5.85461e-05
6.12886e-05
7.34564e-05
7.87354e-05
8.80725e-05
8.22983e-05
9.93989e-05
8.02379e-05
0.000112411
5.38877e-05
0.000124515
4.11475e-05
0.00014078
-1.51561e-05
0.000151164
-1.61404e-05
0.000174195
-0.000108722
-8.81866e-05
0.000175742
1.02764e-06
-8.81985e-06
3.2236e-06
-1.45656e-05
7.26467e-06
-1.09784e-05
1.59424e-05
1.29382e-06
2.96149e-05
1.90923e-05
4.68532e-05
4.40503e-05
6.21183e-05
6.34702e-05
7.58636e-05
6.8553e-05
8.78882e-05
6.82133e-05
9.98692e-05
4.19067e-05
0.000111619
2.93982e-05
0.000119281
-2.2819e-05
0.000133176
-3.0035e-05
0.000144066
-0.000119613
-0.000132217
0.000188096
1.23092e-06
-1.00508e-05
3.20668e-06
-1.65414e-05
6.14199e-06
-1.39137e-05
1.17126e-05
-4.2768e-06
2.08454e-05
9.95943e-06
3.4198e-05
3.06977e-05
4.80502e-05
4.9618e-05
6.01394e-05
5.64638e-05
7.09587e-05
5.73939e-05
8.19758e-05
3.08896e-05
9.21749e-05
1.91992e-05
9.68765e-05
-2.75206e-05
0.000123469
-5.66278e-05
0.00015747
-0.000153613
-0.000204335
0.000229588
1.14532e-06
-1.11961e-05
2.56691e-06
-1.7963e-05
4.43081e-06
-1.57776e-05
7.69102e-06
-7.53701e-06
1.3063e-05
4.58744e-06
2.19402e-05
2.18206e-05
3.26672e-05
3.8891e-05
4.24521e-05
4.6679e-05
5.15373e-05
4.83087e-05
5.85117e-05
2.39153e-05
6.94506e-05
8.26021e-06
8.77304e-05
-4.58004e-05
0.000138566
-0.000107463
0.000193361
-0.000208409
-0.000265689
0.000254715
7.12129e-07
-1.19082e-05
1.16581e-06
-1.84167e-05
1.68871e-06
-1.63005e-05
2.94625e-06
-8.79455e-06
5.34261e-06
2.19108e-06
1.02181e-05
1.69451e-05
1.69459e-05
3.21632e-05
2.38952e-05
3.97297e-05
2.98668e-05
4.23371e-05
3.5214e-05
1.85681e-05
6.01787e-05
-1.67045e-05
0.000105543
-9.11643e-05
0.000170714
-0.000172635
0.00021916
-0.000256854
-0.000310707
0.000264178
-4.05848e-08
-1.18676e-05
-8.88624e-07
-1.75686e-05
-1.97059e-06
-1.52186e-05
-2.71745e-06
-8.04769e-06
-2.90576e-06
2.37939e-06
-1.51673e-06
1.5556e-05
1.11668e-06
2.95298e-05
4.87479e-06
3.59716e-05
1.08626e-05
3.63493e-05
3.00231e-05
-5.92374e-07
7.8593e-05
-6.52744e-05
0.000138554
-0.000151126
0.000195592
-0.000229673
0.000234472
-0.000295734
-0.000345366
0.000269131
-9.95392e-07
-1.08722e-05
-3.29669e-06
-1.52673e-05
-6.10075e-06
-1.24145e-05
-8.89696e-06
-5.25149e-06
-1.14508e-05
4.93323e-06
-1.34465e-05
1.75517e-05
-1.41737e-05
3.0257e-05
-1.06563e-05
3.24543e-05
7.55703e-06
1.81359e-05
5.01913e-05
-4.32267e-05
0.000111225
-0.000126309
0.000166182
-0.000206082
0.000210315
-0.000273806
0.000242212
-0.000327631
-0.000369327
0.000266173
-1.96218e-06
-8.91006e-06
-5.6345e-06
-1.1595e-05
-9.99452e-06
-8.05448e-06
-1.45553e-05
-6.90747e-07
-1.88422e-05
9.22019e-06
-2.22131e-05
2.09225e-05
-2.26453e-05
3.06892e-05
-1.19073e-05
2.17164e-05
2.51789e-05
-1.89503e-05
8.23431e-05
-0.000100391
0.000138655
-0.00018262
0.000183884
-0.000251312
0.000218234
-0.000308156
0.000241989
-0.000351385
-0.00038878
0.000261441
-2.71973e-06
-6.19033e-06
-7.3728e-06
-6.94193e-06
-1.27297e-05
-2.69759e-06
-1.80184e-05
4.59792e-06
-2.25089e-05
1.37107e-05
-2.4249e-05
2.26627e-05
-1.99742e-05
2.64143e-05
4.63162e-06
-2.88941e-06
5.52967e-05
-6.96154e-05
0.000110707
-0.000155801
0.000157635
-0.000229548
0.000193769
-0.000287446
0.000219532
-0.000333919
0.000239136
-0.000370989
-0.000404752
0.000255109
-3.10333e-06
-3.087e-06
-8.1496e-06
-1.89566e-06
-1.3622e-05
2.77479e-06
-1.84989e-05
9.47487e-06
-2.14214e-05
1.66332e-05
-1.95693e-05
2.08106e-05
-7.17784e-06
1.40228e-05
3.02522e-05
-4.03195e-05
8.38642e-05
-0.000123227
0.000131719
-0.000203656
0.000169263
-0.000267092
0.000197217
-0.0003154
0.00021806
-0.000354762
0.000233809
-0.000386738
-0.00041782
0.000246877
-3.08064e-06
-6.35815e-09
-7.93409e-06
2.95779e-06
-1.28221e-05
7.66278e-06
-1.63987e-05
1.30515e-05
-1.68777e-05
1.71123e-05
-1.15358e-05
1.54687e-05
1.10134e-05
-8.52635e-06
5.70024e-05
-8.63085e-05
0.00010559
-0.000171815
0.000145335
-0.000243401
0.000174999
-0.000296756
0.000197348
-0.000337749
0.000213743
-0.000371156
0.000226879
-0.000399875
-0.00043017
0.00023923
-2.74643e-06
2.74007e-06
-6.98875e-06
7.20011e-06
-1.08909e-05
1.15649e-05
-1.2937e-05
1.50976e-05
-1.11057e-05
1.5281e-05
-1.39885e-06
5.76184e-06
3.16822e-05
-4.16074e-05
7.91468e-05
-0.000133773
0.000121043
-0.000213711
0.00015332
-0.000275678
0.000176944
-0.00032038
0.000194442
-0.000355247
0.000208045
-0.00038476
0.000220001
-0.000411831
-0.00044082
0.00023065
-2.23022e-06
4.97029e-06
-5.66938e-06
1.06393e-05
-8.50523e-06
1.44008e-05
-9.24289e-06
1.58352e-05
-6.07755e-06
1.21156e-05
1.1082e-05
-1.13977e-05
5.30628e-05
-8.35883e-05
9.61695e-05
-0.00017688
0.00013117
-0.000248712
0.000157054
-0.000301562
0.000175688
-0.000339014
0.000190115
-0.000369674
0.000201829
-0.000396473
0.000212138
-0.000422141
-0.00045081
0.000222129
-1.678e-06
6.64829e-06
-4.29462e-06
1.32559e-05
-6.18975e-06
1.62959e-05
-5.93411e-06
1.55796e-05
-8.00958e-07
6.98249e-06
2.58333e-05
-3.80319e-05
7.1305e-05
-0.00012906
0.000108688
-0.000214262
0.00013709
-0.000277114
0.000157613
-0.000322085
0.000172749
-0.000354151
0.000184773
-0.000381697
0.000194771
-0.000406472
0.000204509
-0.000431878
-0.000460144
0.000213843
-1.19213e-06
7.84042e-06
-3.08098e-06
1.51447e-05
-4.21622e-06
1.74311e-05
-3.54388e-06
1.49072e-05
7.49241e-06
-4.05379e-06
4.34559e-05
-7.39954e-05
8.48245e-05
-0.000170429
0.000116808
-0.000246246
0.000139742
-0.000300048
0.00015613
-0.000338472
0.000168438
-0.00036646
0.000178672
-0.000391931
0.000187837
-0.000415637
0.000196713
-0.000440755
-0.000468509
0.000205079
-8.25404e-07
8.66582e-06
-2.12667e-06
1.6446e-05
-2.52938e-06
1.78339e-05
-1.21819e-06
1.3596e-05
1.82103e-05
-2.34822e-05
5.95209e-05
-0.000115306
9.50042e-05
-0.000205912
0.000121463
-0.000272705
0.000139974
-0.000318559
0.000153083
-0.00035158
0.000163374
-0.000376751
0.000172408
-0.000400966
0.00018056
-0.000423788
0.000188765
-0.00044896
-0.000476527
0.000196782
-5.9197e-07
9.25779e-06
-1.36476e-06
1.72188e-05
-1.42965e-06
1.78988e-05
3.52478e-06
8.6416e-06
3.18069e-05
-5.17644e-05
7.10559e-05
-0.000154555
0.000101788
-0.000236644
0.000123427
-0.000294344
0.000138323
-0.000333455
0.000149054
-0.000362312
0.000157848
-0.000385545
0.000165762
-0.000408879
0.000173313
-0.00043134
0.000181042
-0.000456688
-0.000483712
0.000188227
-4.72889e-07
9.73068e-06
-7.85204e-07
1.75311e-05
-9.09897e-07
1.80234e-05
1.05847e-05
-2.85303e-06
4.59276e-05
-8.71073e-05
7.99275e-05
-0.000188555
0.000105744
-0.00026246
0.000123346
-0.000311946
0.000135413
-0.000345522
0.000144326
-0.000371225
0.000151952
-0.000393172
0.000159132
-0.000416059
0.000166068
-0.000438276
0.000173091
-0.000463712
-0.000490406
0.000179785
-4.22823e-07
1.01535e-05
-3.40817e-07
1.74491e-05
2.06516e-07
1.74761e-05
1.87951e-05
-2.14416e-05
5.65856e-05
-0.000124898
8.63212e-05
-0.00021829
0.000107463
-0.000283602
0.000121692
-0.000326175
0.000131552
-0.000355381
0.000139125
-0.000378799
0.000145925
-0.000399971
0.00015237
-0.000422504
0.000158734
-0.00044464
0.000165312
-0.00047029
-0.000496549
0.000171455
-2.92487e-07
1.0446e-05
-1.94913e-07
1.73515e-05
3.4001e-06
1.38811e-05
2.94256e-05
-4.74672e-05
6.40069e-05
-0.000159479
9.01336e-05
-0.000244417
0.000107504
-0.000300972
0.000118947
-0.000337619
0.00012709
-0.000363524
0.000133651
-0.00038536
0.000139721
-0.000406041
0.000145597
-0.00042838
0.0001515
-0.000450543
0.000157458
-0.000476247
-0.000502085
0.000162995
-1.81954e-07
1.06279e-05
-3.94692e-07
1.75643e-05
8.17722e-06
5.30919e-06
4.00061e-05
-7.92961e-05
6.99306e-05
-0.000189404
9.18263e-05
-0.000266313
0.000106057
-0.000315203
0.00011537
-0.000346931
0.000122203
-0.000370357
0.000127959
-0.000391116
0.00013347
-0.000411552
0.00013882
-0.00043373
0.000144191
-0.000455914
0.000149629
-0.000481685
-0.000507203
0.000154747
-1.73066e-07
1.0801e-05
-5.25303e-07
1.79165e-05
1.33437e-05
-8.55981e-06
4.78532e-05
-0.000113806
7.39828e-05
-0.000215533
9.19909e-05
-0.000284321
0.000103569
-0.000326781
0.000111227
-0.000354589
0.000117051
-0.000376181
0.000122174
-0.00039624
0.000127155
-0.000416532
0.000132009
-0.000438584
0.00013695
-0.000460855
0.000141863
-0.000486599
-0.000511742
0.000146402
-9.45343e-08
1.08955e-05
3.70632e-07
1.74513e-05
2.01088e-05
-2.8298e-05
5.26124e-05
-0.000146309
7.62017e-05
-0.000239122
9.10614e-05
-0.000299181
0.000100354
-0.000336074
0.000106673
-0.000360908
0.000111716
-0.000381224
0.000116295
-0.000400819
0.000120814
-0.000421051
0.000125229
-0.000442999
0.000129695
-0.000465321
0.000134064
-0.000490968
-0.00051586
0.000138183
-1.05047e-07
1.10006e-05
2.71507e-06
1.46312e-05
2.75928e-05
-5.31757e-05
5.62927e-05
-0.000175009
7.66852e-05
-0.000259515
8.90552e-05
-0.000311551
9.66029e-05
-0.000343622
0.000101876
-0.000366182
0.000106273
-0.00038562
0.000110387
-0.000404933
0.000114464
-0.000425127
0.000118428
-0.000446963
0.000122455
-0.000469348
0.000126354
-0.000494867
-0.000519498
0.000129992
-1.96535e-07
1.11971e-05
5.81212e-06
8.62256e-06
3.42717e-05
-8.16353e-05
5.89264e-05
-0.000199664
7.596e-05
-0.000276549
8.621e-05
-0.000321801
9.24413e-05
-0.000349853
9.69054e-05
-0.000370646
0.000100769
-0.000389484
0.00010445
-0.000408614
0.000108103
-0.000428781
0.000111657
-0.000450517
0.00011524
-0.000472931
0.000118625
-0.000498252
-0.000522706
0.000121833
-2.97502e-07
1.14946e-05
9.08145e-06
-7.56391e-07
3.89376e-05
-0.000111491
6.04882e-05
-0.000221214
7.44316e-05
-0.000290492
8.2782e-05
-0.000330151
8.79762e-05
-0.000355047
9.18267e-05
-0.000374497
9.52342e-05
-0.000392891
9.85132e-05
-0.000411893
0.00010176
-0.000432027
0.000104891
-0.000453648
0.000108028
-0.000476069
0.000110966
-0.00050119
-0.000525512
0.000113772
-3.79607e-07
1.18742e-05
1.26898e-05
-1.38258e-05
4.13075e-05
-0.000140109
6.08629e-05
-0.00024077
7.23358e-05
-0.000301965
7.90378e-05
-0.000336853
8.3345e-05
-0.000359354
8.66766e-05
-0.000377828
8.96847e-05
-0.0003959
9.25809e-05
-0.000414789
9.5423e-05
-0.000434869
9.81497e-05
-0.000456374
0.000100861
-0.00047878
0.000103336
-0.000503665
-0.000527892
0.000105715
-5.42423e-07
1.24167e-05
1.69995e-05
-3.13677e-05
4.24799e-05
-0.000165589
5.99625e-05
-0.000258252
6.96824e-05
-0.000311685
7.5079e-05
-0.00034225
7.86306e-05
-0.000362906
8.15042e-05
-0.000380702
8.41379e-05
-0.000398533
8.66625e-05
-0.000417314
8.91137e-05
-0.00043732
9.1435e-05
-0.000458696
9.37075e-05
-0.000481052
9.57522e-05
-0.000505709
-0.000529907
9.77678e-05
-1.74742e-08
1.24341e-05
2.07185e-05
-5.21037e-05
4.32735e-05
-0.000188144
5.82692e-05
-0.000273248
6.65078e-05
-0.000319923
7.09605e-05
-0.000346702
7.38991e-05
-0.000365844
7.63422e-05
-0.000383145
7.86081e-05
-0.000400799
8.07669e-05
-0.000419473
8.28273e-05
-0.000439381
8.47481e-05
-0.000460617
8.66029e-05
-0.000482907
8.82232e-05
-0.00050733
-0.000531504
8.982e-05
7.53882e-07
1.16803e-05
2.37444e-05
-7.50942e-05
4.34536e-05
-0.000207854
5.61104e-05
-0.000285905
6.29773e-05
-0.00032679
6.66944e-05
-0.000350419
6.91544e-05
-0.000368304
7.12096e-05
-0.0003852
7.31112e-05
-0.000402701
7.49003e-05
-0.000421262
7.65755e-05
-0.000441056
7.80999e-05
-0.000462141
7.95287e-05
-0.000484336
8.07333e-05
-0.000508534
-0.000532728
8.19575e-05
1.98678e-06
9.69347e-06
2.58598e-05
-9.89673e-05
4.31821e-05
-0.000225176
5.36704e-05
-0.000296393
5.92701e-05
-0.00033239
6.2352e-05
-0.000353501
6.44129e-05
-0.000370365
6.61116e-05
-0.000386899
6.76532e-05
-0.000404242
6.90731e-05
-0.000422682
7.03615e-05
-0.000442344
7.14878e-05
-0.000463267
7.25027e-05
-0.000485351
7.32947e-05
-0.000509326
-0.000533509
7.40758e-05
3.75513e-06
5.93834e-06
2.70457e-05
-0.000122258
4.24906e-05
-0.000240621
5.10584e-05
-0.000304961
5.55017e-05
-0.000336833
5.79871e-05
-0.000355987
5.96805e-05
-0.000372059
6.10475e-05
-0.000388266
6.22393e-05
-0.000405434
6.32886e-05
-0.000423731
6.4191e-05
-0.000443247
6.49237e-05
-0.000464
6.55195e-05
-0.000485946
6.58833e-05
-0.00050969
-0.000533845
6.62187e-05
5.89667e-06
4.167e-08
2.72683e-05
-0.000143629
4.12949e-05
-0.000254647
4.83208e-05
-0.000311987
5.17363e-05
-0.000340249
5.36544e-05
-0.000357905
5.49837e-05
-0.000373388
5.6023e-05
-0.000389305
5.68701e-05
-0.000406281
5.75531e-05
-0.000424414
5.80706e-05
-0.000443764
5.84053e-05
-0.000464335
5.85856e-05
-0.000486127
5.85272e-05
-0.000509631
-0.000533714
5.83964e-05
8.30047e-06
-8.2588e-06
2.72022e-05
-0.000162531
3.95681e-05
-0.000267013
4.54132e-05
-0.000317832
4.79872e-05
-0.000342823
4.93771e-05
-0.000359295
5.03345e-05
-0.000374345
5.10436e-05
-0.000390014
5.15501e-05
-0.000406788
5.1869e-05
-0.000424733
5.20018e-05
-0.000443897
5.19403e-05
-0.000464273
5.17034e-05
-0.00048589
5.12166e-05
-0.000509145
-0.000533123
5.06255e-05
1.0408e-05
-1.86668e-05
2.71079e-05
-0.000179231
3.75569e-05
-0.000277462
4.23154e-05
-0.000322591
4.42318e-05
-0.000344739
4.51615e-05
-0.000360224
4.57504e-05
-0.000374934
4.61208e-05
-0.000390385
4.6284e-05
-0.000406951
4.6242e-05
-0.000424691
4.59929e-05
-0.000443648
4.55299e-05
-0.00046381
4.48736e-05
-0.000485234
4.39707e-05
-0.000508242
-0.000532065
4.29132e-05
1.18568e-05
-3.05236e-05
2.66535e-05
-0.000194028
3.53389e-05
-0.000286148
3.90788e-05
-0.000326331
4.0453e-05
-0.000346113
4.0995e-05
-0.000360766
4.12321e-05
-0.000375171
4.12609e-05
-0.000390413
4.10791e-05
-0.000406769
4.06769e-05
-0.000424289
4.00468e-05
-0.000443018
3.9183e-05
-0.000462946
3.81031e-05
-0.000484154
3.6778e-05
-0.000506917
-0.000530548
3.52604e-05
1.26422e-05
-4.31658e-05
2.58143e-05
-0.0002072
3.29665e-05
-0.0002933
3.57866e-05
-0.000329151
3.668e-05
-0.000347007
3.68782e-05
-0.000360965
3.6783e-05
-0.000375076
3.64713e-05
-0.000390102
3.59415e-05
-0.000406239
3.51798e-05
-0.000423527
3.41737e-05
-0.000442011
3.29112e-05
-0.000461684
3.14024e-05
-0.000482645
2.96429e-05
-0.000505157
-0.000528579
2.7674e-05
1.28539e-05
-5.60197e-05
2.46232e-05
-0.000218969
3.04657e-05
-0.000299142
3.24868e-05
-0.000331172
3.29407e-05
-0.000347461
3.28155e-05
-0.000360839
3.24006e-05
-0.000374661
3.17537e-05
-0.000389455
3.08766e-05
-0.000405362
2.97554e-05
-0.000422406
2.83757e-05
-0.000440632
2.67259e-05
-0.000460034
2.47988e-05
-0.000480718
2.25621e-05
-0.00050292
-0.000526159
2.01427e-05
1.26546e-05
-6.86743e-05
2.31564e-05
-0.000229471
2.78795e-05
-0.000303865
2.92126e-05
-0.000332505
2.92586e-05
-0.000347507
2.8818e-05
-0.000360399
2.80899e-05
-0.000373933
2.71123e-05
-0.000388477
2.58891e-05
-0.000404139
2.4409e-05
-0.000420926
2.26585e-05
-0.000438881
2.063e-05
-0.000458006
1.83123e-05
-0.0004784
1.55754e-05
-0.000500184
-0.000523247
1.26632e-05
1.21765e-05
-8.08508e-05
2.14874e-05
-0.000238782
2.52383e-05
-0.000307616
2.59792e-05
-0.000333246
2.56479e-05
-0.000347176
2.48946e-05
-0.000359646
2.38542e-05
-0.000372893
2.2549e-05
-0.000387172
2.09829e-05
-0.000402573
1.91451e-05
-0.000419088
1.70228e-05
-0.000436759
1.46153e-05
-0.000455598
1.19315e-05
-0.000475716
8.76551e-06
-0.000497018
-0.000519667
5.18573e-06
1.15094e-05
-9.23602e-05
1.96857e-05
-0.000246958
2.25818e-05
-0.000310512
2.28054e-05
-0.000333469
2.21202e-05
-0.00034649
2.10544e-05
-0.00035858
1.97e-05
-0.000371538
1.80685e-05
-0.000385541
1.61611e-05
-0.000400665
1.39676e-05
-0.000416895
1.1477e-05
-0.000434268
8.68572e-06
-0.000452807
5.59704e-06
-0.000472628
2.27882e-06
-0.000493699
-0.000515241
-2.14757e-06
1.07034e-05
-0.000103064
1.78028e-05
-0.000254058
1.99417e-05
-0.000312651
1.9705e-05
-0.000333233
1.86825e-05
-0.000345468
1.73028e-05
-0.0003572
1.56316e-05
-0.000369867
1.36734e-05
-0.000383582
1.14253e-05
-0.000398417
8.87757e-06
-0.000414347
6.02403e-06
-0.000431415
2.84125e-06
-0.000449624
-7.4179e-07
-0.000469045
-4.37089e-06
-0.00049007
-0.000510726
-8.88551e-06
9.73473e-06
-0.000112798
1.58868e-05
-0.00026021
1.73523e-05
-0.000314117
1.6694e-05
-0.000332574
1.53404e-05
-0.000344114
1.36444e-05
-0.000355504
1.16536e-05
-0.000367876
9.36543e-06
-0.000381294
6.77353e-06
-0.000395825
3.87322e-06
-0.000411447
6.54196e-07
-0.000428196
-2.87069e-06
-0.000446099
-6.63017e-06
-0.000465285
-1.09871e-05
-0.000485713
-0.000506087
-1.56263e-05
8.80349e-06
-0.000121602
1.39867e-05
-0.000265393
1.48293e-05
-0.000314959
1.37766e-05
-0.000331522
1.20952e-05
-0.000342433
1.00811e-05
-0.00035349
7.76692e-06
-0.000365562
5.14114e-06
-0.000378668
2.19681e-06
-0.000392881
-1.04092e-06
-0.000408209
-4.5748e-06
-0.000424662
-8.41798e-06
-0.000442256
-1.25634e-05
-0.00046114
-1.73734e-05
-0.000480903
-0.000501159
-2.23017e-05
7.91048e-06
-0.000129512
1.21387e-05
-0.000269621
1.23855e-05
-0.000315206
1.09516e-05
-0.000330088
8.94812e-06
-0.000340429
6.61295e-06
-0.000351155
3.96632e-06
-0.000362915
9.81086e-07
-0.000375683
-2.25929e-06
-0.000389641
-5.81412e-06
-0.000404654
-9.69745e-06
-0.000420779
-1.3886e-05
-0.000438068
-1.84495e-05
-0.000456576
-2.35943e-05
-0.000475759
-0.000495874
-2.88792e-05
7.03495e-06
-0.000136547
1.0357e-05
-0.000272943
1.00298e-05
-0.000314879
8.2215e-06
-0.00032828
5.89948e-06
-0.000338107
3.23254e-06
-0.000348488
2.08799e-07
-0.000359892
-3.0207e-06
-0.000372454
-6.59245e-06
-0.000386069
-1.04969e-05
-0.000400749
-1.47197e-05
-0.000416556
-1.92712e-05
-0.000433516
-2.42615e-05
-0.000451586
-2.96876e-05
-0.000470332
-0.000490211
-3.53503e-05
6.18305e-06
-0.00014273
8.65128e-06
-0.000275411
7.76693e-06
-0.000313995
5.58888e-06
-0.000326101
2.94275e-06
-0.000335461
-1.05514e-07
-0.00034544
-3.3345e-06
-0.000356663
-6.92377e-06
-0.000368864
-1.08375e-05
-0.000382155
-1.50784e-05
-0.000396509
-1.96408e-05
-0.000411993
-2.45575e-05
-0.000428599
-2.99279e-05
-0.000446215
-3.56614e-05
-0.000464599
-0.000484188