/*--------------------------------*- C++ -*----------------------------------*\
  =========                 |
  \\      /  F ield         | OpenFOAM: The Open Source CFD Toolbox
   \\    /   O peration     | Website:  https://openfoam.org
    \\  /    A nd           | Version:  7
     \\/     M anipulation  |
\*---------------------------------------------------------------------------*/
FoamFile
{
    version     2.0;
    format      ascii;
    class       volVectorField;
    location    "18.0015";
    object      U;
}
// * * * * * * * * * * * * * * * * * * * * * * * * * * * * * * * * * * * * * //

dimensions      [0 1 -1 0 0 0 0];

internalField   nonuniform List<vector> 
18750
(
(-0.0396693 0.0249355 -1.36977e-20)
(-0.138944 0.0301952 4.34897e-21)
(-0.245031 0.0282624 4.15838e-20)
(-0.338082 0.0268215 9.04919e-21)
(-0.430413 0.0255303 -2.04833e-20)
(-0.51683 0.0244092 -4.89462e-20)
(-0.601232 0.0233741 4.94846e-20)
(-0.681411 0.0224135 3.24479e-20)
(-0.759354 0.0214905 -2.4315e-20)
(-0.833857 0.0206 -6.52065e-20)
(-0.90614 0.0197112 2.48863e-19)
(-0.975167 0.0187891 -2.05705e-19)
(-1.04132 0.0177815 1.22913e-19)
(-1.10324 0.0166849 -2.42168e-19)
(-1.16082 0.0155692 5.64292e-20)
(-0.0413294 0.0741984 8.55776e-21)
(-0.140207 0.0900015 1.13438e-20)
(-0.245122 0.0842833 4.43283e-21)
(-0.337043 0.0800027 5.84693e-20)
(-0.428195 0.07617 1.18067e-19)
(-0.513371 0.0728405 1.54602e-19)
(-0.596402 0.0697649 -1.29873e-19)
(-0.675048 0.0669089 2.10484e-19)
(-0.751241 0.0641622 1.95927e-19)
(-0.823751 0.0615086 -6.25898e-20)
(-0.89378 0.0588588 -2.63899e-19)
(-0.960282 0.0561149 1.28776e-20)
(-1.02359 0.0531269 5.96763e-20)
(-1.08226 0.0498805 1.57811e-19)
(-1.13611 0.0465595 -2.42439e-19)
(-0.0445859 0.122271 2.36531e-20)
(-0.142695 0.148791 3.18781e-20)
(-0.245306 0.13947 -1.00341e-19)
(-0.335005 0.13241 5.22142e-21)
(-0.423849 0.126078 -2.20775e-19)
(-0.506609 0.120549 7.08008e-20)
(-0.586991 0.115421 -1.97381e-19)
(-0.662701 0.11064 -2.32869e-20)
(-0.735575 0.106025 -1.50357e-19)
(-0.804348 0.101553 4.50671e-19)
(-0.870198 0.0970848 5.98929e-19)
(-0.932085 0.0924817 5.29902e-19)
(-0.990291 0.0875201 3.1291e-19)
(-1.04322 0.0821659 2.12774e-19)
(-1.09059 0.0766555 -3.96871e-19)
(-0.0493177 0.168391 -1.13327e-19)
(-0.146332 0.205908 1.30509e-19)
(-0.24558 0.193288 -9.503e-20)
(-0.33203 0.183558 -1.93268e-19)
(-0.417527 0.174803 3.26355e-19)
(-0.496816 0.167099 -2.99699e-19)
(-0.573432 0.15991 4.36612e-19)
(-0.645018 0.153169 -3.67608e-19)
(-0.7133 0.146635 2.58205e-19)
(-0.77698 0.140278 -6.32131e-19)
(-0.837232 0.133928 -9.08711e-19)
(-0.893061 0.127432 5.06499e-20)
(-0.944731 0.120527 -1.7377e-19)
(-0.990522 0.113152 -3.80866e-19)
(-1.03001 0.105521 1.4572e-18)
(-0.0553473 0.21184 -8.14265e-20)
(-0.151003 0.26072 1.82425e-19)
(-0.245932 0.245235 4.37067e-20)
(-0.328196 0.233001 1.55185e-19)
(-0.40943 0.22194 -1.98595e-19)
(-0.484344 0.212109 8.52344e-20)
(-0.556272 0.202868 1.03447e-18)
(-0.622808 0.194145 1.58973e-19)
(-0.685558 0.185653 2.83356e-19)
(-0.743214 0.177363 -9.97819e-20)
(-0.796971 0.169089 8.50734e-20)
(-0.845936 0.160698 -3.5151e-20)
(-0.890416 0.15192 -9.90837e-19)
(-0.928613 0.142668 -5.57768e-19)
(-0.959989 0.133068 -1.65212e-18)
(-0.0624813 0.251997 1.85746e-19)
(-0.156578 0.312618 5.3798e-20)
(-0.24633 0.294847 -8.66862e-20)
(-0.323581 0.280349 -6.30169e-20)
(-0.399781 0.267143 6.388e-20)
(-0.469586 0.255268 -8.91762e-19)
(-0.536111 0.24401 -1.12562e-19)
(-0.596924 0.233311 5.64501e-20)
(-0.653522 0.222852 -4.17372e-19)
(-0.704609 0.212617 -5.75051e-19)
(-0.751421 0.202423 4.20483e-19)
(-0.793218 0.192178 -4.17879e-19)
(-0.830421 0.18164 1.30235e-18)
(-0.861223 0.170709 -1.02344e-18)
(-0.884963 0.159383 2.25449e-18)
(-0.070495 0.288262 -1.61211e-19)
(-0.162868 0.36102 -2.77925e-19)
(-0.246694 0.341734 1.08683e-19)
(-0.318253 0.325276 8.13787e-19)
(-0.388804 0.310132 8.14786e-19)
(-0.452935 0.296331 -2.80228e-19)
(-0.513544 0.283129 1.43053e-19)
(-0.568197 0.270493 9.17315e-20)
(-0.618295 0.258099 9.0181e-19)
(-0.662578 0.245955 1.24819e-18)
(-0.702328 0.233892 -6.07837e-19)
(-0.736994 0.221881 -1.17393e-18)
(-0.767171 0.209737 -2.19236e-18)
(-0.791116 0.197369 3.80832e-19)
(-0.808028 0.184627 -2.75839e-18)
(-0.079118 0.320017 -1.38004e-19)
(-0.169655 0.405446 -1.64034e-19)
(-0.246913 0.385585 -1.1865e-18)
(-0.312264 0.367524 4.16872e-19)
(-0.37671 0.350686 -4.91404e-19)
(-0.434767 0.335123 3.29793e-19)
(-0.489122 0.320088 3.49509e-19)
(-0.537373 0.305595 -1.52571e-18)
(-0.580838 0.291339 -1.01483e-18)
(-0.618307 0.277365 -1.71705e-18)
(-0.65111 0.263534 -2.85871e-19)
(-0.678888 0.249888 1.24727e-18)
(-0.702444 0.23632 4.91018e-18)
(-0.720167 0.222776 -7.55784e-19)
(-0.731092 0.208962 1.35252e-18)
(-0.0880045 0.346655 7.46072e-19)
(-0.176663 0.445474 3.01085e-19)
(-0.246862 0.426178 1.2998e-18)
(-0.305656 0.406904 -9.46899e-19)
(-0.363686 0.388653 4.43621e-19)
(-0.415413 0.371527 -7.35944e-19)
(-0.463332 0.35481 -1.68567e-18)
(-0.505096 0.338577 1.49801e-18)
(-0.541957 0.322569 1.78707e-19)
(-0.572768 0.306888 2.56522e-18)
(-0.598879 0.291431 -8.38413e-19)
(-0.620108 0.276312 -3.80517e-18)
(-0.637466 0.261509 -2.33293e-18)
(-0.649532 0.247038 2.45777e-19)
(-0.655178 0.232484 -1.14407e-18)
(-0.0967546 0.367693 -6.15768e-19)
(-0.183581 0.480809 -3.51678e-19)
(-0.24641 0.463349 4.44777e-19)
(-0.298453 0.443286 6.88909e-20)
(-0.349885 0.42393 -1.73834e-19)
(-0.395158 0.405486 -1.99967e-19)
(-0.436588 0.387275 7.70288e-19)
(-0.471905 0.369453 -9.13063e-19)
(-0.502301 0.351835 8.9903e-19)
(-0.526697 0.334594 1.12596e-18)
(-0.546442 0.317677 -2.00229e-18)
(-0.561485 0.301263 3.80549e-18)
(-0.573013 0.285407 4.47872e-19)
(-0.579848 0.270223 6.14859e-19)
(-0.580738 0.255222 1.41374e-18)
(-0.104887 0.382629 1.1474e-18)
(-0.190019 0.511117 -3.76291e-19)
(-0.245396 0.497 -1.67192e-18)
(-0.290661 0.476591 6.57777e-19)
(-0.335429 0.456473 -3.79712e-19)
(-0.374232 0.436987 4.44004e-19)
(-0.409227 0.417497 3.28065e-18)
(-0.438224 0.398263 1.57816e-18)
(-0.462364 0.379197 1.04732e-18)
(-0.480646 0.360565 -3.50965e-18)
(-0.494382 0.34237 3.84242e-18)
(-0.503598 0.324846 1.41161e-18)
(-0.509594 0.308107 -2.28183e-18)
(-0.511443 0.292366 2.77256e-18)
(-0.507882 0.277141 -9.87045e-20)
(-0.111896 0.391203 2.29384e-19)
(-0.19562 0.536366 5.97214e-20)
(-0.243686 0.527048 -1.10536e-19)
(-0.282276 0.506785 -1.17422e-18)
(-0.320399 0.486279 2.33562e-18)
(-0.352819 0.466058 -1.18848e-18)
(-0.381516 0.445533 -3.47947e-18)
(-0.404388 0.425088 1.06618e-18)
(-0.422524 0.404751 -1.6992e-18)
(-0.434999 0.384895 2.63652e-18)
(-0.443074 0.365602 -4.75829e-18)
(-0.446793 0.347145 3.73137e-19)
(-0.447474 0.329665 2.03585e-18)
(-0.444387 0.313455 -4.28394e-18)
(-0.4365 0.298117 -1.0112e-18)
(-0.117056 0.392823 -7.54744e-19)
(-0.199915 0.556294 2.17193e-19)
(-0.241113 0.553421 6.67661e-19)
(-0.273257 0.53387 -3.06507e-20)
(-0.304854 0.513396 -3.17783e-18)
(-0.331053 0.49276 3.05217e-19)
(-0.353653 0.471452 1.1323e-18)
(-0.370637 0.450007 -3.07145e-18)
(-0.38304 0.428582 2.30378e-18)
(-0.390014 0.407671 -2.11981e-18)
(-0.392748 0.387446 5.80978e-18)
(-0.391271 0.368224 -2.42277e-18)
(-0.386824 0.350143 2.95305e-18)
(-0.378762 0.333503 6.01256e-18)
(-0.366518 0.31801 2.60519e-18)
(-0.119802 0.387924 -2.97837e-19)
(-0.202589 0.571113 -5.59442e-21)
(-0.237618 0.575974 -2.66337e-20)
(-0.263561 0.557912 -7.62329e-20)
(-0.288813 0.537899 -1.54539e-18)
(-0.309034 0.517173 -6.84986e-19)
(-0.325789 0.495354 1.10862e-18)
(-0.337153 0.473136 6.71649e-19)
(-0.344101 0.450807 -3.9022e-18)
(-0.345855 0.428996 -2.19353e-19)
(-0.343514 0.407975 -1.14012e-18)
(-0.337089 0.388128 2.327e-18)
(-0.327708 0.369571 -3.26486e-18)
(-0.314589 0.352514 -4.6507e-19)
(-0.297396 0.336626 -2.94549e-18)
(-0.11972 0.376711 1.32719e-18)
(-0.203172 0.580329 -1.17974e-18)
(-0.233027 0.594668 -1.60624e-18)
(-0.253076 0.579004 2.85811e-18)
(-0.272303 0.559899 2.51862e-18)
(-0.28683 0.539403 3.22253e-18)
(-0.298019 0.517336 1.37697e-19)
(-0.304043 0.494565 2.19755e-18)
(-0.30581 0.471514 2.94999e-18)
(-0.302601 0.448943 4.41045e-18)
(-0.295415 0.42724 -2.04378e-18)
(-0.284224 0.406872 4.30667e-18)
(-0.270104 0.387971 -2.51125e-20)
(-0.252064 0.370609 -2.19643e-18)
(-0.228998 0.353967 -5.46754e-18)
(-0.116546 0.359137 -8.38273e-19)
(-0.201294 0.58362 1.30803e-18)
(-0.227189 0.609581 8.70597e-19)
(-0.241772 0.597293 -2.69323e-18)
(-0.255313 0.57951 -1.2549e-18)
(-0.264487 0.559546 -2.30078e-19)
(-0.27042 0.537516 -1.69516e-18)
(-0.271392 0.514428 -2.90508e-18)
(-0.268244 0.490825 -4.95864e-18)
(-0.260313 0.467624 -2.15508e-18)
(-0.248447 0.445317 3.03056e-18)
(-0.232584 0.424485 -6.34577e-18)
(-0.213809 0.405296 2.19823e-19)
(-0.191409 0.387675 4.05697e-18)
(-0.160784 0.370606 5.86091e-18)
(-0.110061 0.335134 -2.01564e-18)
(-0.19671 0.580848 1.5655e-18)
(-0.219901 0.620687 -2.70238e-18)
(-0.229662 0.612951 -1.29961e-18)
(-0.237899 0.596877 -7.15992e-20)
(-0.242045 0.577728 1.7891e-18)
(-0.243028 0.556007 2.89174e-18)
(-0.239233 0.5328 9.5587e-19)
(-0.23141 0.508801 1.39191e-18)
(-0.218963 0.485092 -3.9392e-18)
(-0.2026 0.462252 1.07811e-19)
(-0.182122 0.44097 -3.0433e-18)
(-0.158663 0.421527 -2.25763e-18)
(-0.132273 0.40368 -6.4884e-18)
(-0.0945282 0.386995 -8.41138e-20)
(-0.100167 0.304839 1.77386e-18)
(-0.189294 0.571895 2.81063e-19)
(-0.21105 0.627845 4.20081e-19)
(-0.216709 0.625973 3.2238e-18)
(-0.220104 0.612118 1.36187e-18)
(-0.219566 0.594112 -1.66422e-18)
(-0.215911 0.57295 1.31266e-18)
(-0.207622 0.549814 -7.62104e-19)
(-0.195353 0.52559 -1.52626e-18)
(-0.17854 0.501431 1.73165e-18)
(-0.157833 0.478148 -5.86363e-18)
(-0.132779 0.456412 -2.40851e-19)
(-0.104465 0.436609 -3.33869e-18)
(-0.0746655 0.418614 5.17496e-18)
(-0.0286843 0.403155 4.7451e-19)
(-0.0870518 0.26864 -6.7792e-19)
(-0.179058 0.556527 -1.89978e-18)
(-0.200639 0.630772 5.00297e-19)
(-0.202924 0.636298 -3.71501e-18)
(-0.201944 0.625299 -2.53189e-18)
(-0.197084 0.608763 -1.42784e-18)
(-0.189104 0.588412 -2.49513e-18)
(-0.176585 0.565553 2.41656e-18)
(-0.16008 0.541242 3.40122e-18)
(-0.139036 0.516735 6.64337e-18)
(-0.114119 0.493059 -3.00554e-19)
(-0.0846114 0.47086 7.50808e-18)
(-0.0509109 0.450649 2.9606e-18)
(-0.0187377 0.432576 2.3231e-18)
(0.0373216 0.419008 -5.15425e-18)
(-0.0714 0.227162 1.16595e-18)
(-0.166178 0.534314 2.89095e-18)
(-0.188741 0.62896 1.98159e-18)
(-0.188371 0.643762 2.58847e-18)
(-0.183465 0.636444 6.60892e-21)
(-0.174637 0.621746 1.01558e-18)
(-0.162639 0.602436 2.89233e-20)
(-0.146153 0.58007 -1.85737e-18)
(-0.125601 0.555823 2.91368e-18)
(-0.100412 0.531069 -1.01581e-17)
(-0.0713668 0.507057 2.97363e-18)
(-0.0377547 0.484483 -1.96814e-18)
(0.00237939 0.463457 3.86485e-19)
(0.0350642 0.444881 -2.9475e-18)
(0.103794 0.435417 -3.32558e-18)
(-0.0547506 0.181273 -1.9031e-18)
(-0.151033 0.504559 2.53559e-18)
(-0.175454 0.621614 -6.34795e-19)
(-0.173141 0.648035 -1.09656e-18)
(-0.164756 0.645509 2.29151e-18)
(-0.1523 0.633069 2.38893e-19)
(-0.136567 0.615069 -6.81616e-19)
(-0.116351 0.593394 -8.01764e-20)
(-0.0919647 0.569373 -1.87831e-18)
(-0.062678 0.544452 4.87323e-18)
(-0.0293559 0.520051 2.9894e-18)
(0.00745276 0.497384 1.58642e-18)
(0.0559346 0.475709 -1.46592e-19)
(0.0867079 0.455204 3.78581e-18)
(0.171168 0.452131 -3.38916e-19)
(-0.0397341 0.132577 5.57035e-19)
(-0.134189 0.466268 -6.04244e-19)
(-0.160845 0.607652 4.74889e-19)
(-0.157322 0.648547 2.0309e-18)
(-0.145932 0.652314 -1.29749e-18)
(-0.130175 0.642721 -8.47808e-19)
(-0.11098 0.626289 -1.583e-18)
(-0.0872296 0.605518 1.25086e-18)
(-0.05922 0.581905 -1.30108e-18)
(-0.0259845 0.556924 -1.50525e-18)
(0.0123265 0.531979 -2.58227e-18)
(0.0506752 0.509443 -1.49964e-18)
(0.110102 0.487285 5.47422e-18)
(0.135252 0.462537 -7.53079e-18)
(0.240546 0.470939 -1.99317e-19)
(-0.0286291 0.0844111 2.38285e-18)
(-0.11631 0.418244 -9.2515e-19)
(-0.144922 0.585801 -2.4071e-18)
(-0.140978 0.644446 -6.43441e-19)
(-0.127129 0.65645 3.40064e-18)
(-0.108396 0.650533 -7.32e-20)
(-0.0860147 0.636096 1.65035e-18)
(-0.0588781 0.616381 -9.06466e-19)
(-0.0273799 0.593291 -3.52386e-18)
(0.00922802 0.568508 8.16298e-18)
(0.0541858 0.542699 -6.00371e-18)
(0.0915254 0.520666 1.77816e-18)
(0.166387 0.500532 -7.79707e-18)
(0.1796 0.463765 2.75782e-18)
(0.310209 0.487163 2.26142e-18)
(-0.0207701 0.0415576 -8.48542e-19)
(-0.097669 0.359363 -2.73501e-18)
(-0.127621 0.554772 1.237e-18)
(-0.124159 0.634492 2.19053e-19)
(-0.108475 0.657228 -3.06107e-18)
(-0.0871123 0.656251 1.89523e-18)
(-0.0618574 0.644288 9.9116e-20)
(-0.0315352 0.625939 -4.68549e-19)
(0.00372158 0.603372 -3.62534e-18)
(0.0422865 0.579181 -4.20164e-19)
(0.0966457 0.552087 4.78784e-18)
(0.128835 0.528762 4.05626e-19)
(0.22596 0.51853 1.13133e-18)
(0.222558 0.465393 3.24473e-18)
(0.378463 0.495459 -8.23719e-18)
(-0.0130632 0.00820469 -1.29054e-18)
(-0.0784189 0.289493 4.12623e-20)
(-0.108876 0.513342 -1.56909e-18)
(-0.106909 0.617036 1.27378e-18)
(-0.0901351 0.653515 1.73269e-18)
(-0.0665005 0.659323 -1.2999e-18)
(-0.0386939 0.650726 -2.24339e-19)
(-0.00566007 0.633953 -1.08723e-18)
(0.0343155 0.611764 2.70798e-18)
(0.0724286 0.588702 5.26888e-19)
(0.140509 0.561675 -6.94627e-18)
(0.161269 0.530224 1.89804e-18)
(0.286852 0.536162 1.16764e-18)
(0.267101 0.473672 -5.24952e-18)
(0.445973 0.501515 1.18633e-18)
(-0.0039057 -0.0133888 2.91965e-19)
(-0.0598606 0.211784 7.85657e-19)
(-0.0889661 0.460176 1.46907e-18)
(-0.0892895 0.58997 -1.24435e-18)
(-0.0722453 0.643858 -4.94022e-20)
(-0.0468604 0.658946 3.15107e-18)
(-0.0166685 0.654762 -1.43452e-19)
(0.017964 0.640448 -3.78689e-21)
(0.0647147 0.61814 4.40442e-18)
(0.0985718 0.595379 -2.52307e-18)
(0.186094 0.574283 1.78196e-18)
(0.190261 0.527135 -5.03589e-18)
(0.345473 0.545348 4.2978e-19)
(0.312921 0.48376 -1.32124e-18)
(0.511367 0.506384 2.27822e-18)
(0.00508236 -0.024044 -2.17792e-19)
(-0.0435206 0.134894 9.80367e-19)
(-0.0689014 0.394158 -1.30445e-18)
(-0.0714747 0.550901 2.74882e-18)
(-0.0550569 0.626103 -2.31435e-18)
(-0.0286046 0.653864 -2.07356e-18)
(0.00416052 0.655761 -1.29153e-18)
(0.0383683 0.64448 -2.78788e-18)
(0.0948217 0.623124 -5.38158e-18)
(0.120133 0.596072 8.11714e-19)
(0.231188 0.588514 4.1935e-18)
(0.219118 0.527007 3.34473e-18)
(0.399236 0.545274 5.56233e-19)
(0.359854 0.49168 -2.76021e-18)
(0.570778 0.505477 -1.37135e-18)
(0.0118102 -0.0272168 5.24011e-19)
(-0.0277552 0.0707652 9.1986e-19)
(-0.0493438 0.315315 -3.92645e-18)
(-0.0538939 0.4977 -2.71855e-18)
(-0.0387432 0.597866 -8.06889e-20)
(-0.0126129 0.642001 2.17985e-18)
(0.0236852 0.652266 -8.00453e-19)
(0.0547726 0.645364 6.19593e-18)
(0.123913 0.627693 4.97707e-19)
(0.137413 0.58996 -3.45417e-18)
(0.271473 0.595832 -3.23075e-18)
(0.250396 0.532096 -5.12512e-18)
(0.443135 0.539617 5.64372e-18)
(0.409102 0.496217 3.70692e-18)
(0.621189 0.498821 -1.07697e-20)
(0.0157419 -0.0266323 -1.45901e-18)
(-0.0106248 0.0261412 -2.70814e-18)
(-0.0310932 0.226318 1.95422e-18)
(-0.0371479 0.428801 2.39799e-18)
(-0.0236876 0.555856 1.49472e-18)
(0.000365034 0.620976 -1.51806e-18)
(0.0411732 0.642472 3.88316e-18)
(0.0665041 0.639233 -5.53965e-18)
(0.149892 0.632984 6.14017e-18)
(0.153604 0.581725 3.92194e-18)
(0.299377 0.590452 -1.21982e-18)
(0.28637 0.5342 -1.68678e-18)
(0.471477 0.530592 -2.26508e-18)
(0.457027 0.493886 -4.4572e-18)
(0.665601 0.484779 5.32558e-18)
(0.0177354 -0.024813 4.11275e-18)
(0.00600695 -0.00037675 3.15782e-18)
(-0.0149051 0.140151 7.1851e-19)
(-0.0225853 0.345168 -4.07635e-20)
(-0.0101491 0.497102 -5.17409e-19)
(0.00898569 0.586461 -6.13223e-19)
(0.0557351 0.625179 -3.03547e-18)
(0.0737031 0.624003 5.27673e-18)
(0.167352 0.629933 -4.11676e-18)
(0.173587 0.577977 -3.1933e-20)
(0.310283 0.576517 3.946e-18)
(0.323301 0.526957 2.73786e-18)
(0.486158 0.51922 2.72817e-18)
(0.498201 0.483212 -2.63718e-20)
(0.696236 0.458779 -3.18989e-18)
(0.0191652 -0.0229594 -2.46847e-18)
(0.0198077 -0.0141464 -2.56122e-18)
(0.00129789 0.0742477 7.97521e-19)
(-0.0105547 0.253204 -1.29244e-18)
(0.00115881 0.420205 -6.09621e-19)
(0.0132548 0.534646 2.21098e-18)
(0.0638124 0.594978 -5.85033e-19)
(0.0784831 0.600263 -5.41186e-19)
(0.171362 0.61549 -1.67069e-18)
(0.194099 0.563576 -3.81224e-18)
(0.309648 0.568547 1.7736e-18)
(0.358825 0.499931 -2.07477e-18)
(0.488392 0.518118 -3.18342e-18)
(0.531487 0.437181 -1.41467e-18)
(0.717735 0.468056 5.68058e-18)
(0.0212853 -0.0214479 2.7833e-18)
(0.0312407 -0.0204157 -2.18711e-18)
(0.0186997 0.0339721 -3.60233e-18)
(0.000988205 0.167161 3.70672e-19)
(0.0100898 0.329432 8.74135e-19)
(0.0131583 0.463015 -6.15336e-19)
(0.0638165 0.548312 1.68522e-18)
(0.0785826 0.560613 3.57618e-19)
(0.161811 0.590452 -2.6415e-19)
(0.213047 0.538411 1.02216e-19)
(0.288113 0.540854 -1.84768e-18)
(0.410954 0.488073 2.22965e-19)
(0.451672 0.482033 1.02129e-18)
(0.601838 0.419312 -7.94808e-19)
(0.689188 0.449673 5.47492e-18)
(0.0246714 -0.0206306 5.83529e-19)
(0.041756 -0.023248 -1.25213e-18)
(0.0352013 0.0126612 3.50312e-18)
(0.0144292 0.102185 2.7197e-18)
(0.0167078 0.238221 -2.73945e-18)
(0.0104602 0.374805 -1.85962e-19)
(0.0527614 0.482001 -1.27119e-18)
(0.0763418 0.505934 -4.80261e-19)
(0.132823 0.537727 3.47761e-18)
(0.23075 0.516135 1.74442e-18)
(0.243054 0.475864 2.40668e-18)
(0.454962 0.482051 -1.91586e-18)
(0.370668 0.392932 1.28384e-18)
(0.681174 0.423917 -7.2249e-19)
(0.526649 0.323274 -6.98509e-18)
(0.0293498 -0.0208344 4.6521e-19)
(0.0517202 -0.0253307 7.49386e-19)
(0.0486939 0.00114768 -1.92807e-18)
(0.0284032 0.0613989 -2.20619e-18)
(0.0209676 0.161796 -2.03575e-18)
(0.00672906 0.281961 1.7517e-19)
(0.033037 0.397089 1.48906e-18)
(0.0643947 0.437195 -2.69593e-18)
(0.0997596 0.462923 -1.42223e-18)
(0.211102 0.461445 7.87576e-19)
(0.220753 0.415358 -2.21202e-18)
(0.410054 0.41404 2.15427e-19)
(0.32721 0.313653 1.51535e-18)
(0.639293 0.361158 -2.08448e-18)
(0.442694 0.218147 1.6676e-18)
(0.0347938 -0.022098 -1.04697e-18)
(0.0602463 -0.0282638 2.37504e-18)
(0.0578648 -0.00767043 1.57457e-18)
(0.0384573 0.035596 1.05996e-18)
(0.0221965 0.105081 1.74049e-18)
(0.000509402 0.197714 -1.74933e-19)
(0.0105868 0.304284 -1.37958e-18)
(0.0370428 0.352259 2.99345e-19)
(0.0686109 0.382667 1.87073e-18)
(0.160074 0.366255 -3.0196e-18)
(0.201471 0.354579 -1.42535e-18)
(0.318413 0.308879 1.09373e-19)
(0.328557 0.265048 -4.41426e-19)
(0.611163 0.300898 2.53031e-18)
(0.702492 0.302765 -2.33946e-18)
(0.0399833 -0.0241016 1.13917e-18)
(0.0657171 -0.0326451 7.57749e-19)
(0.0612664 -0.0177909 -9.32889e-20)
(0.0408564 0.0142649 -6.86913e-19)
(0.0179163 0.0621666 1.55692e-19)
(-0.0105835 0.127558 -2.02659e-18)
(-0.013435 0.214749 4.55659e-19)
(-0.00111154 0.258001 -9.02493e-19)
(0.0303503 0.295619 -9.3803e-19)
(0.104886 0.263241 2.07191e-18)
(0.143516 0.25702 3.01714e-18)
(0.266402 0.225293 1.44527e-18)
(0.409047 0.242913 1.48557e-18)
(0.752861 0.32534 -1.92745e-18)
(0.94804 0.381567 -2.01609e-18)
(0.0436093 -0.0262503 9.38266e-19)
(0.0665041 -0.0381688 -1.79473e-18)
(0.0576537 -0.0302505 -8.67133e-19)
(0.0340021 -0.00806288 -1.93484e-18)
(0.00545865 0.0245667 8.73267e-19)
(-0.0282156 0.0681943 2.14383e-18)
(-0.0422228 0.132472 -2.46046e-18)
(-0.0433819 0.16337 8.65687e-19)
(-0.0149399 0.201581 1.64755e-18)
(0.0370758 0.159098 4.55238e-19)
(0.105366 0.158411 -1.97968e-18)
(0.33533 0.200343 -8.32308e-19)
(0.614853 0.281533 9.51206e-22)
(0.924086 0.372796 1.11803e-18)
(1.06427 0.405875 4.35321e-18)
(0.0444154 -0.027815 -1.52333e-18)
(0.0615875 -0.043898 -1.5258e-18)
(0.046658 -0.0442462 8.51316e-19)
(0.0182008 -0.03241 3.43789e-18)
(-0.0159108 -0.0126615 -2.23682e-18)
(-0.0537791 0.0139296 6.42845e-19)
(-0.0786889 0.0560847 9.58605e-19)
(-0.0897488 0.0729138 -7.4178e-20)
(-0.0717785 0.104387 2.04378e-19)
(0.00317807 0.0788135 9.28909e-19)
(0.206279 0.136044 -8.70229e-19)
(0.526607 0.239042 -1.8318e-18)
(0.821484 0.337053 -1.67564e-18)
(1.02728 0.395017 1.39179e-18)
(1.15425 0.430213 4.26103e-19)
(0.0415572 -0.0280875 -3.73774e-19)
(0.0508985 -0.04851 3.01095e-18)
(0.0291301 -0.0577417 6.26752e-19)
(-0.0048381 -0.0566496 8.94838e-19)
(-0.0448181 -0.0490777 8.19205e-19)
(-0.087946 -0.0360905 7.96398e-19)
(-0.122803 -0.0129257 -2.91137e-19)
(-0.134163 -0.00572052 5.16529e-19)
(-0.0946582 0.0261058 2.54045e-19)
(0.0985143 0.0708244 1.1643e-18)
(0.418939 0.183871 6.62165e-20)
(0.73219 0.29843 1.27409e-18)
(0.952543 0.367039 -1.05558e-18)
(1.11202 0.416897 -1.03233e-18)
(1.1991 0.43539 6.99776e-19)
(0.0348905 -0.0265361 1.34616e-18)
(0.0353986 -0.0504987 -1.23708e-18)
(0.00721337 -0.0678372 1.21159e-19)
(-0.0315427 -0.0763459 -1.82921e-18)
(-0.0761235 -0.0783231 -1.50862e-18)
(-0.121845 -0.0740974 2.58546e-18)
(-0.155156 -0.061482 7.38152e-19)
(-0.136572 -0.0512365 -1.07215e-18)
(-0.0123128 0.00515535 2.69489e-19)
(0.307596 0.125361 -3.14305e-18)
(0.63537 0.247932 1.13089e-18)
(0.878963 0.336762 -1.36058e-18)
(1.05364 0.39265 1.67308e-18)
(1.15819 0.423157 -1.87005e-19)
(1.21659 0.431883 -1.01941e-18)
(0.0251068 -0.0229646 -2.09876e-18)
(0.0170254 -0.0485988 -2.1333e-18)
(-0.0157876 -0.0715751 -2.18867e-18)
(-0.0566678 -0.0858059 -1.63265e-18)
(-0.100126 -0.0918935 1.09748e-18)
(-0.138057 -0.0886605 -4.3985e-18)
(-0.151982 -0.0745457 4.01532e-19)
(-0.0709998 -0.049153 3.68407e-19)
(0.178634 0.0593474 2.05025e-19)
(0.525764 0.194821 1.47357e-18)
(0.798543 0.295654 -1.21494e-18)
(0.99216 0.367804 2.99098e-18)
(1.11225 0.40295 -6.37329e-19)
(1.18323 0.423023 -1.25416e-18)
(1.23246 0.43057 7.07789e-19)
(0.0135309 -0.0176598 3.70044e-19)
(-0.00180384 -0.0424228 1.72888e-18)
(-0.0361142 -0.0673712 2.45873e-18)
(-0.0746423 -0.0829159 4.06066e-19)
(-0.109437 -0.0877632 1.93389e-18)
(-0.128211 -0.0784192 1.06963e-18)
(-0.109925 -0.0582905 3.2611e-19)
(0.0652336 0.000806237 -1.67037e-18)
(0.396934 0.138467 -1.01165e-19)
(0.703623 0.251216 7.51042e-19)
(0.925358 0.333289 2.98989e-18)
(1.06459 0.383626 -4.08144e-19)
(1.14999 0.407326 1.0852e-18)
(1.2023 0.422882 1.03235e-18)
(1.2319 0.421945 1.6642e-18)
(0.00162351 -0.0113392 6.78916e-19)
(-0.019093 -0.0328758 -2.27145e-18)
(-0.0516103 -0.0567178 -4.9151e-19)
(-0.08298 -0.0704216 2.5145e-20)
(-0.103713 -0.0709037 -3.59787e-18)
(-0.097747 -0.0542419 9.21133e-19)
(-0.0344223 -0.0333593 -4.58017e-19)
(0.252184 0.0757207 5.40136e-19)
(0.585778 0.202211 1.83158e-18)
(0.845286 0.29437 -6.59798e-19)
(1.01263 0.356911 -2.30112e-18)
(1.11465 0.393473 -3.3645e-19)
(1.17482 0.409311 -3.65678e-19)
(1.20584 0.416543 -7.95266e-19)
(1.23221 0.415576 -1.7987e-18)
(-0.00929026 -0.00500784 1.41507e-19)
(-0.0337206 -0.0217102 6.14199e-19)
(-0.061966 -0.0424333 -1.5853e-18)
(-0.0833623 -0.0529115 6.59083e-19)
(-0.0877627 -0.0491628 1.4917e-18)
(-0.0577049 -0.0316084 -6.22355e-19)
(0.0798045 0.00850576 -1.19368e-19)
(0.440227 0.142923 -1.41454e-18)
(0.742804 0.252827 3.08001e-19)
(0.950023 0.32541 -1.07505e-18)
(1.0756 0.373947 1.09536e-18)
(1.14725 0.398284 -9.24305e-19)
(1.1853 0.406041 1.6401e-18)
(1.21068 0.412516 -6.1975e-19)
(1.23113 0.409233 -1.30285e-18)
(-0.0184194 0.000575734 7.26721e-19)
(-0.0453447 -0.0106495 4.55509e-19)
(-0.0680611 -0.0274631 4.10336e-19)
(-0.0786845 -0.0349279 9.91444e-20)
(-0.0671781 -0.0295535 6.84936e-19)
(-0.00560841 -0.0210924 -1.60267e-18)
(0.24573 0.0727915 8.66088e-19)
(0.607469 0.199153 2.0446e-18)
(0.865411 0.291822 -2.17878e-19)
(1.02761 0.348315 1.62293e-18)
(1.11753 0.384265 1.00208e-18)
(1.16577 0.3985 1.7549e-19)
(1.1941 0.404482 3.35209e-19)
(1.21048 0.407073 6.61157e-19)
(1.22549 0.401435 1.52176e-18)
(-0.0256153 0.00492812 1.10652e-18)
(-0.054213 -0.00109373 1.57565e-18)
(-0.0711388 -0.0139849 -1.4178e-18)
(-0.07163 -0.0190675 1.2809e-18)
(-0.0462984 -0.0177396 -2.93868e-18)
(0.0767865 -0.00144276 6.90453e-19)
(0.429954 0.136088 -2.4507e-19)
(0.749675 0.245436 -1.27244e-18)
(0.959682 0.321617 -2.33406e-18)
(1.08183 0.364121 -9.24073e-19)
(1.14481 0.390282 -2.35033e-18)
(1.17912 0.398574 1.47954e-18)
(1.19608 0.400823 -2.01796e-18)
(1.20859 0.40141 1.38051e-18)
(1.22374 0.396417 9.43481e-19)
(-0.0309765 0.00785813 -2.62245e-18)
(-0.0608101 0.00616713 9.26964e-20)
(-0.0722727 -0.00310556 1.84984e-19)
(-0.0639509 -0.00617173 3.56998e-19)
(-0.0167161 -0.016325 1.88999e-19)
(0.21405 0.0534694 1.35196e-18)
(0.589589 0.189968 7.41626e-19)
(0.862871 0.283009 -2.10343e-19)
(1.02875 0.34383 1.0524e-18)
(1.11925 0.375057 7.04182e-19)
(1.16306 0.394094 3.28434e-19)
(1.18475 0.396247 -8.35821e-19)
(1.19715 0.398041 2.77197e-18)
(1.20787 0.397262 4.77893e-19)
(1.21832 0.39038 -1.02009e-18)
(-0.0348777 0.00946136 2.41485e-18)
(-0.0656397 0.0109108 -1.72754e-18)
(-0.0719386 0.005212 5.4971e-19)
(-0.0570398 0.00118755 -5.71693e-20)
(0.0382445 -0.0124599 2.82618e-18)
(0.385252 0.119414 -2.34755e-19)
(0.726356 0.235967 -8.89117e-19)
(0.95206 0.312855 2.20063e-18)
(1.07961 0.360274 2.08535e-19)
(1.1446 0.382624 9.25087e-19)
(1.17307 0.395374 -1.87277e-18)
(1.18882 0.394639 4.07125e-20)
(1.1969 0.395659 -8.72073e-19)
(1.20428 0.392092 -1.83467e-19)
(1.21436 0.385691 -5.94725e-19)
(-0.0378015 0.00996615 -6.45436e-19)
(-0.0690032 0.0132645 1.80871e-18)
(-0.0705947 0.0118633 1.0934e-18)
(-0.0465331 0.00105566 8.80087e-19)
(0.135514 0.0256511 -4.59826e-19)
(0.537459 0.173982 -1.88058e-19)
(0.837542 0.273845 1.20272e-18)
(1.01953 0.336401 -9.28204e-19)
(1.1151 0.372413 2.91922e-19)
(1.16033 0.387443 -1.54817e-18)
(1.17961 0.396207 1.12105e-19)
(1.18973 0.392575 2.42024e-19)
(1.19481 0.393085 -3.60737e-19)
(1.20234 0.388363 -2.14512e-18)
(1.21027 0.381886 9.00892e-19)
(-0.0402237 0.00957703 -1.13988e-18)
(-0.0709087 0.013947 -1.4283e-18)
(-0.069636 0.0160517 7.57425e-19)
(-0.0193016 -0.00718511 -9.97362e-20)
(0.280045 0.089532 -1.16772e-18)
(0.668804 0.220917 -4.85975e-20)
(0.926576 0.305407 -8.37783e-19)
(1.07017 0.354984 -1.66432e-18)
(1.13979 0.381164 -6.8284e-19)
(1.17066 0.390943 6.38163e-19)
(1.1822 0.395973 5.9594e-19)
(1.18945 0.390863 -6.21241e-20)
(1.19336 0.391523 -9.63908e-19)
(1.19897 0.384468 1.76311e-18)
(1.20498 0.378064 5.47298e-19)
(-0.0424437 0.00846321 1.12352e-18)
(-0.0711931 0.0145639 1.02616e-21)
(-0.0688077 0.0156884 -1.85903e-18)
(0.0373222 -0.00543556 -4.22073e-20)
(0.434685 0.146145 2.85725e-19)
(0.782491 0.259945 5.08968e-19)
(0.99611 0.330663 -9.09089e-19)
(1.10659 0.369217 4.63749e-19)
(1.15604 0.387707 -2.08133e-20)
(1.17592 0.393136 5.23156e-19)
(1.18328 0.395745 -4.75074e-19)
(1.18838 0.389626 -1.34475e-18)
(1.19031 0.389672 -6.49933e-20)
(1.19572 0.381092 -8.51623e-19)
(1.201 0.375685 -7.37994e-19)
(-0.044335 0.00675615 4.58488e-19)
(-0.0705269 0.0161064 -9.34683e-19)
(-0.0633332 0.00974505 9.47897e-19)
(0.127162 0.0302909 -2.98686e-19)
(0.565047 0.193528 -1.63808e-19)
(0.874233 0.293686 -4.59507e-19)
(1.04889 0.351497 7.18525e-19)
(1.1324 0.380421 4.63428e-19)
(1.16634 0.39247 -2.76122e-19)
(1.17894 0.394925 -7.88858e-19)
(1.18283 0.395375 -2.87465e-19)
(1.18619 0.388501 1.37629e-18)
(1.18773 0.38844 8.44869e-19)
(1.19246 0.378324 8.3524e-19)
(1.1956 0.373273 -2.57815e-19)
(-0.0456557 0.00508885 -2.8795e-19)
(-0.0707514 0.0167356 1.03488e-19)
(-0.0436297 -0.00270839 -3.91573e-19)
(0.255138 0.0884321 -6.36108e-21)
(0.680537 0.235104 -3.03691e-19)
(0.949532 0.321559 -4.49945e-19)
(1.08898 0.367932 1.54886e-19)
(1.14998 0.388862 -9.23925e-19)
(1.17242 0.396205 8.21171e-19)
(1.17949 0.396263 1.05061e-18)
(1.18142 0.395096 1.3649e-19)
(1.18396 0.387975 -1.194e-18)
(1.18438 0.387237 -1.1668e-18)
(1.18842 0.375668 -8.83417e-19)
(1.19093 0.371729 3.56616e-19)
(-0.0464301 0.00490489 -9.27814e-19)
(-0.0723518 0.0140474 2.54906e-19)
(-0.00104104 -0.0117916 -1.84125e-19)
(0.398596 0.141664 -2.78669e-21)
(0.781627 0.269488 -7.71068e-20)
(1.00816 0.344229 -1.71202e-19)
(1.11754 0.381144 3.16748e-19)
(1.16137 0.395685 -1.83645e-19)
(1.17541 0.399191 -2.3524e-19)
(1.17906 0.397545 -4.57688e-19)
(1.17955 0.395064 -4.06951e-19)
(1.1809 0.387572 -1.87424e-19)
(1.18094 0.386236 7.23941e-19)
(1.18476 0.373762 -2.83155e-20)
(1.18575 0.370592 5.7004e-19)
(-0.0466855 0.00741043 3.85955e-19)
(-0.0732237 0.00796301 6.45402e-19)
(0.065368 7.70476e-05 1.06432e-19)
(0.524985 0.186179 4.03249e-19)
(0.866312 0.300371 8.80066e-19)
(1.05413 0.363272 3.2236e-19)
(1.13826 0.391666 1.18122e-18)
(1.16842 0.400983 6.18281e-19)
(1.17643 0.40177 3.92766e-19)
(1.17747 0.398796 8.99412e-19)
(1.17693 0.395164 2.78979e-19)
(1.17779 0.387583 5.11958e-19)
(1.1773 0.38549 2.54241e-19)
(1.18031 0.372052 1.1973e-19)
(1.1804 0.369688 3.93224e-19)
(-0.0467217 0.0120443 5.36748e-19)
(-0.0685142 -0.00175071 -9.16234e-19)
(0.157212 0.0395345 -1.73789e-19)
(0.632854 0.225871 4.19721e-19)
(0.936316 0.327142 -8.87098e-19)
(1.0893 0.378997 -3.60209e-19)
(1.15209 0.400142 -7.28611e-19)
(1.17207 0.405492 -2.40054e-20)
(1.17587 0.404145 -1.94042e-19)
(1.17532 0.400122 -7.58779e-19)
(1.17416 0.395584 5.77934e-19)
(1.1742 0.387788 4.39647e-20)
(1.17326 0.384808 -2.47475e-20)
(1.17601 0.370896 2.09897e-19)
(1.17525 0.369338 -4.82835e-19)
(-0.0472474 0.015737 -3.96667e-20)
(-0.0520948 -0.0125717 4.00327e-19)
(0.271855 0.0915575 1.09085e-19)
(0.727104 0.25949 -5.85263e-19)
(0.992453 0.349841 3.91718e-19)
(1.11555 0.392211 1.24408e-19)
(1.16144 0.407221 -3.25772e-19)
(1.17362 0.409333 -1.54208e-19)
(1.17441 0.406428 -4.65893e-19)
(1.17262 0.401581 8.23373e-20)
(1.17082 0.396178 -5.60155e-19)
(1.17041 0.38823 -3.97309e-19)
(1.1692 0.384431 1.06302e-19)
(1.17127 0.370094 1.09945e-19)
(1.16957 0.368934 -1.90958e-19)
(-0.0486725 0.0149506 -1.98975e-19)
(-0.0208413 -0.0182657 -1.26647e-19)
(0.395125 0.14092 2.74728e-19)
(0.809521 0.288917 5.0172e-19)
(1.03696 0.368718 9.7568e-20)
(1.13462 0.403062 -2.68691e-19)
(1.16693 0.413195 3.37031e-19)
(1.1734 0.412917 2.92973e-19)
(1.1721 0.408779 1.51819e-19)
(1.16949 0.403176 2.87123e-20)
(1.16733 0.397052 1.80434e-19)
(1.16634 0.388895 7.97372e-20)
(1.1647 0.384149 -5.59679e-20)
(1.16637 0.369609 -7.05687e-20)
(1.16426 0.36891 6.22882e-20)
(-0.0508972 0.00736052 -9.26003e-20)
(0.0247718 -0.0142264 -1.08665e-19)
(0.509036 0.184348 8.9509e-20)
(0.881359 0.31593 -1.18578e-19)
(1.07211 0.384872 -2.54004e-19)
(1.1479 0.412229 1.96978e-20)
(1.16983 0.418522 1.55777e-19)
(1.17214 0.416342 -1.40257e-19)
(1.16932 0.411213 9.2626e-20)
(1.16603 0.404958 1.86709e-19)
(1.1634 0.398127 2.97743e-20)
(1.16195 0.389708 7.44378e-20)
(1.16014 0.384122 -8.98454e-20)