/*--------------------------------*- C++ -*----------------------------------*\
  =========                 |
  \\      /  F ield         | OpenFOAM: The Open Source CFD Toolbox
   \\    /   O peration     | Website:  https://openfoam.org
    \\  /    A nd           | Version:  7
     \\/     M anipulation  |
\*---------------------------------------------------------------------------*/
FoamFile
{
    version     2.0;
    format      ascii;
    class       volScalarField;
    location    "0.4375";
    object      p;
}
// * * * * * * * * * * * * * * * * * * * * * * * * * * * * * * * * * * * * * //

dimensions      [0 2 -2 0 0 0 0];

internalField   nonuniform List<scalar> 
10000
(
5.21182e-08
5.43962e-07
-1.38791e-05
-4.33707e-05
-8.42149e-05
-0.000132248
-0.000184092
-0.000237092
-0.000289188
-0.000338647
-0.000384092
-0.00042453
-0.000459282
-0.000487844
-0.0005098
-0.000524838
-0.000532789
-0.00053359
-0.000527218
-0.000513646
-0.000492854
-0.000464855
-0.000429721
-0.000387544
-0.000338393
-0.000282298
-0.000219278
-0.000149369
-7.26317e-05
1.0863e-05
0.000101052
0.00019789
0.000301344
0.000411375
0.000527923
0.000650896
0.000780171
0.000915597
0.001057
0.0012042
0.00135697
0.00151508
0.00167825
0.00184614
0.00201837
0.00219448
0.00237397
0.0025563
0.00274088
0.00292709
0.00311426
0.0033017
0.00348868
0.00367441
0.0038581
0.0040389
0.00421597
0.00438843
0.00455539
0.00471601
0.00486944
0.00501484
0.00515144
0.00527852
0.0053954
0.00550148
0.00559624
0.00567922
0.00575007
0.00580854
0.00585447
0.00588783
0.00590868
0.0059172
0.0059137
0.00589858
0.00587237
0.00583569
0.00578928
0.00573397
0.00567068
0.00560041
0.00552426
0.00544336
0.00535892
0.00527221
0.00518455
0.00509726
0.00501174
0.0049294
0.00485166
0.00477996
0.00471576
0.00466048
0.00461548
0.00458198
0.00456079
0.00455207
0.00455483
0.00456467
6.24797e-06
6.5375e-06
-6.15464e-06
-3.07869e-05
-6.43392e-05
-0.000103913
-0.000146949
-0.000191267
-0.000235078
-0.000276857
-0.000315327
-0.000349533
-0.000378785
-0.000402539
-0.000420342
-0.000431858
-0.000436884
-0.000435307
-0.000427043
-0.000412017
-0.00039017
-0.000361496
-0.000326049
-0.000283899
-0.000235082
-0.000179608
-0.000117483
-4.87404e-05
2.65558e-05
0.000108333
0.000196528
0.000291098
0.000392009
0.000499218
0.000612658
0.000732223
0.000857778
0.000989161
0.0011262
0.0012687
0.00141646
0.00156923
0.00172674
0.00188865
0.00205459
0.00222411
0.00239672
0.0025719
0.00274908
0.00292767
0.00310704
0.00328653
0.00346544
0.00364304
0.00381858
0.00399127
0.0041603
0.00432485
0.00448411
0.00463728
0.00478355
0.00492218
0.00505244
0.00517365
0.00528521
0.00538657
0.00547723
0.00555681
0.00562498
0.00568152
0.00572631
0.00575931
0.00578061
0.00579041
0.00578898
0.00577674
0.00575417
0.00572188
0.00568058
0.00563104
0.00557413
0.0055108
0.00544208
0.00536902
0.00529277
0.0052145
0.00513542
0.00505678
0.00497984
0.00490587
0.00483615
0.00477196
0.00471454
0.00466505
0.00462456
0.00459397
0.00457374
0.0045639
0.00456459
0.00457446
3.04103e-05
2.70166e-05
1.29594e-05
-1.01777e-05
-4.01777e-05
-7.50397e-05
-0.000112723
-0.000151419
-0.000189598
-0.00022593
-0.000259307
-0.000288864
-0.000313925
-0.000333923
-0.000348406
-0.000357061
-0.000359688
-0.000356134
-0.000346264
-0.000329968
-0.000307181
-0.000277896
-0.000242158
-0.000200006
-0.000151446
-9.6469e-05
-3.50774e-05
3.26872e-05
0.000106756
0.00018706
0.000273546
0.00036618
0.000464932
0.000569753
0.000680566
0.000797257
0.00091968
0.00104768
0.00118107
0.00131968
0.0014633
0.00161169
0.00176458
0.00192165
0.0020825
0.00224671
0.00241381
0.00258328
0.00275458
0.00292713
0.00310035
0.00327359
0.00344619
0.00361746
0.00378666
0.00395305
0.00411587
0.00427432
0.00442765
0.00457508
0.00471587
0.0048493
0.00497469
0.00509141
0.00519888
0.00529659
0.0053841
0.00546104
0.0055271
0.00558209
0.0056259
0.00565852
0.00568005
0.00569067
0.00569066
0.00568043
0.00566044
0.00563129
0.00559365
0.00554826
0.00549597
0.00543767
0.00537433
0.00530697
0.00523666
0.0051645
0.00509165
0.00501924
0.00494846
0.00488048
0.00481646
0.00475754
0.00470481
0.00465929
0.0046219
0.00459337
0.00457412
0.00456431
0.00456515
0.00457724
6.93069e-05
5.90351e-05
4.13879e-05
1.73028e-05
-1.18873e-05
-4.46591e-05
-7.94323e-05
-0.000114713
-0.000149172
-0.000181687
-0.000211348
-0.000237407
-0.00025921
-0.0002762
-0.00028797
-0.000294253
-0.000294857
-0.000289597
-0.000278307
-0.000260869
-0.000237227
-0.000207387
-0.000171376
-0.000129206
-8.08576e-05
-2.63058e-05
3.44415e-05
0.000101332
0.000174292
0.000253262
0.000338205
0.0004291
0.000525919
0.000628609
0.00073708
0.000851213
0.000970862
0.00109587
0.00122608
0.0013613
0.00150134
0.00164598
0.00179493
0.00194786
0.00210442
0.00226416
0.00242665
0.00259137
0.0027578
0.0029254
0.00309358
0.00326174
0.00342923
0.00359538
0.00375949
0.00392084
0.00407869
0.0042323
0.00438091
0.0045238
0.00466025
0.00478957
0.00491111
0.00502428
0.00512852
0.00522334
0.00530833
0.00538313
0.00544747
0.00550115
0.0055441
0.0055763
0.00559785
0.00560895
0.00560987
0.005601
0.00558281
0.00555588
0.00552084
0.00547844
0.00542948
0.00537481
0.00531538
0.00525215
0.00518616
0.00511844
0.00505009
0.00498219
0.00491584
0.00485213
0.00479212
0.00473687
0.00468736
0.00464452
0.00460917
0.00458203
0.00456352
0.00455398
0.00455527
0.00456885
0.000117787
9.90173e-05
7.63748e-05
4.99084e-05
1.99895e-05
-1.21735e-05
-4.53801e-05
-7.84378e-05
-0.000110244
-0.000139889
-0.00016663
-0.000189812
-0.000208841
-0.000223228
-0.000232627
-0.000236812
-0.000235583
-0.000228739
-0.000216111
-0.000197598
-0.000173162
-0.000142806
-0.000106537
-6.43439e-05
-1.61911e-05
3.79495e-05
9.80617e-05
0.000164086
0.000235954
0.000313617
0.000397057
0.000486262
0.000581206
0.00068183
0.000788034
0.000899697
0.00101668
0.00113883
0.00126601
0.00139803
0.00153472
0.00167583
0.00182111
0.00197022
0.00212281
0.00227847
0.00243674
0.00259715
0.00275919
0.00292234
0.00308602
0.00324965
0.00341261
0.00357425
0.00373388
0.00389082
0.00404434
0.00419372
0.00433825
0.0044772
0.00460989
0.00473566
0.00485389
0.00496399
0.00506543
0.00515774
0.00524053
0.00531345
0.00537624
0.00542873
0.00547084
0.00550256
0.00552401
0.00553536
0.00553691
0.00552902
0.00551217
0.00548691
0.00545387
0.00541378
0.0053674
0.00531557
0.0052592
0.00519921
0.00513661
0.00507238
0.00500756
0.00494318
0.00488027
0.00481985
0.00476291
0.00471043
0.0046633
0.00462237
0.00458842
0.00456212
0.00454394
0.00453429
0.00453527
0.00454858
0.000172608
0.000144285
0.000115689
8.58483e-05
5.40478e-05
2.12842e-05
-1.14557e-05
-4.3282e-05
-7.33719e-05
-0.00010101
-0.000125561
-0.00014645
-0.000163188
-0.000175392
-0.000182785
-0.000185158
-0.000182302
-0.000174019
-0.000160168
-0.000140682
-0.000115538
-8.47247e-05
-4.82273e-05
-6.01693e-06
4.19453e-05
9.56783e-05
0.000155156
0.000220319
0.000291112
0.000367503
0.000449488
0.000537063
0.000630199
0.000728831
0.000832856
0.000942152
0.00105659
0.00117604
0.00130037
0.0014294
0.00156296
0.00170082
0.00184271
0.00198832
0.0021373
0.00228924
0.00244372
0.00260027
0.0027584
0.00291761
0.00307733
0.003237
0.00339602
0.00355375
0.00370952
0.00386267
0.00401249
0.00415828
0.00429933
0.00443496
0.00456448
0.00468726
0.00480269
0.0049102
0.00500928
0.00509946
0.00518037
0.00525166
0.0053131
0.00536451
0.00540582
0.00543703
0.00545825
0.00546966
0.00547155
0.00546429
0.00544834
0.00542424
0.00539263
0.00535419
0.00530968
0.00525993
0.0052058
0.00514821
0.0050881
0.00502645
0.00496423
0.00490243
0.00484202
0.00478397
0.00472921
0.00467864
0.00463309
0.00459334
0.00456013
0.00453409
0.0045157
0.00450542
0.00450525
0.00451677
0.000231007
0.000192556
0.000157361
0.000123407
8.88686e-05
5.45837e-05
2.13934e-05
-1.00932e-05
-3.93056e-05
-6.56829e-05
-8.86862e-05
-0.000107842
-0.000122787
-0.000133245
-0.000138994
-0.000139835
-0.000135567
-0.00012602
-0.000111099
-9.07713e-05
-6.50195e-05
-3.38168e-05
2.86929e-06
4.50766e-05
9.28362e-05
0.000146152
0.000204991
0.000269301
0.000339041
0.0004142
0.000494784
0.000580795
0.000672198
0.000768923
0.000870868
0.00097792
0.00108996
0.00120688
0.00132855
0.00145481
0.0015855
0.00172038
0.00185919
0.00200164
0.00214737
0.00229601
0.00244713
0.00260028
0.00275501
0.00291079
0.00306711
0.0032234
0.00337907
0.00353351
0.00368606
0.00383605
0.00398281
0.00412564
0.00426384
0.00439675
0.0045237
0.00464405
0.00475721
0.00486263
0.00495978
0.00504823
0.00512759
0.00519754
0.00525782
0.00530829
0.00534885
0.00537953
0.00540042
0.00541171
0.00541369
0.00540671
0.00539124
0.00536782
0.00533707
0.00529966
0.00525634
0.00520793
0.00515526
0.00509924
0.00504077
0.00498081
0.00492029
0.00486016
0.00480136
0.00474479
0.00469134
0.00464185
0.00459709
0.00455781
0.00452469
0.00449832
0.00447917
0.0044677
0.00446564
0.00447427
0.000290537
0.000241773
0.000199575
0.000160994
0.000123145
8.66927e-05
5.23173e-05
2.04191e-05
-8.6007e-06
-3.43122e-05
-5.63039e-05
-7.42349e-05
-8.78591e-05
-9.69782e-05
-0.000101408
-0.000100971
-9.55023e-05
-8.48827e-05
-6.90637e-05
-4.80371e-05
-2.17824e-05
9.73888e-06
4.6568e-05
8.87371e-05
0.000136262
0.000189136
0.000247324
0.000310784
0.000379493
0.000453456
0.00053269
0.000617196
0.000706935
0.000801833
0.000901795
0.00100672
0.00111651
0.00123106
0.00135026
0.00147398
0.00160203
0.0017342
0.00187023
0.00200984
0.00215268
0.00229839
0.00244657
0.00259678
0.00274856
0.00290143
0.00305487
0.00320833
0.00336123
0.00351295
0.00366287
0.00381031
0.00395461
0.00409508
0.00423104
0.00436181
0.00448675
0.00460521
0.00471661
0.0048204
0.00491607
0.00500316
0.00508131
0.00515017
0.00520951
0.00525916
0.00529906
0.0053292
0.00534969
0.00536071
0.00536254
0.00535556
0.0053402
0.00531702
0.00528661
0.00524967
0.00520692
0.00515916
0.00510724
0.00505202
0.00499441
0.00493531
0.00487567
0.00481638
0.00475835
0.00470245
0.00464952
0.00460034
0.00455567
0.00451619
0.00448254
0.00445527
0.00443484
0.00442167
0.00441714
0.00442214
0.000349076
0.000290103
0.000240725
0.000197198
0.000155641
0.000116529
8.04001e-05
4.75156e-05
1.81582e-05
-7.37551e-06
-2.88253e-05
-4.5987e-05
-5.87089e-05
-6.68441e-05
-7.02397e-05
-6.87634e-05
-6.23102e-05
-5.08191e-05
-3.42813e-05
-1.26994e-05
1.39521e-05
4.57181e-05
8.26347e-05
0.000124716
0.000171962
0.000224357
0.000281873
0.000344483
0.000412178
0.000484979
0.000562906
0.000645958
0.000734094
0.000827242
0.000925315
0.00102823
0.0011359
0.00124825
0.00136517
0.00148655
0.00161219
0.00174191
0.00187544
0.00201252
0.00215281
0.00229596
0.00244159
0.00258928
0.00273858
0.00288901
0.00304008
0.00319122
0.00334188
0.00349145
0.0036393
0.00378477
0.00392719
0.00406588
0.00420016
0.00432935
0.00445281
0.00456991
0.00468004
0.00478266
0.00487726
0.00496338
0.00504063
0.00510868
0.00516729
0.00521629
0.0052556
0.00528522
0.00530526
0.00531589
0.00531739
0.00531013
0.00529456
0.00527121
0.00524071
0.00520371
0.00516096
0.00511324
0.0050614
0.00500629
0.0049488
0.00488984
0.0048303
0.00477108
0.00471306
0.00465707
0.00460392
0.00455437
0.00450912
0.00446882
0.00443407
0.00440539
0.00438321
0.00436791
0.00436048
0.00436141
0.000404798
0.000335909
0.000279385
0.000230727
0.000185151
0.000142995
0.00010471
7.04369e-05
4.0334e-05
1.45567e-05
-6.77456e-06
-2.35669e-05
-3.57381e-05
-4.31849e-05
-4.58011e-05
-4.35184e-05
-3.63018e-05
-2.41428e-05
-7.05986e-06
1.49395e-05
4.18831e-05
7.38129e-05
0.000110747
0.000152677
0.000199587
0.000251462
0.000308282
0.000370037
0.000436733
0.000508398
0.000585053
0.000666695
0.000753283
0.000844752
0.000941027
0.00104204
0.00114773
0.00125803
0.00137286
0.00149209
0.00161555
0.00174306
0.00187437
0.00200921
0.00214727
0.00228822
0.00243168
0.00257726
0.0027245
0.00287296
0.00302212
0.00317146
0.00332041
0.00346835
0.00361468
0.00375872
0.00389982
0.00403728
0.00417043
0.00429859
0.0044211
0.00453734
0.00464669
0.00474859
0.00484253
0.00492805
0.00500473
0.00507226
0.00513036
0.00517887
0.0052177
0.00524685
0.00526641
0.00527656
0.00527757
0.00526982
0.00525374
0.00522988
0.00519886
0.00516134
0.00511807
0.00506983
0.00501746
0.00496181
0.00490378
0.00484424
0.00478411
0.00472426
0.00466553
0.00460875
0.00455471
0.00450412
0.00445768
0.00441599
0.00437962
0.00434906
0.00432472
0.00430695
0.00429632
0.00429296
0.000456183
0.000377738
0.000314198
0.000260321
0.000210513
0.000165061
0.000124356
8.84084e-05
5.72302e-05
3.08456e-05
9.26855e-06
-7.48594e-06
-1.93906e-05
-2.63977e-05
-2.84698e-05
-2.56119e-05
-1.78523e-05
-5.22271e-06
1.22434e-05
3.45327e-05
6.1667e-05
9.36719e-05
0.00013054
0.000172242
0.000218752
0.000270059
0.000326157
0.00038705
0.000452756
0.000523304
0.000598714
0.000678982
0.000764072
0.000853928
0.000948491
0.00104771
0.00115155
0.00125996
0.00137285
0.00149013
0.00161163
0.00173717
0.00186651
0.0019994
0.00213554
0.00227462
0.00241628
0.00256013
0.00270574
0.00285266
0.00300039
0.0031484
0.00329612
0.00344296
0.00358828
0.00373144
0.00387175
0.00400852
0.00414108
0.00426873
0.00439082
0.00450669
0.00461573
0.00471737
0.00481108
0.00489637
0.00497283
0.00504011
0.00509795
0.00514616
0.00518464
0.00521338
0.00523246
0.00524207
0.00524247
0.00523403
0.0052172
0.00519252
0.00516061
0.00512214
0.00507788
0.00502859
0.00497513
0.00491835
0.00485915
0.00479841
0.00473702
0.00467586
0.00461576
0.00455754
0.00450196
0.00444974
0.00440153
0.00435792
0.00431946
0.00428661
0.00425974
0.00423921
0.00422522
0.00421751
0.000501927
0.00041428
0.000343869
0.000284777
0.000230662
0.000181787
0.000138485
0.000100631
6.80987e-05
4.08088e-05
1.86997e-05
1.7276e-06
-1.01398e-05
-1.69284e-05
-1.86806e-05
-1.54719e-05
-7.37915e-06
5.53929e-06
2.32401e-05
4.56995e-05
7.29212e-05
0.000104903
0.000141611
0.000183
0.00022904
0.00027973
0.000335077
0.000395098
0.000459814
0.000529254
0.000603437
0.00068236
0.000765994
0.000854297
0.000947229
0.00104476
0.00114687
0.00125352
0.00136465
0.00148015
0.00159989
0.00172367
0.00185129
0.0019825
0.00211703
0.00225457
0.00239477
0.00253727
0.00268164
0.00282744
0.00297418
0.00312132
0.0032683
0.00341453
0.00355936
0.00370214
0.00384218
0.0039788
0.00411129
0.00423896
0.00436113
0.00447713
0.00458635
0.00468817
0.00478206
0.00486752
0.0049441
0.00501145
0.00506928
0.00511739
0.00515567
0.0051841
0.00520274
0.00521178
0.00521148
0.0052022
0.0051844
0.00515863
0.0051255
0.00508572
0.00504002
0.00498921
0.00493414
0.00487568
0.00481472
0.00475217
0.00468891
0.00462581
0.00456372
0.00450345
0.00444574
0.0043913
0.00434078
0.00429477
0.00425378
0.00421825
0.00418857
0.00416506
0.00414759
0.00413559
0.000540862
0.000444347
0.000367241
0.00030302
0.000244628
0.000192279
0.000146246
0.000106287
7.21782e-05
4.37618e-05
2.09156e-05
3.53218e-06
-8.49523e-06
-1.52741e-05
-1.69222e-05
-1.35722e-05
-5.33562e-06
7.7127e-06
2.55147e-05
4.80273e-05
7.52251e-05
0.000107075
0.000143521
0.000184506
0.000230005
0.000280027
0.000334592
0.000393723
0.000457441
0.000525772
0.000598735
0.000676332
0.000758545
0.000845348
0.000936721
0.00103266
0.00113315
0.00123817
0.00134768
0.00146158
0.00157974
0.00170198
0.00182811
0.0019579
0.00209109
0.00222739
0.00236647
0.00250798
0.00265149
0.00279657
0.00294274
0.00308945
0.00323616
0.00338225
0.00352708
0.00366999
0.00381029
0.00394726
0.0040802
0.0042084
0.00433116
0.0044478
0.00455767
0.00466014
0.00475465
0.00484067
0.00491775
0.00498549
0.00504359
0.00509183
0.00513009
0.00515832
0.00517659
0.00518506
0.005184
0.00517377
0.00515483
0.00512774
0.00509311
0.00505166
0.00500414
0.00495137
0.00489422
0.00483356
0.00477031
0.00470537
0.00463966
0.00457404
0.00450936
0.00444644
0.00438603
0.00432884
0.00427552
0.00422664
0.00418271
0.00414416
0.00411138
0.00408471
0.00406371
0.00404751
0.000571935
0.000466897
0.000383318
0.000314096
0.000251483
0.000195633
0.000146765
0.00010456
6.87241e-05
3.90369e-05
1.53093e-05
-2.64427e-06
-1.50133e-05
-2.19813e-05
-2.37265e-05
-2.04221e-05
-1.22038e-05
8.36406e-07
1.86168e-05
4.10641e-05
6.81183e-05
9.97196e-05
0.000135796
0.000176286
0.000221171
0.000270473
0.000324222
0.000382437
0.000445137
0.000512347
0.000584087
0.000660367
0.000741185
0.000826533
0.000916413
0.00101083
0.00110981
0.00121332
0.00132135
0.0014338
0.00155055
0.00167145
0.0017963
0.00192491
0.00205702
0.00219237
0.00233064
0.00247149
0.00261451
0.00275926
0.00290525
0.00305197
0.00319885
0.00334527
0.00349058
0.00363411
0.00377516
0.003913
0.00404691
0.00417616
0.00430002
0.0044178
0.0045288
0.00463239
0.00472797
0.00481497
0.00489292
0.0049614
0.00502008
0.00506871
0.00510716
0.00513535
0.00515335
0.0051613
0.00515947
0.00514821
0.005128
0.00509939
0.00506301
0.00501958
0.00496989
0.00491476
0.00485508
0.00479175
0.0047257
0.00465785
0.00458912
0.00452042
0.00445259
0.00438647
0.00432282
0.00426236
0.00420574
0.00415355
0.00410629
0.00406439
0.00402827
0.00399828
0.00397371
0.00395345
0.000594206
0.000481009
0.0003912
0.000317104
0.000250316
0.000190948
0.000139194
9.46735e-05
5.70322e-05
2.59829e-05
1.25835e-06
-1.74111e-05
-3.02922e-05
-3.763e-05
-3.96473e-05
-3.65456e-05
-2.84816e-05
-1.55738e-05
2.06339e-06
2.432e-05
5.1105e-05
8.23365e-05
0.000117933
0.000157837
0.000202041
0.00025057
0.000303456
0.000360718
0.00042237
0.000488434
0.000558936
0.0006339
0.00071334
0.000797269
0.000885708
0.000978685
0.00107623
0.00117834
0.001285
0.00139613
0.00151163
0.00163135
0.00175513
0.00188277
0.00201405
0.00214872
0.00228648
0.00242698
0.00256984
0.00271462
0.00286084
0.00300797
0.00315544
0.00330263
0.00344889
0.00359353
0.00373582
0.00387504
0.00401043
0.00414124
0.00426673
0.00438615
0.00449879
0.00460399
0.00470109
0.00478952
0.00486876
0.00493835
0.00499795
0.00504726
0.00508614
0.00511449
0.00513235
0.00513986
0.00513728
0.00512497
0.00510339
0.00507311
0.00503477
0.00498911
0.00493693
0.00487908
0.00481646
0.00475001
0.00468067
0.0046094
0.00453715
0.00446482
0.0043933
0.00432344
0.00425603
0.00419179
0.00413141
0.00407547
0.0040245
0.00397894
0.00393924
0.00390577
0.0038776
0.00385339
0.000606826
0.000485821
0.000390004
0.000311153
0.000240246
0.000177385
0.000122754
7.59121e-05
3.6433e-05
3.95129e-06
-2.18792e-05
-4.14031e-05
-5.49508e-05
-6.28127e-05
-6.52432e-05
-6.24701e-05
-5.46796e-05
-4.20248e-05
-2.46565e-05
-2.7219e-06
2.36619e-05
5.44008e-05
8.94119e-05
0.000128643
0.000172093
0.000219788
0.000271759
0.000328017
0.000388574
0.000453453
0.000522692
0.000596327
0.000674395
0.000756928
0.000843965
0.000935552
0.00103173
0.00113252
0.00123791
0.00134784
0.00146222
0.00158091
0.00170379
0.00183066
0.00196133
0.00209557
0.00223307
0.00237353
0.00251654
0.00266169
0.0028085
0.00295643
0.0031049
0.0032533
0.00340096
0.00354717
0.00369121
0.0038323
0.00396969
0.00410258
0.00423021
0.00435179
0.0044666
0.00457391
0.00467303
0.00476336
0.00484432
0.00491545
0.00497633
0.00502666
0.00506625
0.005095
0.00511291
0.00512011
0.00511686
0.0051035
0.0050805
0.00504845
0.00500799
0.00495987
0.00490492
0.00484402
0.00477809
0.0047081
0.00463503
0.00455986
0.00448356
0.00440709
0.00433136
0.00425724
0.00418554
0.00411704
0.00405242
0.00399231
0.00393725
0.00388771
0.00384418
0.00380707
0.00377526
0.00374719
0.000608992
0.000480489
0.000378866
0.000295389
0.000220462
0.000154186
9.67323e-05
4.75888e-05
6.24859e-06
-2.77326e-05
-5.47719e-05
-7.5273e-05
-8.96132e-05
-9.81185e-05
-0.000101073
-9.87361e-05
-9.13305e-05
-7.90504e-05
-6.20852e-05
-4.06093e-05
-1.47568e-05
1.5371e-05
4.96942e-05
8.81657e-05
0.000130785
0.000177577
0.000228562
0.00028375
0.000343151
0.000406794
0.00047473
0.000547014
0.0006237
0.000704843
0.0007905
0.000880731
0.000975593
0.00107512
0.00117931
0.00128813
0.00140148
0.00151929
0.0016414
0.00176767
0.00189793
0.00203194
0.00216944
0.00231011
0.00245357
0.00259941
0.00274714
0.00289623
0.0030461
0.00319612
0.00334561
0.00349386
0.00364011
0.00378358
0.00392348
0.00405898
0.00418928
0.00431358
0.00443108
0.00454103
0.0046427
0.00473543
0.0048186
0.0048917
0.00495429
0.00500603
0.00504667
0.0050761
0.0050943
0.00510138
0.00509757
0.00508322
0.00505882
0.00502492
0.00498222
0.00493146
0.00487351
0.00480926
0.00473969
0.00466577
0.00458854
0.00450901
0.00442819
0.00434708
0.00426661
0.00418771
0.00411122
0.00403795
0.00396863
0.00390391
0.00384438
0.00379054
0.00374291
0.00370199
0.00366645
0.00363457
0.000599927
0.000464208
0.000356984
0.00026904
0.000190233
0.000120652
6.04409e-05
9.01141e-06
-3.422e-05
-6.97651e-05
-9.80983e-05
-0.000119669
-0.000134894
-0.000144131
-0.000147699
-0.000145898
-0.000138994
-0.000127218
-0.000110792
-8.99099e-05
-6.47164e-05
-3.53127e-05
-1.77583e-06
3.58474e-05
7.75507e-05
0.000123353
0.000173269
0.000227305
0.000285474
0.000347815
0.000414394
0.000485286
0.000560567
0.000640308
0.000724582
0.000813467
0.000907032
0.00100533
0.00110836
0.00121612
0.00132854
0.00144554
0.00156701
0.00169282
0.00182282
0.00195679
0.00209449
0.0022356
0.00237977
0.00252657
0.00267554
0.00282613
0.00297776
0.00312979
0.00328154
0.00343227
0.00358121
0.00372755
0.00387047
0.00400912
0.00414264
0.0042702
0.00439096
0.00450411
0.00460888
0.00470455
0.00479047
0.00486605
0.00493082
0.00498439
0.00502649
0.00505695
0.00507573
0.00508292
0.00507875
0.00506354
0.00503778
0.00500205
0.00495703
0.0049035
0.00484235
0.00477451
0.00470098
0.00462278
0.00454099
0.00445666
0.00437085
0.00428459
0.00419888
0.00411468
0.0040329
0.00395436
0.00387986
0.00381009
0.00374568
0.00368718
0.00363517
0.00359021
0.00355082
0.0035151
0.000578911
0.000436258
0.000323653
0.000231422
0.000148886
7.61045e-05
1.31878e-05
-4.05229e-05
-8.56731e-05
-0.000122829
-0.000152514
-0.000175215
-0.000191385
-0.000201424
-0.000205692
-0.000204533
-0.000198252
-0.000187113
-0.000171362
-0.000151206
-0.000126791
-9.82194e-05
-6.55689e-05
-2.88927e-05
1.17953e-05
5.65065e-05
0.000105252
0.000158036
0.000214879
0.000275835
0.000340987
0.00041043
0.000484258
0.00056256
0.000645425
0.000732943
0.000825198
0.000922256
0.00102415
0.00113087
0.00124239
0.00135864
0.00147954
0.001605
0.00173485
0.00186893
0.00200699
0.00214874
0.00229384
0.00244186
0.00259233
0.00274473
0.00289846
0.00305287
0.00320728
0.00336092
0.00351301
0.00366271
0.00380917
0.0039515
0.00408881
0.00422021
0.00434481
0.00446176
0.00457022
0.00466943
0.00475866
0.00483729
0.00490477
0.00496068
0.0050047
0.00503661
0.00505635
0.00506397
0.00505968
0.0050438
0.00501682
0.0049793
0.00493195
0.00487558
0.00481108
0.00473944
0.00466167
0.00457887
0.00449214
0.00440259
0.00431132
0.00421944
0.00412798
0.00403797
0.00395036
0.00386605
0.00378587
0.00371059
0.00364088
0.00357733
0.00352062
0.00347136
0.00342794
0.00338828
0.000545293
0.000395994
0.000278234
0.00018189
9.57531e-05
1.98515e-05
-4.57314e-05
-0.000101713
-0.000148791
-0.000187578
-0.000218639
-0.000242505
-0.000259671
-0.000270581
-0.00027564
-0.000275235
-0.000269703
-0.000259336
-0.000244391
-0.000225084
-0.000201563
-0.000173932
-0.000142277
-0.00010666
-6.71035e-05
-2.36038e-05
2.3848e-05
7.5262e-05
0.000130669
0.000190139
0.000253773
0.000321686
0.000393989
0.000470785
0.000552179
0.000638275
0.000729172
0.000824952
0.000925667
0.00103134
0.00114195
0.00125747
0.00137785
0.00150299
0.00163278
0.00176706
0.00190561
0.00204814
0.00219433
0.00234377
0.00249599
0.00265046
0.00280659
0.00296373
0.00312116
0.00327813
0.00343381
0.00358736
0.00373788
0.00388443
0.0040261
0.00416194
0.00429101
0.00441239
0.00452519
0.00462858
0.00472177
0.00480406
0.00487487
0.0049337
0.00498018
0.00501405
0.00503519
0.00504364
0.00503957
0.0050233
0.00499528
0.00495611
0.00490649
0.00484725
0.00477932
0.0047037
0.00462148
0.00453378
0.00444175
0.00434657
0.00424941
0.00415141
0.0040537
0.00395735
0.00386339
0.00377277
0.00368641
0.00360511
0.00352963
0.00346062
0.00339884
0.00334498
0.00329727
0.00325349
0.000498458
0.000342793
0.000220091
0.00011978
3.01469e-05
-4.88053e-05
-0.000117009
-0.00017523
-0.000224219
-0.00026463
-0.000297074
-0.000322131
-0.000340343
-0.000352201
-0.000358152
-0.000358618
-0.000353963
-0.000344494
-0.000330479
-0.000312137
-0.000289622
-0.000263049
-0.000232512
-0.000198085
-0.000159797
-0.000117649
-7.16318e-05
-2.17253e-05
3.21156e-05
8.99778e-05
0.00015198
0.000218255
0.000288927
0.000364118
0.000443942
0.000528519
0.000617966
0.000712384
0.000811847
0.000916402
0.00102606
0.00114082
0.00126064
0.00138547
0.00151522
0.00164974
0.00178884
0.00193225
0.00207966
0.00223067
0.00238481
0.00254158
0.00270037
0.00286052
0.00302133
0.00318201
0.00334172
0.00349958
0.00365466
0.00380601
0.00395262
0.00409352
0.00422771
0.0043542
0.00447204
0.00458031
0.00467816
0.00476483
0.00483965
0.00490206
0.00495164
0.00498806
0.00501116
0.00502093
0.00501752
0.00500121
0.00497246
0.00493185
0.00488009
0.00481803
0.00474663
0.00466694
0.00458007
0.00448721
0.00438956
0.00428837
0.00418487
0.00408029
0.00397581
0.00387259
0.00377172
0.00367426
0.00358116
0.00349333
0.00341158
0.00333664
0.00326936
0.00321053
0.00315821
0.00311002
0.000437808
0.000276031
0.000148568
4.44199e-05
-4.86117e-05
-0.000130533
-0.00020129
-0.000261698
-0.000312557
-0.000354573
-0.000388406
-0.000414686
-0.000434006
-0.0004469
-0.00045385
-0.000455303
-0.000451644
-0.000443192
-0.000430222
-0.000412962
-0.000391575
-0.00036619
-0.000336912
-0.000303824
-0.000266963
-0.000226329
-0.000181906
-0.000133663
-8.15393e-05
-2.54313e-05
3.47966e-05
9.92915e-05
0.000168194
0.000241636
0.000319748
0.000402664
0.000490521
0.000583442
0.000681527
0.000784846
0.000893444
0.00100734
0.00112653
0.00125099
0.00138064
0.00151538
0.00165503
0.00179935
0.00194803
0.0021007
0.0022569
0.00241612
0.00257778
0.00274121
0.00290569
0.00307043
0.00323457
0.00339719
0.00355735
0.00371402
0.00386619
0.0040128
0.00415279
0.00428511
0.00440873
0.00452266
0.00462595
0.00471779
0.0047974
0.00486418
0.00491759
0.00495728
0.004983
0.0049947
0.00499249
0.00497663
0.00494754
0.00490579
0.00485212
0.00478738
0.00471256
0.00462875
0.0045371
0.00443886
0.0043353
0.00422774
0.00411748
0.00400584
0.00389408
0.00378344
0.00367511
0.00357022
0.00346981
0.00337488
0.00328631
0.00320493
0.00313166
0.00306741
0.00301009
0.00295711
0.00036274
0.000195081
6.30255e-05
-4.48335e-05
-0.000141148
-0.000225936
-0.00029916
-0.000361686
-0.000414374
-0.00045798
-0.000493219
-0.000520771
-0.000541272
-0.000555293
-0.000563345
-0.000565896
-0.000563345
-0.000556022
-0.000544214
-0.00052816
-0.000508039
-0.000483991
-0.000456134
-0.000424559
-0.000389304
-0.000350366
-0.000307719
-0.000261318
-0.000211088
-0.00015691
-9.86331e-05
-3.60977e-05
3.08495e-05
0.000102354
0.00017856
0.000259621
0.000345694
0.000436926
0.000533444
0.000635347
0.000742709
0.000855581
0.000973989
0.00109794
0.00122738
0.00136224
0.00150236
0.00164753
0.00179747
0.0019518
0.00211011
0.00227189
0.00243655
0.00260345
0.00277185
0.00294095
0.00310988
0.0032777
0.00344342
0.00360598
0.00376431
0.00391729
0.00406381
0.00420273
0.00433294
0.00445337
0.00456298
0.00466086
0.00474617
0.00481819
0.00487631
0.00492009
0.00494924
0.00496362
0.00496329
0.00494847
0.00491956
0.00487712
0.00482187
0.00475469
0.00467658
0.00458867
0.00449218
0.00438839
0.00427868
0.00416441
0.004047
0.00392783
0.00380827
0.00368966
0.00357328
0.00346035
0.00335202
0.00324938
0.0031534
0.00306498
0.00298518
0.00291501
0.00285219
0.00279391
0.000272661
9.93427e-05
-3.71346e-05
-0.000148561
-0.000248024
-0.000335564
-0.000411163
-0.000475746
-0.00053023
-0.000575429
-0.000612108
-0.000640989
-0.000662747
-0.000677985
-0.000687237
-0.000690987
-0.000689649
-0.000683569
-0.000673048
-0.000658341
-0.000639642
-0.000617105
-0.000590855
-0.000560988
-0.00052754
-0.000490501
-0.000449834
-0.00040548
-0.000357351
-0.000305313
-0.000249206
-0.000188856
-0.000124099
-5.47747e-05
1.9277e-05
9.82287e-05
0.00018226
0.000271545
0.000366239
0.000466473
0.000572351
0.000683956
0.000801348
0.000924561
0.00105359
0.00118838
0.0013288
0.00147468
0.00162575
0.00178168
0.00194206
0.0021064
0.00227413
0.00244462
0.00261712
0.00279084
0.00296488
0.00313828
0.00331002
0.003479
0.0036441
0.00380415
0.00395795
0.00410429
0.00424197
0.00436982
0.00448672
0.00459164
0.00468365
0.00476193
0.00482577
0.00487465
0.00490816
0.00492612
0.0049285
0.00491549
0.00488744
0.00484487
0.0047885
0.00471923
0.00463808
0.0045462
0.00444487
0.00433545
0.00421938
0.00409812
0.00397316
0.00384601
0.00371814
0.00359099
0.00346595
0.00334435
0.00322745
0.00311642
0.00301236
0.00291627
0.00282931
0.00275263
0.00268373
0.00261955
0.000167011
-1.17384e-05
-0.000152451
-0.000267289
-0.000369763
-0.000459941
-0.000537837
-0.000604434
-0.000660703
-0.00070751
-0.000745667
-0.000775936
-0.000799025
-0.00081556
-0.0008261
-0.000831147
-0.000831131
-0.000826418
-0.000817327
-0.000804128
-0.000787032
-0.0007662
-0.000741765
-0.000713823
-0.000682404
-0.000647491
-0.000609033
-0.000566962
-0.000521175
-0.000471531
-0.000417856
-0.000359969
-0.000297691
-0.00023085
-0.000159265
-8.27425e-05
-1.07876e-06
8.59283e-05
0.000178465
0.000276693
0.00038075
0.000490755
0.000606802
0.00072896
0.000857259
0.000991677
0.00113213
0.00127846
0.00143045
0.00158779
0.0017501
0.00191691
0.00208768
0.00226178
0.00243849
0.00261699
0.00279639
0.00297571
0.0031539
0.00332982
0.0035023
0.00367011
0.00383197
0.00398659
0.00413268
0.00426896
0.00439421
0.00450729
0.00460715
0.00469286
0.0047636
0.00481872
0.00485773
0.00488035
0.00488647
0.0048762
0.00484984
0.00480788
0.00475103
0.00468017
0.00459634
0.00450073
0.00439468
0.00427961
0.00415704
0.00402854
0.0038957
0.00376013
0.00362343
0.00348716
0.00335283
0.00322189
0.00309572
0.0029756
0.00286274
0.00275825
0.00266344
0.00257957
0.0025039
0.00243309
4.52781e-05
-0.000138665
-0.000283419
-0.000401512
-0.000506873
-0.000599597
-0.000679729
-0.000748311
-0.000806364
-0.000854802
-0.000894476
-0.000926185
-0.000950668
-0.000968576
-0.00098049
-0.000986935
-0.000988363
-0.000985159
-0.000977661
-0.000966155
-0.000950863
-0.000931954
-0.000909564
-0.000883784
-0.000854639
-0.000822101
-0.000786113
-0.000746595
-0.000703435
-0.000656483
-0.000605557
-0.000550466
-0.000491019
-0.000427026
-0.000358288
-0.000284588
-0.000205695
-0.00012138
-3.14235e-05
6.43689e-05
0.000166171
0.000274138
0.000388402
0.00050907
0.00063621
0.000769841
0.000909917
0.00105633
0.00120888
0.00136732
0.00153128
0.00170035
0.00187401
0.00205164
0.00223255
0.00241591
0.00260085