/*--------------------------------*- C++ -*----------------------------------*\
  =========                 |
  \\      /  F ield         | OpenFOAM: The Open Source CFD Toolbox
   \\    /   O peration     | Website:  https://openfoam.org
    \\  /    A nd           | Version:  7
     \\/     M anipulation  |
\*---------------------------------------------------------------------------*/
FoamFile
{
    version     2.0;
    format      ascii;
    class       surfaceScalarField;
    location    "0.4375";
    object      phi;
}
// * * * * * * * * * * * * * * * * * * * * * * * * * * * * * * * * * * * * * //

dimensions      [0 3 -1 0 0 0 0];

internalField   nonuniform List<scalar> 
19800
(
7.87987e-11
-7.90923e-11
1.98386e-10
-1.19592e-10
2.78333e-10
-7.99371e-11
2.76501e-10
1.8245e-12
1.76854e-10
9.96459e-11
-2.4408e-11
2.01261e-10
-3.24338e-10
2.99919e-10
-7.16592e-10
3.92249e-10
-1.19314e-09
4.76544e-10
-1.74537e-09
5.52224e-10
-2.36461e-09
6.19231e-10
-3.04247e-09
6.77845e-10
-3.77108e-09
7.28606e-10
-4.54322e-09
7.72136e-10
-5.35224e-09
8.09018e-10
-6.19204e-09
8.3981e-10
-7.05713e-09
8.65087e-10
-7.94255e-09
8.85423e-10
-8.84389e-09
9.01346e-10
-9.75719e-09
9.13307e-10
-1.06788e-08
9.21659e-10
-1.16055e-08
9.2671e-10
-1.25343e-08
9.28769e-10
-1.34624e-08
9.28097e-10
-1.43873e-08
9.24893e-10
-1.53066e-08
9.19282e-10
-1.62179e-08
9.11337e-10
-1.7119e-08
9.01103e-10
-1.80076e-08
8.88614e-10
-1.88815e-08
8.73879e-10
-1.97384e-08
8.56869e-10
-2.05759e-08
8.37529e-10
-2.13917e-08
8.15787e-10
-2.21833e-08
7.91557e-10
-2.2948e-08
7.64738e-10
-2.36832e-08
7.35233e-10
-2.43862e-08
7.02949e-10
-2.5054e-08
6.67806e-10
-2.56837e-08
6.29735e-10
-2.62724e-08
5.88667e-10
-2.68169e-08
5.44548e-10
-2.73143e-08
4.97341e-10
-2.77613e-08
4.47029e-10
-2.81549e-08
3.93635e-10
-2.84921e-08
3.37215e-10
-2.877e-08
2.77856e-10
-2.89857e-08
2.15685e-10
-2.91365e-08
1.50866e-10
-2.92201e-08
8.36001e-11
-2.92343e-08
1.41289e-11
-2.9177e-08
-5.72684e-11
-2.90467e-08
-1.30272e-10
-2.88422e-08
-2.04514e-10
-2.85626e-08
-2.79589e-10
-2.82076e-08
-3.55062e-10
-2.77771e-08
-4.30453e-10
-2.72719e-08
-5.05252e-10
-2.66929e-08
-5.78928e-10
-2.6042e-08
-6.50921e-10
-2.53214e-08
-7.20658e-10
-2.45338e-08
-7.87564e-10
-2.36827e-08
-8.51059e-10
-2.27722e-08
-9.10562e-10
-2.18067e-08
-9.6551e-10
-2.07913e-08
-1.01537e-09
-1.97317e-08
-1.05962e-09
-1.86339e-08
-1.0978e-09
-1.75044e-08
-1.12947e-09
-1.63502e-08
-1.15425e-09
-1.51783e-08
-1.17183e-09
-1.39964e-08
-1.18193e-09
-1.2812e-08
-1.18439e-09
-1.16329e-08
-1.17909e-09
-1.04669e-08
-1.166e-09
-9.32178e-09
-1.14515e-09
-8.20511e-09
-1.11667e-09
-7.12436e-09
-1.08075e-09
-6.0867e-09
-1.03767e-09
-5.09891e-09
-9.87786e-10
-4.16738e-09
-9.31522e-10
-3.298e-09
-8.69376e-10
-2.4961e-09
-8.01898e-10
-1.76641e-09
-7.29701e-10
-1.11295e-09
-6.53459e-10
-5.39038e-10
-5.73907e-10
-4.72088e-11
-4.91833e-10
3.60882e-10
-4.08091e-10
6.84486e-10
-3.236e-10
9.23872e-10
-2.39385e-10
1.08045e-09
-1.56586e-10
1.15696e-09
-7.6515e-11
1.15771e-09
-7.42483e-13
1.08891e-09
6.88076e-11
9.59293e-10
1.29614e-10
7.80978e-10
1.78314e-10
5.70708e-10
2.1027e-10
3.51586e-10
2.19128e-10
1.55541e-10
1.9606e-10
2.57883e-11
1.29794e-10
2.5832e-11
1.25059e-10
-2.04155e-10
2.54656e-10
-2.49201e-10
2.59441e-10
-8.47159e-11
6.74102e-11
1.9386e-10
-3.60064e-10
5.2712e-10
-1.03717e-09
8.78367e-10
-1.96241e-09
1.22517e-09
-3.12478e-09
1.55463e-09
-4.50804e-09
1.8598e-09
-6.09302e-09
2.13721e-09
-7.85939e-09
2.38562e-09
-9.78678e-09
2.60524e-09
-1.18554e-08
2.79723e-09
-1.40464e-08
2.96317e-09
-1.63422e-08
3.10484e-09
-1.87265e-08
3.2241e-09
-2.11843e-08
3.32285e-09
-2.37018e-08
3.40295e-09
-2.62667e-08
3.46615e-09
-2.88673e-08
3.51398e-09
-3.14935e-08
3.54779e-09
-3.41356e-08
3.56879e-09
-3.67848e-08
3.57801e-09
-3.94331e-08
3.57634e-09
-4.20726e-08
3.56445e-09
-4.46962e-08
3.54287e-09
-4.72968e-08
3.51195e-09
-4.98676e-08
3.47191e-09
-5.24019e-08
3.42289e-09
-5.48929e-08
3.3649e-09
-5.73339e-08
3.29786e-09
-5.9718e-08
3.22159e-09
-6.20381e-08
3.13588e-09
-6.42869e-08
3.04044e-09
-6.64572e-08
2.93498e-09
-6.85411e-08
2.81918e-09
-7.05309e-08
2.69274e-09
-7.24185e-08
2.55539e-09
-7.41956e-08
2.40685e-09
-7.58539e-08
2.24694e-09
-7.73848e-08
2.0755e-09
-7.87799e-08
1.89246e-09
-8.00307e-08
1.69784e-09
-8.11289e-08
1.49176e-09
-8.20661e-08
1.27447e-09
-8.28346e-08
1.04633e-09
-8.34267e-08
8.07843e-10
-8.38355e-08
5.59643e-10
-8.40544e-08
3.02516e-10
-8.40777e-08
3.73869e-11
-8.39003e-08
-2.3466e-10
-8.35182e-08
-5.12392e-10
-8.29283e-08
-7.94429e-10
-8.21286e-08
-1.07924e-09
-8.11185e-08
-1.36518e-09
-7.98985e-08
-1.65045e-09
-7.84706e-08
-1.93319e-09
-7.68381e-08
-2.21139e-09
-7.50061e-08
-2.48301e-09
-7.29808e-08
-2.74594e-09
-7.07703e-08
-2.99804e-09
-6.83842e-08
-3.23718e-09
-6.58335e-08
-3.46125e-09
-6.31308e-08
-3.66818e-09
-6.02902e-08
-3.85598e-09
-5.73271e-08
-4.02279e-09
-5.4258e-08
-4.16687e-09
-5.11008e-08
-4.28664e-09
-4.78743e-08
-4.38073e-09
-4.45982e-08
-4.44796e-09
-4.12927e-08
-4.4874e-09
-3.79787e-08
-4.49838e-09
-3.46774e-08
-4.48048e-09
-3.14098e-08
-4.43358e-09
-2.81971e-08
-4.35783e-09
-2.50601e-08
-4.25369e-09
-2.2019e-08
-4.12187e-09
-1.90932e-08
-3.96342e-09
-1.63014e-08
-3.77963e-09
-1.36608e-08
-3.57208e-09
-1.11876e-08
-3.3426e-09
-8.89621e-09
-3.09326e-09
-6.79951e-09
-2.8264e-09
-4.90843e-09
-2.54454e-09
-3.23187e-09
-2.25046e-09
-1.77651e-09
-1.94718e-09
-5.46611e-10
-1.63798e-09
4.56209e-10
-1.32642e-09
1.23325e-09
-1.01643e-09
1.78908e-09
-7.12415e-10
2.13198e-09
-4.19406e-10
2.27454e-09
-1.43297e-10
2.23452e-09
1.08833e-10
2.03589e-09
3.28252e-10
1.7103e-09
5.0392e-10
1.29879e-09
6.21797e-10
8.53532e-10
6.64362e-10
4.38867e-10
6.10659e-10
1.28899e-10
4.39686e-10
1.54753e-10
8.40866e-11
-2.88232e-10
9.25712e-11
-2.57679e-10
-1.15597e-10
1.23448e-10
-6.22862e-10
7.01125e-10
-1.47586e-09
1.38012e-09
-2.69388e-09
2.09638e-09
-4.27701e-09
2.80829e-09
-6.2125e-09
3.49011e-09
-8.47941e-09
4.12669e-09
-1.1052e-08
4.7098e-09
-1.39022e-08
5.23577e-09
-1.70009e-08
5.70399e-09
-2.03195e-08
6.11582e-09
-2.38301e-08
6.47378e-09
-2.75063e-08
6.78104e-09
-3.13233e-08
7.0411e-09
-3.5258e-08
7.2576e-09
-3.92892e-08
7.43413e-09
-4.33971e-08
7.57408e-09
-4.75637e-08
7.68057e-09
-5.17723e-08
7.75638e-09
-5.60075e-08
7.80399e-09
-6.02551e-08
7.82554e-09
-6.45015e-08
7.8228e-09
-6.87343e-08
7.79724e-09
-7.29414e-08
7.74995e-09
-7.71112e-08
7.68173e-09
-8.12324e-08
7.59309e-09
-8.52938e-08
7.48433e-09
-8.92844e-08
7.35551e-09
-9.31931e-08
7.20649e-09
-9.70084e-08
7.03698e-09
-1.00719e-07
6.84654e-09
-1.04313e-07
6.63467e-09
-1.07779e-07
6.40078e-09
-1.11104e-07
6.14427e-09
-1.14276e-07
5.86456e-09
-1.17282e-07
5.56111e-09
-1.20108e-07
5.23344e-09
-1.22743e-07
4.88119e-09
-1.25171e-07
4.50411e-09
-1.27381e-07
4.10213e-09
-1.29358e-07
3.67538e-09
-1.31091e-07
3.22419e-09
-1.32565e-07
2.74915e-09
-1.3377e-07
2.25111e-09
-1.34694e-07
1.73118e-09
-1.35325e-07
1.19079e-09
-1.35654e-07
6.31671e-10
-1.35672e-07
5.58535e-11
-1.35373e-07
-5.34308e-10
-1.34749e-07
-1.13614e-09
-1.33797e-07
-1.74665e-09
-1.32513e-07
-2.36258e-09
-1.30898e-07
-2.98038e-09
-1.28952e-07
-3.59623e-09
-1.2668e-07
-4.20613e-09
-1.24085e-07
-4.80585e-09
-1.21177e-07
-5.39103e-09
-1.17966e-07
-5.95722e-09
-1.14464e-07
-6.49988e-09
-1.10687e-07
-7.01452e-09
-1.06651e-07
-7.49665e-09
-1.02377e-07
-7.94192e-09
-9.78873e-08
-8.34618e-09
-9.32046e-08
-8.70545e-09
-8.83554e-08
-9.0161e-09
-8.33672e-08
-9.27481e-09
-7.82692e-08
-9.47868e-09
-7.3092e-08
-9.62525e-09
-6.78668e-08
-9.71257e-09
-6.26259e-08
-9.73921e-09
-5.74021e-08
-9.70431e-09
-5.22281e-08
-9.6076e-09
-4.71365e-08
-9.44941e-09
-4.21595e-08
-9.2307e-09
-3.73284e-08
-8.95302e-09
-3.26732e-08
-8.61856e-09
-2.82228e-08
-8.23006e-09
-2.4004e-08
-7.79089e-09
-2.00416e-08
-7.30495e-09
-1.63582e-08
-6.77668e-09
-1.29735e-08
-6.21105e-09
-9.90453e-09
-5.61354e-09
-7.16485e-09
-4.99014e-09
-4.76467e-09
-4.34737e-09
-2.71033e-09
-3.69232e-09
-1.00402e-09
-3.03273e-09
3.5669e-10
-2.37713e-09
1.37928e-09
-1.735e-09
2.07694e-09
-1.11706e-09
2.46934e-09
-5.357e-10
2.5836e-09
-5.43152e-12
2.45543e-09
4.56432e-10
2.1305e-09
8.28865e-10
1.66584e-09
1.08647e-09
1.13111e-09
1.19914e-09
6.08941e-10
1.13287e-09
1.94189e-10
8.54397e-10
3.48944e-10
1.2234e-12
-2.89461e-10
-1.89773e-10
-6.66844e-11
-7.00055e-10
6.33726e-10
-1.60786e-09
1.60893e-09
-2.95805e-09
2.73031e-09
-4.76956e-09
3.9079e-09
-7.04167e-09
5.08039e-09
-9.75967e-09
6.20812e-09
-1.28994e-08
7.26639e-09
-1.64305e-08
8.24094e-09
-2.03194e-08
9.12466e-09
-2.45308e-08
9.91538e-09
-2.90292e-08
1.06142e-08
-3.37799e-08
1.12244e-08
-3.87493e-08
1.17505e-08
-4.39059e-08
1.21976e-08
-4.92197e-08
1.25714e-08
-5.46629e-08
1.28774e-08
-6.02097e-08
1.31209e-08
-6.5836e-08
1.33069e-08
-7.15196e-08
1.34399e-08
-7.72395e-08
1.35239e-08
-8.29764e-08
1.35625e-08
-8.87121e-08
1.35585e-08
-9.44293e-08
1.35144e-08
-1.00111e-07
1.34319e-08
-1.05742e-07
1.33126e-08
-1.11306e-07
1.31572e-08
-1.16788e-07
1.29663e-08
-1.22173e-07
1.27401e-08
-1.27445e-07
1.24783e-08
-1.32588e-07
1.21806e-08
-1.37588e-07
1.18463e-08
-1.42428e-07
1.14746e-08
-1.47092e-07
1.10646e-08
-1.51563e-07
1.06154e-08
-1.55825e-07
1.01262e-08
-1.59859e-07
9.59596e-09
-1.6365e-07
9.02414e-09
-1.67179e-07
8.41019e-09
-1.70429e-07
7.7538e-09
-1.73382e-07
7.05497e-09
-1.7602e-07
6.31401e-09
-1.78328e-07
5.5316e-09
-1.80287e-07
4.70885e-09
-1.81884e-07
3.84727e-09
-1.83101e-07
2.94888e-09
-1.83927e-07
2.01619e-09
-1.84347e-07
1.05218e-09
-1.84352e-07
6.04172e-11
-1.83931e-07
-9.55053e-10
-1.83077e-07
-1.98964e-09
-1.81786e-07
-3.03825e-09
-1.80053e-07
-4.09529e-09
-1.77879e-07
-5.15474e-09
-1.75265e-07
-6.21014e-09
-1.72216e-07
-7.25467e-09
-1.68741e-07
-8.2812e-09
-1.6485e-07
-9.28239e-09
-1.60556e-07
-1.02507e-08
-1.55878e-07
-1.11785e-08
-1.50834e-07
-1.20583e-08
-1.45448e-07
-1.28824e-08
-1.39746e-07
-1.36437e-08
-1.33757e-07
-1.43351e-08
-1.27513e-07
-1.49499e-08
-1.21047e-07
-1.54821e-08
-1.14395e-07
-1.59262e-08
-1.07597e-07
-1.62771e-08
-1.00691e-07
-1.6531e-08
-9.37195e-08
-1.66844e-08
-8.67238e-08
-1.67349e-08
-7.97469e-08
-1.66812e-08
-7.28317e-08
-1.65228e-08
-6.60209e-08
-1.62602e-08
-5.93565e-08
-1.58951e-08
-5.28795e-08
-1.543e-08
-4.66293e-08
-1.48687e-08
-4.06435e-08
-1.42159e-08
-3.49573e-08
-1.34771e-08
-2.96033e-08
-1.2659e-08
-2.46108e-08
-1.17691e-08
-2.00058e-08
-1.0816e-08
-1.58104e-08
-9.80894e-09
-1.20424e-08
-8.75816e-09
-8.71498e-09
-7.67481e-09
-5.83626e-09
-6.57104e-09
-3.4089e-09
-5.46008e-09
-1.42959e-09
-4.35644e-09
1.11582e-10
-3.27618e-09
1.23181e-09
-2.23729e-09
1.95628e-09
-1.26017e-09
2.31917e-09
-3.6831e-10
2.36467e-09
4.10925e-10
2.14808e-09
1.04543e-09
1.73693e-09
1.4976e-09
1.21207e-09
1.72401e-09
6.68614e-10
1.67637e-09
2.17976e-10
1.30502e-09
5.66917e-10
-9.92244e-11
-1.90234e-10
-5.3389e-10
3.67987e-10
-1.40175e-09
1.50159e-09
-2.76644e-09
2.97362e-09
-4.66398e-09
4.62784e-09
-7.10788e-09
6.3518e-09
-1.00938e-08
8.06634e-09
-1.3604e-08
9.71824e-09
-1.76107e-08
1.12731e-08
-2.20801e-08
1.27103e-08
-2.6974e-08
1.40186e-08
-3.22525e-08
1.51939e-08
-3.78749e-08
1.62366e-08
-4.38008e-08
1.71504e-08
-4.99914e-08
1.7941e-08
-5.64091e-08
1.86154e-08
-6.30186e-08
1.91809e-08
-6.97866e-08
1.96454e-08
-7.66818e-08
2.0016e-08
-8.36749e-08
2.03e-08
-9.07386e-08
2.05036e-08
-9.78472e-08
2.06326e-08
-1.04977e-07
2.0692e-08
-1.12104e-07
2.06861e-08
-1.19208e-07
2.06184e-08
-1.26268e-07
2.04915e-08
-1.33263e-07
2.03075e-08
-1.40174e-07
2.00679e-08
-1.46981e-07
1.97733e-08
-1.53664e-07
1.9424e-08
-1.60206e-07
1.902e-08
-1.66586e-07
1.85605e-08
-1.72785e-07
1.80448e-08
-1.78782e-07
1.74718e-08
-1.84557e-07
1.68403e-08
-1.90091e-07
1.6149e-08
-1.95362e-07
1.53967e-08
-2.00348e-07
1.45823e-08
-2.05029e-07
1.37049e-08
-2.09382e-07
1.27639e-08
-2.13388e-07
1.1759e-08
-2.17023e-07
1.06903e-08
-2.20267e-07
9.55844e-09
-2.231e-07
8.36456e-09
-2.25502e-07
7.11045e-09
-2.27453e-07
5.79854e-09
-2.28936e-07
4.43197e-09
-2.29935e-07
3.01459e-09
-2.30434e-07
1.55102e-09
-2.3042e-07
4.66364e-11
-2.29882e-07
-1.49238e-09
-2.28813e-07
-3.05911e-09
-2.27205e-07
-4.64587e-09
-2.25056e-07
-6.24428e-09
-2.22366e-07
-7.84528e-09
-2.19137e-07
-9.43923e-09
-2.15376e-07
-1.10159e-08
-2.11092e-07
-1.25648e-08
-2.06299e-07
-1.40748e-08
-2.01015e-07
-1.55349e-08
-1.9526e-07
-1.69336e-08
-1.89059e-07
-1.82597e-08
-1.82439e-07
-1.95021e-08
-1.75433e-07
-2.06499e-08
-1.68075e-07
-2.16928e-08
-1.60404e-07
-2.26209e-08
-1.52461e-07
-2.34252e-08
-1.4429e-07
-2.40975e-08
-1.35936e-07
-2.46306e-08
-1.27449e-07
-2.50184e-08
-1.18877e-07
-2.5256e-08
-1.10272e-07
-2.534e-08
-1.01685e-07
-2.52681e-08
-9.31685e-08
-2.50397e-08
-8.47731e-08
-2.46556e-08
-7.655e-08
-2.41183e-08
-6.85484e-08
-2.34315e-08
-6.08163e-08
-2.26009e-08
-5.33988e-08
-2.16333e-08
-4.63386e-08
-2.05372e-08
-3.96751e-08
-1.93225e-08
-3.34436e-08
-1.80005e-08
-2.76757e-08
-1.65839e-08
-2.23979e-08
-1.50867e-08
-1.76318e-08
-1.35243e-08
-1.33933e-08
-1.19134e-08
-9.69208e-09
-1.02722e-08
-6.53146e-09
-8.6207e-09
-3.90746e-09
-6.98044e-09
-1.80837e-09
-5.37527e-09
-2.14065e-10
-3.8316e-09
9.0478e-10
-2.37901e-09
1.58746e-09
-1.05098e-09
1.8841e-09
1.14298e-10
1.85655e-09
1.07298e-09
1.57935e-09
1.77479e-09
1.14081e-09
2.16255e-09
6.44637e-10
2.17256e-09
2.13314e-10
1.73634e-09
7.8023e-10
-2.06125e-10
1.58902e-11
-9.05376e-10
1.06724e-09
-2.16162e-09
2.75782e-09
-4.0171e-09
4.82911e-09
-6.49389e-09
7.10462e-09
-9.59608e-09
9.45399e-09
-1.33129e-08
1.17832e-08
-1.76218e-08
1.40271e-08
-2.24911e-08
1.61424e-08
-2.7883e-08
1.81022e-08
-3.37555e-08
1.98912e-08
-4.00647e-08
2.1503e-08
-4.67655e-08
2.29374e-08
-5.38134e-08
2.41983e-08
-6.11647e-08
2.52923e-08
-6.87775e-08
2.62281e-08
-7.66116e-08
2.70151e-08
-8.46291e-08
2.76628e-08
-9.2794e-08
2.8181e-08
-1.01073e-07
2.85786e-08
-1.09433e-07
2.88642e-08
-1.17846e-07
2.90452e-08
-1.26282e-07
2.91283e-08
-1.34715e-07
2.91192e-08
-1.43119e-07
2.90225e-08
-1.5147e-07
2.88419e-08
-1.59742e-07
2.85801e-08
-1.67913e-07
2.82391e-08
-1.7596e-07
2.78199e-08
-1.83859e-07
2.73231e-08
-1.91588e-07
2.67484e-08
-1.99122e-07
2.60952e-08
-2.0644e-07
2.53624e-08
-2.13517e-07
2.45486e-08
-2.20329e-07
2.36524e-08
-2.26852e-07
2.26721e-08
-2.33061e-07
2.16062e-08
-2.38933e-07
2.04534e-08
-2.4444e-07
1.92126e-08
-2.49559e-07
1.78831e-08
-2.54265e-07
1.64647e-08
-2.58533e-07
1.49578e-08
-2.62337e-07
1.33633e-08
-2.65656e-07
1.16831e-08
-2.68465e-07
9.91984e-09
-2.70744e-07
8.07701e-09
-2.72471e-07
6.15909e-09
-2.73628e-07
4.17158e-09
-2.74198e-07
2.12099e-09
-2.74166e-07
1.48882e-11
-2.7352e-07
-2.13811e-09
-2.72251e-07
-4.32834e-09
-2.70352e-07
-6.54513e-09
-2.67819e-07
-8.77685e-09
-2.64654e-07
-1.1011e-08
-2.60859e-07
-1.32342e-08
-2.56442e-07
-1.54324e-08
-2.51416e-07
-1.7591e-08
-2.45796e-07
-1.96948e-08
-2.39602e-07
-2.17286e-08
-2.32859e-07
-2.36768e-08
-2.25595e-07
-2.55238e-08
-2.17843e-07
-2.72545e-08
-2.09639e-07
-2.88539e-08
-2.01024e-07
-3.03078e-08
-1.92042e-07
-3.16028e-08
-1.8274e-07
-3.27265e-08
-1.7317e-07
-3.36676e-08
-1.63385e-07
-3.44163e-08
-1.53439e-07
-3.49641e-08
-1.4339e-07
-3.53045e-08
-1.33298e-07
-3.54326e-08
-1.2322e-07
-3.53455e-08
-1.13218e-07
-3.50421e-08
-1.0335e-07
-3.45238e-08
-9.36744e-08
-3.37936e-08
-8.42489e-08
-3.28571e-08
-7.51282e-08
-3.17216e-08
-6.63647e-08
-3.03968e-08
-5.80076e-08
-2.88944e-08
-5.01022e-08
-2.72279e-08
-4.26897e-08
-2.5413e-08
-3.58063e-08
-2.34674e-08
-2.94828e-08
-2.14102e-08
-2.3744e-08
-1.9263e-08
-1.86085e-08
-1.70489e-08
-1.40876e-08
-1.47931e-08
-1.01854e-08
-1.25229e-08
-6.89758e-09
-1.02683e-08
-4.21131e-09
-8.06154e-09
-2.10438e-09
-5.93853e-09
-5.44615e-10
-3.93878e-09
5.10844e-10
-2.10643e-09
1.11619e-09
-4.91042e-10
1.3377e-09
8.51485e-10
1.25452e-09
1.85799e-09
9.59786e-10
2.45728e-09
5.62396e-10
2.56995e-09
1.90412e-10
2.10833e-09
9.70642e-10
-3.13126e-10
3.29007e-10
-1.28441e-09
2.03854e-09
-2.94277e-09
4.41618e-09
-5.30614e-09
7.19248e-09
-8.37929e-09
1.01778e-08
-1.21541e-08
1.32288e-08
-1.6611e-08
1.62401e-08
-2.1721e-08
1.9137e-08
-2.74472e-08
2.18687e-08
-3.37477e-08
2.44026e-08
-4.05765e-08
2.67201e-08
-4.7886e-08
2.88125e-08
-5.56274e-08
3.06788e-08
-6.37524e-08
3.23232e-08
-7.22135e-08
3.37535e-08
-8.09649e-08
3.49795e-08
-8.99625e-08
3.60127e-08
-9.91644e-08
3.68648e-08
-1.08531e-07
3.75474e-08
-1.18024e-07
3.80719e-08
-1.27609e-07
3.84487e-08
-1.37251e-07
3.86871e-08
-1.46918e-07
3.87956e-08
-1.5658e-07
3.87812e-08
-1.66207e-07
3.86497e-08
-1.75771e-07
3.8406e-08
-1.85245e-07
3.80535e-08
-1.946e-07
3.75946e-08
-2.03811e-07
3.70309e-08
-2.12851e-07
3.6363e-08
-2.21693e-07
3.55908e-08
-2.30311e-07
3.47133e-08
-2.38678e-07
3.37294e-08
-2.46767e-07
3.26375e-08
-2.54551e-07
3.14357e-08
-2.62001e-07
3.01221e-08
-2.69089e-07
2.8695e-08
-2.75789e-07
2.71528e-08
-2.8207e-07
2.54942e-08
-2.87906e-07
2.37185e-08
-2.93267e-07
2.18258e-08
-2.98126e-07
1.98167e-08
-3.02455e-07
1.76927e-08
-3.06229e-07
1.54565e-08
-3.0942e-07
1.31116e-08
-3.12006e-07
1.06629e-08
-3.13963e-07
8.11638e-09
-3.15271e-07
5.47948e-09
-3.15911e-07
2.76084e-09
-3.15867e-07
-2.94966e-11
-3.15125e-07
-2.88014e-09
-3.13675e-07
-5.77835e-09
-3.1151e-07
-8.71008e-09
-3.08627e-07
-1.16601e-08
-3.05026e-07
-1.46119e-08
-3.00712e-07
-1.75481e-08
-2.95694e-07
-2.04504e-08
-2.89985e-07
-2.32996e-08
-2.83604e-07
-2.6076e-08
-2.76573e-07
-2.87597e-08
-2.68919e-07
-3.13302e-08
-2.60675e-07
-3.37676e-08
-2.51878e-07
-3.60519e-08
-2.42568e-07
-3.81638e-08
-2.32791e-07
-4.00848e-08
-2.22596e-07
-4.17975e-08
-2.12037e-07
-4.32856e-08
-2.0117e-07
-4.45345e-08
-1.90055e-07
-4.55314e-08
-1.78754e-07
-4.62655e-08
-1.67331e-07
-4.67279e-08
-1.55851e-07
-4.69125e-08
-1.44381e-07
-4.68154e-08
-1.32988e-07
-4.64352e-08
-1.21738e-07
-4.57736e-08
-1.10697e-07
-4.48346e-08
-9.99287e-08
-4.36253e-08
-8.94949e-08
-4.21554e-08
-7.94543e-08
-4.04374e-08
-6.9862e-08
-3.84866e-08
-6.07691e-08
-3.63208e-08
-5.22217e-08
-3.39604e-08
-4.42606e-08
-3.14285e-08
-3.69204e-08
-2.87504e-08
-3.02294e-08
-2.59541e-08
-2.42084e-08
-2.30699e-08
-1.88706e-08
-2.01309e-08
-1.42208e-08
-1.71727e-08
-1.02552e-08
-1.42339e-08
-6.9601e-09
-1.13566e-08
-4.31215e-09
-8.58648e-09
-2.27725e-09
-5.97367e-09
-8.10227e-10
-3.57345e-09
1.45798e-10
-1.44706e-09
6.5996e-10
3.37336e-10
8.14288e-10
1.70368e-09
7.0466e-10
2.5669e-09
4.42339e-10
2.83226e-09
1.56527e-10
2.39414e-09
1.12717e-09
-4.17583e-10
7.46582e-10
-1.65995e-09
3.28092e-09
-3.72286e-09
6.47907e-09
-6.59909e-09
1.00687e-08
-1.02744e-08
1.38531e-08
-1.47267e-08
1.7681e-08
-1.99256e-08
2.14391e-08
-2.58342e-08
2.50456e-08
-3.24096e-08
2.84441e-08
-3.96047e-08
3.15978e-08
-4.73697e-08
3.4485e-08
-5.56529e-08
3.70957e-08
-6.44021e-08
3.94281e-08
-7.35657e-08
4.14868e-08
-8.30928e-08
4.32805e-08
-9.29342e-08
4.48209e-08
-1.03043e-07
4.61211e-08
-1.13373e-07
4.71948e-08
-1.23881e-07
4.80559e-08
-1.34527e-07
4.87179e-08
-1.45271e-07
4.9193e-08
-1.56077e-07
4.94928e-08
-1.66909e-07
4.96271e-08
-1.77732e-07
4.96045e-08
-1.88514e-07
4.94323e-08
-1.99225e-07
4.9116e-08
-2.09831e-07
4.86601e-08
-2.20304e-07
4.80675e-08
-2.30613e-07
4.73401e-08
-2.40729e-07
4.64788e-08
-2.50621e-07
4.54833e-08
-2.60261e-07
4.43528e-08
-2.69617e-07
4.30858e-08
-2.7866e-07
4.16805e-08
-2.87359e-07
4.01347e-08
-2.95684e-07
3.84463e-08
-3.03602e-07
3.66132e-08
-3.11083e-07
3.46337e-08
-3.18095e-07
3.25064e-08
-3.24607e-07
3.02307e-08
-3.30588e-07
2.78068e-08
-3.36007e-07
2.52358e-08
-3.40835e-07
2.25199e-08
-3.45041e-07
1.96626e-08
-3.48598e-07
1.66686e-08
-3.51479e-07
1.35443e-08
-3.5366e-07
1.02974e-08
-3.55118e-07
6.93733e-09
-3.55832e-07
3.47528e-09
-3.55786e-07
-7.603e-11
-3.54964e-07
-3.70214e-09
-3.53355e-07
-7.38692e-09
-3.50953e-07
-1.11126e-08
-3.47753e-07
-1.48601e-08
-3.43756e-07
-1.86085e-08
-3.38968e-07
-2.2336e-08
-3.33399e-07
-2.60195e-08
-3.27064e-07
-2.9635e-08
-3.19982e-07
-3.31578e-08
-3.12179e-07
-3.65628e-08
-3.03684e-07
-3.98247e-08
-2.94534e-07
-4.2918e-08
-2.84768e-07
-4.58181e-08
-2.74431e-07
-4.85007e-08
-2.63573e-07
-5.09425e-08
-2.52249e-07
-5.31217e-08
-2.40517e-07
-5.50181e-08
-2.28438e-07
-5.66133e-08
-2.16078e-07
-5.78912e-08
-2.03505e-07
-5.88382e-08
-1.9079e-07
-5.94433e-08
-1.78004e-07
-5.96985e-08
-1.6522e-07
-5.9599e-08
-1.52512e-07
-5.91431e-08
-1.39953e-07
-5.83327e-08
-1.27615e-07
-5.71729e-08
-1.15568e-07
-5.56725e-08
-1.0388e-07
-5.38436e-08
-9.26151e-08
-5.17019e-08
-8.18351e-08
-4.92666e-08
-7.1596e-08
-4.65599e-08
-6.19486e-08
-4.36078e-08
-5.29381e-08
-4.0439e-08
-4.4603e-08
-3.70855e-08
-3.69745e-08
-3.35825e-08
-3.00762e-08
-2.99683e-08
-2.39229e-08
-2.62841e-08
-1.85209e-08
-2.25747e-08
-1.38667e-08
-1.88882e-08
-9.9467e-09
-1.52766e-08
-6.73686e-09
-1.17963e-08
-4.20204e-09
-8.50848e-09
-2.29564e-09
-5.47985e-09
-9.59144e-10
-2.78355e-09
-1.21746e-10
-5.00058e-10
3.00154e-10
1.28178e-09
4.03581e-10
2.46347e-09
2.9999e-10
2.93586e-09
1.16761e-10
2.57737e-09
1.24393e-09
-5.18124e-10
1.2647e-09
-2.02588e-09
4.7887e-09
-4.48863e-09
8.94182e-09
-7.87441e-09
1.34545e-08
-1.21495e-08
1.81282e-08
-1.72763e-08
2.28079e-08
-2.3213e-08
2.73758e-08
-2.99134e-08
3.17459e-08
-3.73275e-08
3.58582e-08
-4.54026e-08
3.96729e-08
-5.40842e-08
4.31667e-08
-6.33168e-08
4.63283e-08
-7.30447e-08
4.9156e-08
-8.3213e-08
5.1655e-08
-9.37677e-08
5.38353e-08
-1.04657e-07
5.571e-08
-1.1583e-07
5.72942e-08
-1.27239e-07
5.86037e-08
-1.38837e-07
5.96545e-08
-1.50582e-07
6.04622e-08
-1.6243e-07
6.10412e-08
-1.74342e-07
6.14046e-08
-1.86279e-07
6.15642e-08
-1.98204e-07
6.15301e-08
-2.10083e-07
6.13106e-08
-2.21879e-07
6.09125e-08
-2.3356e-07
6.03409e-08
-2.45092e-07
5.95993e-08
-2.56442e-07
5.869e-08
-2.67577e-07
5.7614e-08
-2.78465e-07
5.63712e-08
-2.89073e-07
5.49606e-08
-2.99367e-07
5.33806e-08
-3.09316e-07
5.16289e-08
-3.18884e-07
4.97033e-08
-3.28039e-07
4.76012e-08
-3.36746e-07
4.53203e-08
-3.44972e-07
4.28589e-08
-3.52681e-07
4.02154e-08
-3.59839e-07
3.73895e-08
-3.66414e-07
3.43815e-08
-3.72371e-07
3.1193e-08
-3.77678e-07
2.78271e-08
-3.82304e-07
2.42881e-08
-3.86217e-07
2.05821e-08
-3.8939e-07
1.67171e-08
-3.91796e-07
1.27028e-08
-3.93409e-07
8.55092e-09
-3.94209e-07
4.2751e-09
-3.94176e-07
-1.08865e-10
-3.93295e-07
-4.58323e-09
-3.91554e-07
-9.1282e-09
-3.88945e-07
-1.37221e-08
-3.85463e-07
-1.83413e-08
-3.81111e-07
-2.29605e-08
-3.75894e-07
-2.75531e-08
-3.69823e-07
-3.20909e-08
-3.62913e-07
-3.65445e-08
-3.55187e-07
-4.0884e-08
-3.46671e-07
-4.50787e-08
-3.37398e-07
-4.90978e-08
-3.27406e-07
-5.29104e-08
-3.16737e-07
-5.64863e-08
-3.05442e-07
-5.9796e-08
-2.93573e-07
-6.28114e-08
-2.81189e-07
-6.55056e-08
-2.68354e-07
-6.7854e-08
-2.55133e-07
-6.98342e-08
-2.41597e-07
-7.14266e-08
-2.27821e-07
-7.26145e-08
-2.1388e-07
-7.33844e-08
-1.99852e-07
-7.37266e-08
-1.85816e-07
-7.36349e-08
-1.71852e-07
-7.31074e-08
-1.58038e-07
-7.21461e-08
-1.44454e-07
-7.07572e-08
-1.31175e-07
-6.89512e-08
-1.18276e-07
-6.67431e-08
-1.05826e-07
-6.41517e-08
-9.38921e-08
-6.12003e-08
-8.25358e-08
-5.79163e-08
-7.18125e-08
-5.4331e-08
-6.17716e-08
-5.04798e-08
-5.24554e-08
-4.64017e-08
-4.38984e-08
-4.21396e-08
-3.61267e-08
-3.774e-08
-2.91573e-08
-3.32534e-08
-2.2998e-08
-2.8734e-08
-1.76462e-08
-2.424e-08
-1.30886e-08
-1.98341e-08
-9.30135e-09
-1.55836e-08
-6.2487e-09
-1.15611e-08
-3.88337e-09
-7.84516e-09
-2.14601e-09
-4.5209e-09
-9.6498e-10
-1.68109e-09
-2.56092e-10
5.72888e-10
7.76786e-11
2.12971e-09
1.46579e-10
2.86697e-09
7.45689e-11
2.64937e-09
1.31849e-09
-6.14152e-10
1.87885e-09
-2.37914e-09
6.55369e-09
-5.23263e-09
1.17953e-08
-9.11916e-09
1.7341e-08
-1.39855e-08
2.29946e-08
-1.97785e-08
2.86009e-08
-2.64437e-08
3.4041e-08
-3.39251e-08
3.92272e-08
-4.21648e-08
4.40979e-08
-5.11039e-08
4.86121e-08
-6.06828e-08
5.27456e-08
-7.08418e-08
5.64872e-08
-8.15216e-08
5.98358e-08
-9.2664e-08
6.27974e-08
-1.04212e-07
6.53836e-08
-1.16112e-07
6.76093e-08
-1.28309e-07
6.94914e-08
-1.40753e-07
7.10482e-08
-1.53396e-07
7.22976e-08
-1.66192e-07
7.32573e-08
-1.79094e-07
7.39438e-08
-1.92062e-07
7.43722e-08
-2.05053e-07
7.45558e-08
-2.18029e-07
7.45062e-08
-2.30952e-07
7.42329e-08
-2.43783e-07
7.37437e-08
-2.56487e-07
7.30445e-08
-2.69027e-07
7.21395e-08
-2.81368e-07
7.10312e-08
-2.93475e-07
6.97208e-08
-3.05312e-07
6.82082e-08
-3.16843e-07
6.64923e-08
-3.28034e-07
6.45712e-08
-3.38848e-07
6.24426e-08
-3.49248e-07
6.01038e-08
-3.59199e-07
5.7552e-08
-3.68664e-07
5.47848e-08
-3.77605e-07
5.18001e-08
-3.85986e-07
4.85965e-08
-3.9377e-07
4.51737e-08
-4.00921e-07
4.15324e-08
-4.07403e-07
3.76749e-08
-4.13181e-07
3.36048e-08
-4.1822e-07
2.93278e-08
-4.2249e-07
2.48514e-08
-4.25958e-07
2.01852e-08
-4.28596e-07
1.5341e-08
-4.30378e-07
1.03329e-08
-4.3128e-07
5.17739e-09
-4.31282e-07
-1.06531e-10
-4.30368e-07
-5.49762e-09
-4.28524e-07
-1.09722e-08
-4.25742e-07
-1.65043e-08
-4.22017e-07
-2.20658e-08
-4.17351e-07
-2.76266e-08
-4.1175e-07
-3.31547e-08
-4.05224e-07
-3.86166e-08
-3.97791e-07
-4.39775e-08
-3.89473e-07
-4.92016e-08
-3.803e-07
-5.42523e-08
-3.70305e-07
-5.90929e-08
-3.59528e-07
-6.36867e-08
-3.48017e-07
-6.79978e-08
-3.35822e-07
-7.19908e-08
-3.23001e-07
-7.56323e-08
-3.09616e-07
-7.88902e-08
-2.95735e-07
-8.17352e-08
-2.81429e-07
-8.41405e-08
-2.66773e-07
-8.60824e-08
-2.51847e-07
-8.75411e-08
-2.36731e-07
-8.85004e-08
-2.21509e-07
-8.89483e-08
-2.06266e-07
-8.88776e-08
-1.91088e-07
-8.82856e-08
-1.7606e-07
-8.71745e-08
-1.61265e-07
-8.55516e-08
-1.46787e-07
-8.34294e-08
-1.32705e-07
-8.08253e-08
-1.19094e-07
-7.77619e-08
-1.06028e-07
-7.42669e-08
-9.35712e-08
-7.03728e-08
-8.17852e-08
-6.6117e-08
-7.07235e-08
-6.15416e-08
-6.04321e-08
-5.66931e-08
-5.09488e-08
-5.16228e-08
-4.23029e-08
-4.6386e-08
-3.45136e-08
-4.10427e-08
-2.75903e-08
-3.56573e-08
-2.15319e-08
-3.02985e-08
-1.6326e-08
-2.504e-08
-1.1949e-08
-1.99607e-08
-8.36524e-09
-1.51448e-08
-5.52735e-09
-1.0683e-08
-3.37566e-09
-6.67258e-09
-1.8383e-09
-3.21845e-09
-8.31136e-10
-4.3428e-10
-2.57842e-10
1.55642e-09
-1.00835e-11
2.61921e-09
3.22179e-11
2.60707e-09
1.35071e-09
-7.05651e-10
2.58449e-09
-2.71848e-09
8.56653e-09
-5.95108e-09
1.50279e-08
-1.0326e-08
2.17159e-08
-1.57711e-08
2.84397e-08
-2.22177e-08
3.50475e-08
-2.95984e-08
4.14217e-08
-3.78468e-08
4.74756e-08
-4.68967e-08
5.31478e-08
-5.66824e-08
5.83979e-08
-6.71389e-08
6.32021e-08
-7.82019e-08
6.75502e-08
-8.98083e-08
7.14422e-08
-1.01897e-07
7.4886e-08
-1.14408e-07
7.78946e-08
-1.27284e-07
8.04852e-08
-1.40469e-07
8.26769e-08
-1.53911e-07
8.449e-08
-1.67558e-07
8.59449e-08
-1.81362e-07
8.70614e-08
-1.95277e-07
8.7858e-08
-2.09256e-07
8.83515e-08
-2.23257e-07
8.85571e-08
-2.37239e-07
8.84877e-08
-2.5116e-07
8.81541e-08
-2.64981e-07
8.7565e-08
-2.78664e-07
8.67272e-08
-2.92169e-07
8.56452e-08
-3.0546e-07
8.4322e-08
-3.18498e-07
8.27588e-08
-3.31246e-07
8.09557e-08
-3.43665e-07
7.89113e-08
-3.55717e-07
7.66236e-08
-3.67364e-07
7.40899e-08
-3.78568e-07
7.13073e-08
-3.89289e-07
6.82728e-08
-3.99487e-07
6.49836e-08
-4.09125e-07
6.14375e-08
-4.18162e-07
5.76333e-08
-4.26558e-07
5.35706e-08
-4.34277e-07
4.92508e-08
-4.41278e-07
4.46764e-08
-4.47526e-07
3.98523e-08
-4.52983e-07
3.47851e-08
-4.57616e-07
2.94838e-08
-4.6139e-07
2.39599e-08
-4.64277e-07
1.82273e-08
-4.66246e-07
1.23027e-08
-4.67275e-07
6.20568e-09
-4.6734e-07
-4.16408e-11
-4.66423e-07
-6.41423e-09
-4.64511e-07
-1.28843e-08
-4.61594e-07
-1.94215e-08
-4.57667e-07
-2.59928e-08
-4.5273e-07
-3.2563e-08
-4.4679e-07
-3.90947e-08
-4.39858e-07
-4.55487e-08
-4.31951e-07
-5.18842e-08
-4.23094e-07
-5.80594e-08
-4.13315e-07
-6.40314e-08
-4.0265e-07
-6.97574e-08
-3.91142e-07
-7.51944e-08
-3.7884e-07
-8.03001e-08
-3.65798e-07
-8.50333e-08
-3.52075e-07
-8.93546e-08
-3.37739e-07
-9.32265e-08
-3.2286e-07
-9.66144e-08
-3.07513e-07
-9.94868e-08
-2.9178e-07
-1.01816e-07
-2.75743e-07
-1.03578e-07
-2.5949e-07
-1.04754e-07
-2.43109e-07
-1.05329e-07
-2.26691e-07
-1.05296e-07
-2.10327e-07
-1.0465e-07
-1.94108e-07
-1.03393e-07
-1.78125e-07
-1.01535e-07
-1.62465e-07
-9.9089e-08
-1.47215e-07
-9.60757e-08
-1.32455e-07
-9.25214e-08
-1.18264e-07
-8.84582e-08
-1.04712e-07
-8.39243e-08
-9.18661e-08
-7.89632e-08
-7.97833e-08
-7.36244e-08
-6.8514e-08
-6.79624e-08
-5.80999e-08
-6.20369e-08
-4.85731e-08
-5.59129e-08
-3.99556e-08
-4.96602e-08
-3.2259e-08
-4.33539e-08
-2.54837e-08
-3.70737e-08
-1.96187e-08
-3.0905e-08
-1.46411e-08
-2.49383e-08
-1.05157e-08
-1.92702e-08
-7.19542e-09
-1.40033e-08
-4.62067e-09
-9.24733e-09
-2.71972e-09
-5.11941e-09
-1.40882e-09
-1.74517e-09
-5.92651e-10
7.40253e-10
-1.64831e-10
2.19138e-09
-8.88745e-12
2.45113e-09
1.34183e-09
-7.92855e-10
3.37735e-09
-3.04364e-09
1.08173e-08
-6.64238e-09
1.86266e-08
-1.14911e-08
2.65647e-08
-1.74999e-08
3.44486e-08
-2.45846e-08
4.21321e-08
-3.2665e-08
4.95021e-08
-4.16641e-08
5.64746e-08
-5.15069e-08
6.29906e-08
-6.21207e-08
6.90116e-08
-7.34345e-08
7.45159e-08
-8.53793e-08
7.9495e-08
-9.78883e-08
8.39512e-08
-1.10897e-07
8.78943e-08
-1.24342e-07
9.13399e-08
-1.38164e-07
9.43072e-08
-1.52305e-07
9.68181e-08
-1.6671e-07
9.88951e-08
-1.81326e-07
1.00561e-07
-1.96103e-07
1.01838e-07
-2.1099e-07
1.02746e-07
-2.25943e-07
1.03304e-07
-2.40915e-07
1.03529e-07
-2.55863e-07
1.03436e-07
-2.70745e-07
1.03036e-07
-2.85518e-07
1.02338e-07
-3.00143e-07
1.01351e-07
-3.14578e-07
1.0008e-07
-3.28783e-07
9.85275e-08
-3.42719e-07
9.6695e-08
-3.56346e-07
9.45825e-08
-3.69623e-07
9.21886e-08
-3.82511e-07
8.95111e-08
-3.94968e-07
8.65469e-08
-4.06953e-07
8.32927e-08
-4.18426e-07
7.97454e-08
-4.29344e-07
7.59019e-08
-4.39666e-07
7.17598e-08
-4.49351e-07
6.7318e-08
-4.58357e-07
6.25763e-08
-4.66642e-07
5.75362e-08
-4.74167e-07
5.22013e-08
-4.80892e-07
4.65769e-08
-4.86778e-07
4.06712e-08
-4.91788e-07
3.44945e-08
-4.95889e-07
2.80603e-08
-4.99046e-07
2.13847e-08
-5.01231e-07
1.44872e-08
-5.02415e-07
7.39023e-09
-5.02576e-07
1.19446e-10
-5.01694e-07
-7.29626e-09
-4.99754e-07
-1.48249e-08
-4.96744e-07
-2.24313e-08
-4.92659e-07
-3.00776e-08
-4.87499e-07
-3.77232e-08
-4.81269e-07
-4.5325e-08
-4.73979e-07
-5.28378e-08
-4.65649e-07
-6.02145e-08
-4.56301e-07
-6.7407e-08
-4.45967e-07
-7.43659e-08
-4.34683e-07
-8.10416e-08
-4.22493e-07
-8.73845e-08
-4.09447e-07
-9.33458e-08
-3.95602e-07
-9.88778e-08
-3.81022e-07
-1.03935e-07
-3.65775e-07
-1.08473e-07
-3.49937e-07
-1.12453e-07
-3.33586e-07
-1.15838e-07
-3.16807e-07
-1.18594e-07
-2.99689e-07
-1.20696e-07
-2.82324e-07