/*--------------------------------*- C++ -*----------------------------------*\
  =========                 |
  \\      /  F ield         | OpenFOAM: The Open Source CFD Toolbox
   \\    /   O peration     | Website:  https://openfoam.org
    \\  /    A nd           | Version:  7
     \\/     M anipulation  |
\*---------------------------------------------------------------------------*/
FoamFile
{
    version     2.0;
    format      ascii;
    class       volVectorField;
    location    "0.4375";
    object      U;
}
// * * * * * * * * * * * * * * * * * * * * * * * * * * * * * * * * * * * * * //

dimensions      [0 1 -1 0 0 0 0];

internalField   nonuniform List<vector> 
10000
(
(4.23374e-06 -3.73305e-06 0)
(1.43407e-05 -6.19848e-06 0)
(2.52104e-05 -5.19112e-06 0)
(2.96607e-05 -2.3967e-06 0)
(2.48473e-05 1.00157e-06 0)
(9.8669e-06 4.45876e-06 0)
(-1.52568e-05 7.74352e-06 0)
(-5.00179e-05 1.07555e-05 0)
(-9.36383e-05 1.34455e-05 0)
(-0.000145258 1.5812e-05 0)
(-0.000204012 1.78709e-05 0)
(-0.000269047 1.96415e-05 0)
(-0.000339547 2.11502e-05 0)
(-0.000414749 2.24254e-05 0)
(-0.000493953 2.34914e-05 0)
(-0.000576527 2.43689e-05 0)
(-0.000661895 2.50771e-05 0)
(-0.000749535 2.56367e-05 0)
(-0.000838978 2.6068e-05 0)
(-0.000929802 2.63873e-05 0)
(-0.00102163 2.66055e-05 0)
(-0.00111412 2.67311e-05 0)
(-0.00120697 2.67736e-05 0)
(-0.00129988 2.67417e-05 0)
(-0.00139259 2.66424e-05 0)
(-0.00148486 2.64794e-05 0)
(-0.00157645 2.62541e-05 0)
(-0.00166713 2.59676e-05 0)
(-0.00175667 2.56207e-05 0)
(-0.00184485 2.52132e-05 0)
(-0.00193144 2.47435e-05 0)
(-0.00201622 2.42091e-05 0)
(-0.00209895 2.36076e-05 0)
(-0.00217938 2.29367e-05 0)
(-0.00225726 2.21929e-05 0)
(-0.00233232 2.13721e-05 0)
(-0.0024043 2.04702e-05 0)
(-0.0024729 1.94839e-05 0)
(-0.00253785 1.8411e-05 0)
(-0.00259885 1.72494e-05 0)
(-0.00265558 1.5997e-05 0)
(-0.00270775 1.46518e-05 0)
(-0.00275504 1.32123e-05 0)
(-0.00279714 1.16787e-05 0)
(-0.00283375 1.00522e-05 0)
(-0.00286457 8.33499e-06 0)
(-0.00288931 6.53012e-06 0)
(-0.0029077 4.64192e-06 0)
(-0.00291948 2.67605e-06 0)
(-0.00292441 6.39598e-07 0)
(-0.0029223 -1.45923e-06 0)
(-0.00291295 -3.61089e-06 0)
(-0.00289624 -5.80423e-06 0)
(-0.00287204 -8.02707e-06 0)
(-0.00284031 -1.02664e-05 0)
(-0.00280103 -1.25079e-05 0)
(-0.00275422 -1.47361e-05 0)
(-0.00269998 -1.69345e-05 0)
(-0.00263844 -1.90859e-05 0)
(-0.0025698 -2.11723e-05 0)
(-0.00249431 -2.31759e-05 0)
(-0.00241229 -2.50788e-05 0)
(-0.00232411 -2.68629e-05 0)
(-0.00223019 -2.85104e-05 0)
(-0.00213102 -3.00046e-05 0)
(-0.00202713 -3.13293e-05 0)
(-0.00191911 -3.24696e-05 0)
(-0.00180759 -3.34121e-05 0)
(-0.00169324 -3.41449e-05 0)
(-0.00157676 -3.46576e-05 0)
(-0.0014589 -3.49421e-05 0)
(-0.0013404 -3.49926e-05 0)
(-0.00122204 -3.48058e-05 0)
(-0.0011046 -3.43805e-05 0)
(-0.000988864 -3.37179e-05 0)
(-0.000875595 -3.28216e-05 0)
(-0.000765553 -3.16979e-05 0)
(-0.000659467 -3.03553e-05 0)
(-0.000558038 -2.88046e-05 0)
(-0.000461927 -2.70592e-05 0)
(-0.000371749 -2.51342e-05 0)
(-0.000288067 -2.30466e-05 0)
(-0.000211384 -2.08145e-05 0)
(-0.000142139 -1.8458e-05 0)
(-8.07025e-05 -1.59988e-05 0)
(-2.73667e-05 -1.346e-05 0)
(1.76565e-05 -1.08663e-05 0)
(5.42445e-05 -8.24429e-06 0)
(8.23712e-05 -5.62313e-06 0)
(0.000102117 -3.0355e-06 0)
(0.000113685 -5.19302e-07 0)
(0.000117419 1.87876e-06 0)
(0.000113837 4.09739e-06 0)
(0.000103671 6.05271e-06 0)
(8.79463e-05 7.62118e-06 0)
(6.8083e-05 8.61767e-06 0)
(4.60296e-05 8.7648e-06 0)
(2.44814e-05 7.64061e-06 0)
(7.49975e-06 4.71283e-06 0)
(3.84871e-07 3.97601e-07 0)
(6.94754e-06 -1.45513e-05 0)
(2.10084e-05 -2.01258e-05 0)
(2.954e-05 -1.20861e-05 0)
(2.15593e-05 3.24545e-06 0)
(-8.775e-06 2.18069e-05 0)
(-6.38587e-05 4.12405e-05 0)
(-0.000144114 6.02461e-05 0)
(-0.000248812 7.81353e-05 0)
(-0.000376519 9.45618e-05 0)
(-0.000525398 0.000109372 0)
(-0.000693441 0.000122534 0)
(-0.00087861 0.000134087 0)
(-0.00107888 0.000144122 0)
(-0.00129231 0.000152747 0)
(-0.00151706 0.00016007 0)
(-0.00175144 0.000166201 0)
(-0.0019939 0.000171248 0)
(-0.00224299 0.000175318 0)
(-0.0024974 0.000178512 0)
(-0.00275594 0.000180915 0)
(-0.00301753 0.000182601 0)
(-0.00328116 0.000183633 0)
(-0.00354594 0.000184068 0)
(-0.00381101 0.000183954 0)
(-0.00407559 0.000183328 0)
(-0.00433892 0.000182218 0)
(-0.0046003 0.00018064 0)
(-0.00485904 0.000178605 0)
(-0.00511447 0.00017612 0)
(-0.0053659 0.000173184 0)
(-0.00561267 0.000169792 0)
(-0.0058541 0.000165933 0)
(-0.00608948 0.000161595 0)
(-0.00631811 0.000156762 0)
(-0.00653925 0.000151416 0)
(-0.00675215 0.000145538 0)
(-0.00695604 0.000139111 0)
(-0.00715011 0.000132119 0)
(-0.00733355 0.000124547 0)
(-0.00750552 0.000116382 0)
(-0.00766519 0.000107616 0)
(-0.0078117 9.82414e-05 0)
(-0.0079442 8.82583e-05 0)
(-0.00806185 7.76711e-05 0)
(-0.00816381 6.64911e-05 0)
(-0.00824929 5.47357e-05 0)
(-0.0083175 4.24301e-05 0)
(-0.00836771 2.96064e-05 0)
(-0.00839925 1.63045e-05 0)
(-0.00841149 2.5721e-06 0)
(-0.00840389 -1.15351e-05 0)
(-0.008376 -2.5953e-05 0)
(-0.00832746 -4.06096e-05 0)
(-0.00825801 -5.54247e-05 0)
(-0.00816752 -7.03117e-05 0)
(-0.00805598 -8.51773e-05 0)
(-0.00792352 -9.99216e-05 0)
(-0.0077704 -0.00011444 0)
(-0.00759703 -0.000128623 0)
(-0.00740398 -0.000142359 0)
(-0.00719198 -0.000155536 0)
(-0.0069619 -0.000168038 0)
(-0.00671477 -0.000179754 0)
(-0.00645178 -0.000190573 0)
(-0.00617425 -0.00020039 0)
(-0.00588367 -0.000209106 0)
(-0.00558164 -0.000216626 0)
(-0.00526988 -0.000222868 0)
(-0.00495023 -0.000227756 0)
(-0.00462461 -0.00023123 0)
(-0.00429503 -0.000233237 0)
(-0.00396354 -0.000233744 0)
(-0.00363226 -0.000232727 0)
(-0.00330329 -0.00023018 0)
(-0.00297877 -0.00022611 0)
(-0.00266078 -0.000220542 0)
(-0.00235139 -0.000213515 0)
(-0.00205258 -0.000205082 0)
(-0.00176626 -0.000195313 0)
(-0.00149423 -0.000184292 0)
(-0.00123817 -0.000172114 0)
(-0.000999603 -0.00015889 0)
(-0.000779908 -0.00014474 0)
(-0.000580276 -0.000129797 0)
(-0.000401703 -0.000114206 0)
(-0.000244973 -9.81232e-05 0)
(-0.000110639 -8.17177e-05 0)
(1.0009e-06 -6.51739e-05 0)
(8.99219e-05 -4.86949e-05 0)
(0.000156408 -3.25085e-05 0)
(0.00020109 -1.68769e-05 0)
(0.000224995 -2.11186e-06 0)
(0.000229618 1.14037e-05 0)
(0.000217017 2.31829e-05 0)
(0.000189941 3.25852e-05 0)
(0.000151996 3.87563e-05 0)
(0.000107759 4.05723e-05 0)
(6.2908e-05 3.65943e-05 0)
(2.52047e-05 2.53104e-05 0)
(4.64705e-06 7.47766e-06 0)
(5.66889e-06 -2.57887e-05 0)
(1.2875e-05 -2.9096e-05 0)
(5.20456e-06 -4.38043e-06 0)
(-2.8916e-05 3.57885e-05 0)
(-9.61657e-05 8.36401e-05 0)
(-0.000199507 0.000134184 0)
(-0.000339718 0.000184291 0)
(-0.000516067 0.000232082 0)
(-0.000726762 0.000276505 0)
(-0.000969392 0.000317025 0)
(-0.00124122 0.000353419 0)
(-0.00153938 0.000385682 0)
(-0.00186094 0.000413953 0)
(-0.00220307 0.000438442 0)
(-0.00256303 0.000459394 0)
(-0.00293828 0.00047707 0)
(-0.00332642 0.000491736 0)
(-0.00372522 0.000503656 0)
(-0.00413265 0.000513077 0)
(-0.0045468 0.000520224 0)
(-0.00496595 0.000525294 0)
(-0.00538851 0.000528459 0)
(-0.00581299 0.000529869 0)
(-0.00623802 0.000529651 0)
(-0.00666229 0.000527908 0)
(-0.00708457 0.000524715 0)
(-0.0075037 0.000520126 0)
(-0.00791852 0.000514175 0)
(-0.00832793 0.00050688 0)
(-0.00873081 0.000498244 0)
(-0.00912606 0.000488258 0)
(-0.00951254 0.000476897 0)
(-0.00988913 0.000464131 0)
(-0.0102547 0.00044992 0)
(-0.010608 0.000434223 0)
(-0.0109478 0.000416995 0)
(-0.011273 0.000398193 0)
(-0.0115822 0.000377777 0)
(-0.0118741 0.000355711 0)
(-0.0121475 0.000331966 0)
(-0.012401 0.000306524 0)
(-0.0126332 0.000279376 0)
(-0.0128429 0.000250527 0)
(-0.0130287 0.000219997 0)
(-0.0131894 0.000187823 0)
(-0.0133236 0.00015406 0)
(-0.0134303 0.000118782 0)
(-0.0135083 8.20857e-05 0)
(-0.0135565 4.40866e-05 0)
(-0.0135741 4.92245e-06 0)
(-0.0135602 -3.52469e-05 0)
(-0.0135142 -7.6239e-05 0)
(-0.0134355 -0.00011785 0)
(-0.0133237 -0.000159857 0)
(-0.0131788 -0.000202014 0)
(-0.0130007 -0.000244061 0)
(-0.0127896 -0.000285721 0)
(-0.0125461 -0.000326704 0)
(-0.0122707 -0.000366708 0)
(-0.0119645 -0.000405424 0)
(-0.0116285 -0.000442542 0)
(-0.0112641 -0.000477747 0)
(-0.010873 -0.000510731 0)
(-0.0104571 -0.000541191 0)
(-0.0100183 -0.000568839 0)
(-0.00955904 -0.000593401 0)
(-0.00908179 -0.000614623 0)
(-0.00858922 -0.000632275 0)
(-0.00808417 -0.000646156 0)
(-0.00756965 -0.000656095 0)
(-0.00704874 -0.000661957 0)
(-0.00652464 -0.000663641 0)
(-0.0060006 -0.000661089 0)
(-0.0054799 -0.000654282 0)
(-0.00496582 -0.000643242 0)
(-0.00446161 -0.000628036 0)
(-0.00397044 -0.00060877 0)
(-0.0034954 -0.000585596 0)
(-0.00303943 -0.000558703 0)
(-0.00260533 -0.000528323 0)
(-0.00219569 -0.000494725 0)
(-0.00181288 -0.000458214 0)
(-0.00145902 -0.00041913 0)
(-0.00113596 -0.000377849 0)
(-0.000845226 -0.000334779 0)
(-0.000588028 -0.000290367 0)
(-0.000365195 -0.000245095 0)
(-0.000177164 -0.000199493 0)
(-2.39325e-05 -0.000154143 0)
(9.49801e-05 -0.000109695 0)
(0.000180591 -6.68896e-05 0)
(0.000234523 -2.65924e-05 0)
(0.00025909 1.01695e-05 0)
(0.000257402 4.2143e-05 0)
(0.000233498 6.77765e-05 0)
(0.000192498 8.51426e-05 0)
(0.000140635 9.19012e-05 0)
(8.52786e-05 8.53595e-05 0)
(3.6363e-05 6.29276e-05 0)
(7.50312e-06 2.42961e-05 0)
(2.74843e-06 -3.08929e-05 0)
(-2.74254e-06 -2.15867e-05 0)
(-3.5468e-05 2.97224e-05 0)
(-0.000104912 0.000104847 0)
(-0.000217059 0.000192501 0)
(-0.000374947 0.000284928 0)
(-0.000579335 0.000376933 0)
(-0.000829329 0.000465261 0)
(-0.00112289 0.000547945 0)
(-0.00145722 0.000623876 0)
(-0.00182907 0.000692527 0)
(-0.00223497 0.000753777 0)
(-0.00267133 0.000807763 0)
(-0.00313462 0.000854781 0)
(-0.00362142 0.000895213 0)
(-0.00412849 0.000929495 0)
(-0.00465273 0.000958083 0)
(-0.00519125 0.000981432 0)
(-0.00574137 0.000999977 0)
(-0.00630059 0.00101411 0)
(-0.00686662 0.0010242 0)
(-0.00743729 0.00103055 0)
(-0.00801061 0.00103345 0)
(-0.00858468 0.00103312 0)
(-0.00915775 0.00102976 0)
(-0.00972811 0.00102351 0)
(-0.0102941 0.00101447 0)
(-0.0108543 0.00100272 0)
(-0.011407 0.00098829 0)
(-0.0119507 0.000971189 0)
(-0.0124839 0.000951404 0)
(-0.013005 0.000928899 0)
(-0.0135126 0.000903621 0)
(-0.014005 0.000875504 0)
(-0.0144806 0.000844475 0)
(-0.0149378 0.000810458 0)
(-0.0153748 0.000773381 0)
(-0.0157901 0.000733175 0)
(-0.0161818 0.000689781 0)
(-0.0165482 0.000643154 0)
(-0.0168876 0.000593267 0)
(-0.0171981 0.000540112 0)
(-0.0174781 0.000483711 0)
(-0.0177258 0.000424111 0)
(-0.0179396 0.00036139 0)
(-0.0181178 0.000295663 0)
(-0.0182588 0.000227079 0)
(-0.0183613 0.000155829 0)
(-0.0184239 8.21399e-05 0)
(-0.0184454 6.28202e-06 0)
(-0.0184248 -7.14345e-05 0)
(-0.0183612 -0.000150658 0)
(-0.0182541 -0.000230997 0)
(-0.0181029 -0.000312022 0)
(-0.0179075 -0.000393267 0)
(-0.017668 -0.000474235 0)
(-0.0173848 -0.000554398 0)
(-0.0170583 -0.000633206 0)
(-0.0166897 -0.000710089 0)
(-0.0162801 -0.000784463 0)
(-0.015831 -0.00085574 0)
(-0.0153443 -0.000923328 0)
(-0.0148223 -0.000986646 0)
(-0.0142672 -0.00104513 0)
(-0.0136819 -0.00109822 0)
(-0.0130694 -0.00114543 0)
(-0.012433 -0.00118625 0)
(-0.0117762 -0.00122028 0)
(-0.0111028 -0.00124712 0)
(-0.0104166 -0.00126646 0)
(-0.00972167 -0.00127804 0)
(-0.00902224 -0.00128168 0)
(-0.00832255 -0.00127727 0)
(-0.00762689 -0.00126477 0)
(-0.00693954 -0.00124422 0)
(-0.00626475 -0.00121575 0)
(-0.00560669 -0.00117956 0)
(-0.00496937 -0.00113593 0)
(-0.00435667 -0.00108524 0)
(-0.00377223 -0.00102791 0)
(-0.00321945 -0.000964452 0)
(-0.00270144 -0.000895457 0)
(-0.00222097 -0.000821573 0)
(-0.00178045 -0.00074352 0)
(-0.0013819 -0.000662083 0)
(-0.00102686 -0.000578122 0)
(-0.000716412 -0.000492568 0)
(-0.000451113 -0.00040644 0)
(-0.00023094 -0.000320858 0)
(-5.52455e-05 -0.000237065 0)
(7.73053e-05 -0.000156465 0)
(0.00016881 -8.0662e-05 0)
(0.000222215 -1.15251e-05 0)
(0.00024141 4.87375e-05 0)
(0.000231348 9.74941e-05 0)
(0.000198158 0.000131611 0)
(0.000149148 0.000147431 0)
(9.27984e-05 0.000140874 0)
(4.05612e-05 0.000107872 0)
(8.60056e-06 4.56324e-05 0)
(-7.80803e-07 -2.63245e-05 0)
(-2.18792e-05 8.91209e-06 0)
(-8.49192e-05 9.75665e-05 0)
(-0.000195543 0.000217374 0)
(-0.000358067 0.000353902 0)
(-0.000575039 0.000496926 0)
(-0.000846832 0.000639358 0)
(-0.00117221 0.000776528 0)
(-0.00154881 0.00090547 0)
(-0.00197352 0.00102443 0)
(-0.00244266 0.0011325 0)
(-0.00295229 0.00122939 0)
(-0.00349833 0.00131517 0)
(-0.00407673 0.0013902 0)
(-0.0046835 0.00145499 0)
(-0.00531482 0.00151014 0)
(-0.00596705 0.00155631 0)
(-0.00663672 0.00159416 0)
(-0.00732063 0.00162432 0)
(-0.00801574 0.0016474 0)
(-0.00871924 0.00166392 0)
(-0.00942848 0.00167438 0)
(-0.010141 0.0016792 0)
(-0.0108544 0.00167873 0)
(-0.0115665 0.00167326 0)
(-0.0122752 0.00166303 0)
(-0.0129784 0.0016482 0)
(-0.0136742 0.00162888 0)
(-0.0143605 0.00160513 0)
(-0.0150356 0.00157699 0)
(-0.0156973 0.00154442 0)
(-0.0163439 0.00150737 0)
(-0.0169733 0.00146579 0)
(-0.0175836 0.00141956 0)
(-0.0181727 0.00136859 0)
(-0.0187387 0.00131277 0)
(-0.0192794 0.00125198 0)
(-0.0197928 0.00118615 0)
(-0.0202767 0.00111517 0)
(-0.020729 0.001039 0)
(-0.0211475 0.000957609 0)
(-0.02153 0.000870992 0)
(-0.0218745 0.000779197 0)
(-0.0221789 0.000682313 0)
(-0.0224411 0.000580479 0)
(-0.0226592 0.000473888 0)
(-0.0228313 0.00036279 0)
(-0.0229558 0.000247497 0)
(-0.023031 0.000128383 0)
(-0.0230556 5.88544e-06 0)
(-0.0230283 -0.000119494 0)
(-0.0229481 -0.000247189 0)
(-0.0228144 -0.000376572 0)
(-0.0226266 -0.000506957 0)
(-0.0223845 -0.000637602 0)
(-0.0220885 -0.000767713 0)
(-0.0217387 -0.000896455 0)
(-0.0213362 -0.00102295 0)
(-0.020882 -0.00114631 0)
(-0.0203777 -0.0012656 0)
(-0.0198252 -0.00137988 0)
(-0.0192267 -0.00148824 0)
(-0.0185849 -0.00158976 0)
(-0.0179028 -0.00168353 0)
(-0.0171837 -0.00176871 0)
(-0.0164313 -0.00184448 0)
(-0.0156495 -0.00191009 0)
(-0.0148427 -0.00196487 0)
(-0.0140153 -0.00200823 0)
(-0.013172 -0.00203966 0)
(-0.0123178 -0.00205875 0)
(-0.0114577 -0.00206523 0)
(-0.0105968 -0.00205891 0)
(-0.00974034 -0.00203973 0)
(-0.00889346 -0.00200777 0)
(-0.00806129 -0.00196322 0)
(-0.00724884 -0.00190641 0)
(-0.006461 -0.00183778 0)
(-0.00570243 -0.00175791 0)
(-0.00497753 -0.00166749 0)
(-0.00429041 -0.00156733 0)
(-0.00364483 -0.00145837 0)
(-0.00304414 -0.00134164 0)
(-0.00249125 -0.00121828 0)
(-0.00198859 -0.00108957 0)
(-0.00153803 -0.000956876 0)
(-0.00114088 -0.000821687 0)
(-0.000797795 -0.000685634 0)
(-0.000508753 -0.000550499 0)
(-0.000272988 -0.000418252 0)
(-8.89262e-05 -0.000291086 0)
(4.5886e-05 -0.000171477 0)
(0.000134859 -6.22532e-05 0)
(0.000182439 3.3324e-05 0)
(0.00019421 0.000111469 0)
(0.000176984 0.000167797 0)
(0.000138781 0.000197286 0)
(8.88621e-05 0.000194354 0)
(3.96417e-05 0.00015311 0)
(8.53768e-06 6.7686e-05 0)
(-4.41282e-06 -1.11524e-05 0)
(-4.23586e-05 6.5265e-05 0)
(-0.000138477 0.00020324 0)
(-0.000293675 0.000377769 0)
(-0.000510005 0.000572015 0)
(-0.000789028 0.000773714 0)
(-0.00113041 0.000974143 0)
(-0.00153238 0.00116732 0)
(-0.00199216 0.00134934 0)
(-0.00250622 0.00151779 0)
(-0.00307052 0.00167136 0)
(-0.00368071 0.00180952 0)
(-0.00433232 0.00193227 0)
(-0.00502086 0.00204001 0)
(-0.00574188 0.00213335 0)
(-0.00649111 0.00221307 0)
(-0.00726443 0.00228002 0)
(-0.00805792 0.00233506 0)
(-0.00886791 0.00237904 0)
(-0.0096909 0.00241276 0)
(-0.0105236 0.00243696 0)
(-0.011363 0.00245231 0)
(-0.0122062 0.00245938 0)
(-0.0130503 0.00245867 0)
(-0.0138928 0.00245059 0)
(-0.0147311 0.00243545 0)
(-0.0155628 0.00241349 0)
(-0.0163856 0.00238488 0)
(-0.0171971 0.0023497 0)
(-0.0179949 0.002308 0)
(-0.0187769 0.00225976 0)
(-0.0195406 0.00220491 0)
(-0.0202838 0.00214335 0)
(-0.0210041 0.00207497 0)
(-0.0216992 0.00199964 0)
(-0.0223666 0.0019172 0)
(-0.0230038 0.00182752 0)
(-0.0236085 0.00173047 0)
(-0.024178 0.00162597 0)
(-0.02471 0.00151393 0)
(-0.0252018 0.00139434 0)
(-0.0256511 0.00126721 0)
(-0.0260553 0.00113262 0)
(-0.0264121 0.000990726 0)
(-0.026719 0.000841734 0)
(-0.0269739 0.00068594 0)
(-0.0271747 0.000523718 0)
(-0.0273194 0.000355531 0)
(-0.0274061 0.000181926 0)
(-0.0274333 3.54494e-06 0)
(-0.0273997 -0.000178883 0)
(-0.0273042 -0.000364536 0)
(-0.0271459 -0.000552507 0)
(-0.0269243 -0.000741806 0)
(-0.0266394 -0.000931365 0)
(-0.0262912 -0.00112005 0)
(-0.0258804 -0.00130665 0)
(-0.0254079 -0.00148992 0)
(-0.0248751 -0.00166858 0)
(-0.0242839 -0.0018413 0)
(-0.0236364 -0.00200675 0)
(-0.0229353 -0.00216362 0)
(-0.0221836 -0.00231058 0)
(-0.0213848 -0.00244637 0)
(-0.0205428 -0.00256978 0)
(-0.0196618 -0.00267964 0)
(-0.0187464 -0.00277489 0)
(-0.0178016 -0.00285457 0)
(-0.0168324 -0.00291784 0)
(-0.0158445 -0.00296397 0)
(-0.0148433 -0.0029924 0)
(-0.0138348 -0.00300272 0)
(-0.0128248 -0.00299467 0)
(-0.0118193 -0.00296817 0)
(-0.0108243 -0.00292332 0)
(-0.00984573 -0.0028604 0)
(-0.00888929 -0.00277988 0)
(-0.00796064 -0.00268239 0)
(-0.00706517 -0.00256875 0)
(-0.00620796 -0.00243996 0)
(-0.00539376 -0.00229718 0)
(-0.0046269 -0.00214175 0)
(-0.00391127 -0.00197517 0)
(-0.00325023 -0.00179908 0)
(-0.00264657 -0.00161531 0)
(-0.00210248 -0.00142584 0)
(-0.00161946 -0.00123281 0)
(-0.00119831 -0.00103856 0)
(-0.000839012 -0.00084565 0)
(-0.000540738 -0.000656871 0)
(-0.000301748 -0.000475312 0)
(-0.00011934 -0.000304411 0)
(1.02208e-05 -0.000148034 0)
(9.1767e-05 -1.0561e-05 0)
(0.000131309 0.000103029 0)
(0.000136113 0.000187067 0)
(0.000114676 0.000235135 0)
(7.67838e-05 0.000240073 0)
(3.53019e-05 0.000194046 0)
(7.78871e-06 8.81875e-05 0)
(-7.95661e-06 1.48197e-05 0)
(-6.30391e-05 0.00014871 0)
(-0.000193343 0.00034878 0)
(-0.000394759 0.000588445 0)
(-0.000666683 0.000849233 0)
(-0.00100939 0.00111734 0)
(-0.00142159 0.00138271 0)
(-0.00190077 0.00163827 0)
(-0.00244357 0.00187928 0)
(-0.00304601 0.00210275 0)
(-0.00370364 0.00230696 0)
(-0.00441176 0.00249115 0)
(-0.00516551 0.00265526 0)
(-0.00596003 0.00279969 0)
(-0.0067905 0.00292515 0)
(-0.00765225 0.00303258 0)
(-0.00854076 0.00312302 0)
(-0.00945176 0.00319754 0)
(-0.0103811 0.0032572 0)
(-0.011325 0.00330301 0)
(-0.0122798 0.00333592 0)
(-0.0132419 0.00335678 0)
(-0.0142082 0.00336633 0)
(-0.0151754 0.00336522 0)
(-0.0161406 0.00335396 0)
(-0.0171008 0.00333298 0)
(-0.0180534 0.00330258 0)
(-0.0189955 0.003263 0)
(-0.0199245 0.00321435 0)
(-0.0208377 0.00315669 0)
(-0.0217325 0.00309 0)
(-0.0226062 0.00301421 0)
(-0.0234561 0.0029292 0)
(-0.0242796 0.00283482 0)
(-0.0250739 0.00273091 0)
(-0.0258362 0.00261729 0)
(-0.0265639 0.0024938 0)
(-0.027254 0.00236028 0)
(-0.0279037 0.00221663 0)
(-0.0285103 0.00206277 0)
(-0.0290708 0.00189868 0)
(-0.0295825 0.00172442 0)
(-0.0300426 0.00154012 0)
(-0.0304484 0.00134598 0)
(-0.0307972 0.00114232 0)
(-0.0310867 0.000929555 0)
(-0.0313144 0.000708198 0)
(-0.0314782 0.000478889 0)
(-0.031576 0.000242381 0)
(-0.0316061 -4.51725e-07 0)
(-0.0315671 -0.000248617 0)
(-0.0314577 -0.000501002 0)
(-0.0312771 -0.000756382 0)
(-0.0310247 -0.00101342 0)
(-0.0307004 -0.00127068 0)
(-0.0303045 -0.00152663 0)
(-0.0298376 -0.00177966 0)
(-0.0293009 -0.00202809 0)
(-0.0286959 -0.00227021 0)
(-0.0280247 -0.00250423 0)
(-0.0272897 -0.0027284 0)
(-0.026494 -0.00294094 0)
(-0.025641 -0.0031401 0)
(-0.0247345 -0.00332419 0)
(-0.023779 -0.00349157 0)
(-0.0227791 -0.00364071 0)
(-0.0217401 -0.00377019 0)
(-0.0206673 -0.00387873 0)
(-0.0195667 -0.0039652 0)
(-0.0184443 -0.00402864 0)
(-0.0173065 -0.00406829 0)
(-0.0161597 -0.00408359 0)
(-0.0150105 -0.00407422 0)
(-0.0138657 -0.00404006 0)
(-0.0127319 -0.00398124 0)
(-0.0116158 -0.00389814 0)
(-0.0105237 -0.00379136 0)
(-0.00946215 -0.00366177 0)
(-0.00843701 -0.00351047 0)
(-0.00745404 -0.00333878 0)
(-0.00651857 -0.00314828 0)
(-0.00563547 -0.00294075 0)
(-0.0048091 -0.00271822 0)
(-0.00404325 -0.0024829 0)
(-0.00334107 -0.00223724 0)
(-0.00270504 -0.00198391 0)
(-0.00213687 -0.00172579 0)
(-0.00163748 -0.00146603 0)
(-0.00120692 -0.00120802 0)
(-0.000844336 -0.000955474 0)
(-0.000547894 -0.000712449 0)
(-0.000314732 -0.000483417 0)
(-0.000140901 -0.000273339 0)
(-2.13134e-05 -8.77464e-05 0)
(5.0321e-05 6.71588e-05 0)
(8.15553e-05 0.000184413 0)
(8.11874e-05 0.000256197 0)
(5.93149e-05 0.00027378 0)
(2.88359e-05 0.000227447 0)
(6.66485e-06 0.000105729 0)
(-1.13444e-05 5.14113e-05 0)
(-8.33466e-05 0.000259468 0)
(-0.000247912 0.000534865 0)
(-0.000495942 0.000850406 0)
(-0.000824043 0.00118663 0)
(-0.00123102 0.00152869 0)
(-0.00171442 0.00186555 0)
(-0.00227081 0.00218932 0)
(-0.00289614 0.0024946 0)
(-0.00358588 0.00277789 0)
(-0.00433515 0.00303716 0)
(-0.00513885 0.00327143 0)
(-0.00599177 0.00348058 0)
(-0.0068887 0.00366502 0)
(-0.00782448 0.00382559 0)
(-0.00879411 0.00396337 0)
(-0.00979275 0.00407957 0)
(-0.0108158 0.00417547 0)
(-0.0118588 0.00425235 0)
(-0.0129175 0.00431143 0)
(-0.0139879 0.00435387 0)
(-0.0150663 0.00438071 0)
(-0.0161491 0.00439285 0)
(-0.0172326 0.00439108 0)
(-0.0183137 0.00437605 0)
(-0.0193892 0.00434829 0)
(-0.0204557 0.00430818 0)
(-0.0215105 0.004256 0)
(-0.0225503 0.00419191 0)
(-0.0235723 0.00411599 0)
(-0.0245735 0.00402823 0)
(-0.0255508 0.00392853 0)
(-0.0265014 0.00381677 0)
(-0.0274221 0.00369276 0)
(-0.02831 0.00355631 0)
(-0.0291619 0.00340722 0)
(-0.0299748 0.00324529 0)
(-0.0307455 0.00307035 0)
(-0.031471 0.00288229 0)
(-0.032148 0.00268103 0)
(-0.0327734 0.00246657 0)
(-0.0333442 0.00223901 0)
(-0.0338572 0.00199852 0)
(-0.0343096 0.00174541 0)
(-0.0346984 0.00148009 0)
(-0.035021 0.00120313 0)
(-0.0352747 0.000915191 0)
(-0.0354572 0.000617125 0)
(-0.0355663 0.00030991 0)
(-0.0356001 -5.31927e-06 0)
(-0.035557 -0.000327276 0)
(-0.0354357 -0.000654525 0)
(-0.0352352 -0.000985486 0)
(-0.0349551 -0.00131844 0)
(-0.0345952 -0.00165154 0)
(-0.0341558 -0.00198283 0)
(-0.0336377 -0.00231025 0)
(-0.033042 -0.00263164 0)
(-0.0323706 -0.00294481 0)
(-0.0316257 -0.0032475 0)
(-0.03081 -0.00353744 0)
(-0.0299268 -0.00381237 0)
(-0.0289799 -0.00407007 0)
(-0.0279735 -0.00430837 0)
(-0.0269125 -0.00452518 0)
(-0.025802 -0.00471857 0)
(-0.0246477 -0.0048867 0)
(-0.0234555 -0.00502795 0)
(-0.022232 -0.00514087 0)
(-0.0209836 -0.00522424 0)
(-0.0197174 -0.00527709 0)
(-0.0184406 -0.00529871 0)
(-0.0171603 -0.00528865 0)
(-0.0158839 -0.00524679 0)
(-0.0146187 -0.00517329 0)
(-0.0133721 -0.0050686 0)
(-0.0121511 -0.00493353 0)
(-0.0109626 -0.00476915 0)
(-0.00981344 -0.00457688 0)
(-0.00870976 -0.00435842 0)
(-0.00765746 -0.00411577 0)
(-0.00666194 -0.00385124 0)
(-0.005728 -0.0035674 0)
(-0.00485985 -0.00326711 0)
(-0.00406098 -0.00295352 0)
(-0.00333416 -0.00263004 0)
(-0.00268131 -0.00230036 0)
(-0.00210351 -0.0019685 0)
(-0.0016009 -0.00163878 0)
(-0.00117265 -0.00131588 0)
(-0.000816889 -0.00100489 0)
(-0.000530668 -0.000711377 0)
(-0.000309911 -0.000441426 0)
(-0.000149374 -0.000201753 0)
(-4.25972e-05 2.10326e-07 0)
(1.81368e-05 0.000156212 0)
(4.17866e-05 0.00025706 0)
(3.85908e-05 0.000292531 0)
(2.11857e-05 0.000251201 0)
(5.36852e-06 0.000119499 0)
(-1.4539e-05 9.82716e-05 0)
(-0.000102978 0.000397132 0)
(-0.000301264 0.000761315 0)
(-0.000595496 0.00116367 0)
(-0.000979509 0.0015843 0)
(-0.00145053 0.00200779 0)
(-0.00200481 0.0024225 0)
(-0.00263787 0.00281999 0)
(-0.00334488 0.00319438 0)
(-0.00412068 0.0035418 0)
(-0.00495989 0.00385998 0)
(-0.005857 0.00414782 0)
(-0.00680641 0.00440514 0)
(-0.00780258 0.00463242 0)
(-0.00884005 0.00483059 0)
(-0.00991352 0.00500089 0)
(-0.0110179 0.00514472 0)
(-0.0121481 0.00526357 0)
(-0.0132996 0.00535892 0)
(-0.0144679 0.00543222 0)
(-0.0156485 0.00548481 0)
(-0.0168375 0.00551793 0)
(-0.0180309 0.00553265 0)
(-0.0192249 0.00552991 0)
(-0.020416 0.00551049 0)
(-0.0216006 0.005475 0)
(-0.0227753 0.00542393 0)
(-0.0239367 0.00535759 0)
(-0.0250816 0.0052762 0)
(-0.0262067 0.00517985 0)
(-0.0273087 0.00506852 0)
(-0.0283843 0.00494212 0)
(-0.0294302 0.00480049 0)
(-0.0304432 0.00464344 0)
(-0.0314199 0.00447074 0)
(-0.0323569 0.00428215 0)
(-0.0332509 0.00407746 0)
(-0.0340984 0.00385648 0)
(-0.0348959 0.00361909 0)
(-0.0356402 0.00336522 0)
(-0.0363277 0.00309491 0)
(-0.0369551 0.00280827 0)
(-0.0375191 0.00250558 0)
(-0.0380165 0.00218723 0)
(-0.0384442 0.00185375 0)
(-0.0387992 0.00150585 0)
(-0.0390788 0.00114441 0)
(-0.0392803 0.000770474 0)
(-0.0394015 0.000385282 0)
(-0.0394402 -9.74658e-06 0)
(-0.0393949 -0.000413006 0)
(-0.039264 -0.000822707 0)
(-0.0390466 -0.00123689 0)
(-0.0387421 -0.00165341 0)
(-0.0383504 -0.00206999 0)
(-0.0378717 -0.00248419 0)
(-0.037307 -0.00289347 0)
(-0.0366574 -0.00329517 0)
(-0.035925 -0.00368657 0)
(-0.0351122 -0.00406487 0)
(-0.0342219 -0.00442729 0)
(-0.0332576 -0.00477104 0)
(-0.0322234 -0.00509335 0)
(-0.031124 -0.00539156 0)
(-0.0299643 -0.00566311 0)
(-0.0287502 -0.00590557 0)
(-0.0274876 -0.00611672 0)
(-0.026183 -0.00629451 0)
(-0.0248434 -0.00643718 0)
(-0.023476 -0.0065432 0)
(-0.0220882 -0.00661137 0)
(-0.0206878 -0.00664081 0)
(-0.0192826 -0.00663096 0)
(-0.0178806 -0.00658166 0)
(-0.0164898 -0.00649309 0)
(-0.015118 -0.00636582 0)
(-0.0137729 -0.00620082 0)
(-0.0124622 -0.00599943 0)
(-0.0111931 -0.00576338 0)
(-0.00997229 -0.00549479 0)
(-0.00880633 -0.00519612 0)
(-0.00770103 -0.00487023 0)
(-0.00666168 -0.00452032 0)
(-0.00569287 -0.00414993 0)
(-0.00479844 -0.00376294 0)
(-0.00398146 -0.00336359 0)
(-0.00324409 -0.00295644 0)
(-0.00258759 -0.00254643 0)
(-0.00201222 -0.00213887 0)
(-0.00151721 -0.00173947 0)
(-0.00110071 -0.00135441 0)
(-0.000759738 -0.000990366 0)
(-0.000490164 -0.000654603 0)
(-0.000286658 -0.000355028 0)
(-0.000142676 -0.000100304 0)
(-5.04258e-05 0.000100049 0)
(-8.90356e-07 0.000235524 0)
(1.61873e-05 0.000294511 0)
(1.30071e-05 0.000264108 0)
(4.02669e-06 0.000129108 0)
(-1.75293e-05 0.000154974 0)
(-0.000121796 0.000560973 0)
(-0.000352907 0.00102739 0)
(-0.000692428 0.00152755 0)
(-0.00113149 0.00204163 0)
(-0.00166573 0.00255404 0)
(-0.00229002 0.00305288 0)
(-0.00299877 0.00352939 0)
(-0.00378628 0.00397743 0)
(-0.00464671 0.00439294 0)
(-0.0055741 0.0047735 0)
(-0.00656249 0.00511796 0)
(-0.0076059 0.00542617 0)
(-0.00869844 0.00569869 0)
(-0.00983437 0.00593656 0)
(-0.0110081 0.0061412 0)
(-0.0122142 0.0063142 0)
(-0.0134476 0.00645726 0)
(-0.0147031 0.00657207 0)
(-0.0159762 0.00666031 0)
(-0.0172621 0.00672351 0)
(-0.0185567 0.00676308 0)
(-0.0198557 0.00678029 0)
(-0.021155 0.0067762 0)
(-0.0224509 0.00675173 0)
(-0.0237395 0.00670759 0)
(-0.0250171 0.00664434 0)
(-0.0262802 0.00656236 0)
(-0.0275252 0.0064619 0)
(-0.0287484 0.00634306 0)
(-0.0299465 0.00620583 0)
(-0.0311158 0.00605011 0)
(-0.0322528 0.00587573 0)
(-0.033354 0.00568245 0)
(-0.0344156 0.00547002 0)
(-0.0354341 0.0052382 0)
(-0.0364058 0.00498672 0)
(-0.037327 0.00471541 0)
(-0.038194 0.00442411 0)
(-0.0390032 0.0041128 0)
(-0.0397508 0.00378151 0)
(-0.0404333 0.00343046 0)
(-0.0410472 0.00305996 0)
(-0.0415889 0.00267052 0)
(-0.0420551 0.00226281 0)
(-0.0424427 0.00183771 0)
(-0.0427487 0.0013963 0)
(-0.0429703 0.000939855 0)
(-0.0431051 0.000469888 0)
(-0.0431508 -1.18744e-05 0)
(-0.0431055 -0.000503482 0)
(-0.0429679 -0.00100277 0)
(-0.0427367 -0.00150736 0)
(-0.0424114 -0.00201467 0)
(-0.0419918 -0.00252194 0)
(-0.0414782 -0.00302625 0)
(-0.0408715 -0.00352452 0)
(-0.0401731 -0.00401354 0)
(-0.0393849 -0.00449004 0)
(-0.0385096 -0.00495067 0)
(-0.0375502 -0.00539206 0)
(-0.0365106 -0.00581084 0)
(-0.0353949 -0.00620371 0)
(-0.0342083 -0.00656745 0)
(-0.032956 -0.00689896 0)
(-0.0316441 -0.00719534 0)
(-0.0302791 -0.00745388 0)
(-0.0288679 -0.00767213 0)
(-0.0274179 -0.00784795 0)
(-0.0259367 -0.00797951 0)
(-0.0244326 -0.00806532 0)
(-0.0229136 -0.00810433 0)
(-0.0213882 -0.00809585 0)
(-0.0198651 -0.00803966 0)
(-0.0183526 -0.00793597 0)
(-0.0168594 -0.00778547 0)
(-0.0153938 -0.00758929 0)
(-0.0139638 -0.00734905 0)
(-0.0125773 -0.00706683 0)
(-0.0112417 -0.00674517 0)
(-0.009964 -0.00638704 0)
(-0.00875045 -0.00599589 0)
(-0.00760681 -0.00557557 0)
(-0.0065381 -0.00513035 0)
(-0.00554853 -0.00466493 0)
(-0.00464146 -0.00418438 0)
(-0.00381933 -0.00369422 0)
(-0.00308359 -0.00320036 0)
(-0.00243467 -0.00270914 0)
(-0.0018719 -0.00222737 0)
(-0.00139349 -0.00176234 0)
(-0.000996476 -0.00132189 0)
(-0.000676726 -0.000914474 0)
(-0.000428883 -0.000549207 0)
(-0.000246372 -0.00023598 0)
(-0.000121389 1.44501e-05 0)
(-4.4928e-05 0.000190324 0)
(-6.78251e-06 0.000278772 0)
(4.74092e-06 0.000265629 0)
(2.71653e-06 0.000134448 0)
(-2.03341e-05 0.000221059 0)
(-0.00013977 0.000750094 0)
(-0.000402618 0.00133199 0)
(-0.000786202 0.00194095 0)
(-0.00127907 0.00255755 0)
(-0.00187526 0.00316637 0)
(-0.00256828 0.00375554 0)
(-0.0033514 0.00431626 0)
(-0.00421796 0.00484233 0)
(-0.00516138 0.00532964 0)
(-0.00617511 0.00577577 0)
(-0.00725268 0.00617961 0)
(-0.00838771 0.0065411 0)
(-0.00957397 0.00686091 0)
(-0.0108054 0.00714027 0)
(-0.0120762 0.00738076 0)
(-0.0133806 0.00758419 0)
(-0.0147132 0.00775248 0)
(-0.016069 0.00788754 0)
(-0.0174427 0.00799125 0)
(-0.0188298 0.00806536 0)
(-0.0202255 0.00811146 0)
(-0.0216256 0.00813097 0)
(-0.0230258 0.00812513 0)
(-0.0244219 0.00809495 0)
(-0.02581 0.00804125 0)
(-0.0271862 0.00796467 0)
(-0.0285466 0.00786565 0)
(-0.0298873 0.00774446 0)
(-0.0312047 0.00760122 0)
(-0.0324949 0.00743593 0)
(-0.0337542 0.00724846 0)
(-0.0349787 0.00703864 0)
(-0.0361647 0.0068062 0)
(-0.0373082 0.00655086 0)
(-0.0384054 0.00627233 0)
(-0.0394523 0.00597036 0)
(-0.0404451 0.00564473 0)
(-0.0413798 0.00529531 0)
(-0.0422525 0.00492207 0)
(-0.0430592 0.0045251 0)
(-0.0437961 0.00410465 0)
(-0.0444595 0.00366114 0)
(-0.0450456 0.00319519 0)
(-0.0455509 0.00270762 0)
(-0.0459721 0.00219948 0)
(-0.0463059 0.00167205 0)
(-0.0465493 0.00112688 0)
(-0.0466998 0.000565753 0)
(-0.046755 -9.26596e-06 0)
(-0.0467128 -0.00059587 0)
(-0.0465717 -0.00119149 0)
(-0.0463304 -0.00179332 0)
(-0.0459882 -0.0023983 0)
(-0.045545 -0.00300318 0)
(-0.0450009 -0.0036045 0)
(-0.044357 -0.00419861 0)
(-0.0436145 -0.00478176 0)
(-0.0427756 -0.00535007 0)
(-0.041843 -0.00589958 0)
(-0.0408198 -0.00642631 0)
(-0.0397101 -0.0069263 0)
(-0.0385183 -0.00739564 0)
(-0.0372496 -0.00783052 0)
(-0.0359098 -0.00822729 0)
(-0.0345052 -0.0085825 0)
(-0.0330425 -0.00889296 0)
(-0.0315293 -0.00915576 0)
(-0.0299733 -0.00936834 0)
(-0.0283827 -0.00952853 0)