/*--------------------------------*- C++ -*----------------------------------*\
  =========                 |
  \\      /  F ield         | OpenFOAM: The Open Source CFD Toolbox
   \\    /   O peration     | Website:  https://openfoam.org
    \\  /    A nd           | Version:  7
     \\/     M anipulation  |
\*---------------------------------------------------------------------------*/
FoamFile
{
    version     2.0;
    format      ascii;
    class       volScalarField;
    location    "20";
    object      p;
}
// * * * * * * * * * * * * * * * * * * * * * * * * * * * * * * * * * * * * * //

dimensions      [0 2 -2 0 0 0 0];

internalField   nonuniform List<scalar> 
8500
(
-0.258917
-0.260945
-0.261889
-0.26265
-0.263302
-0.26387
-0.264375
-0.26482
-0.265199
-0.265536
-0.259124
-0.261128
-0.262058
-0.262806
-0.263445
-0.263999
-0.264489
-0.264918
-0.265276
-0.265579
-0.259535
-0.26149
-0.262394
-0.263115
-0.263727
-0.264254
-0.264713
-0.265109
-0.265426
-0.265658
-0.260143
-0.262027
-0.26289
-0.263572
-0.264143
-0.264627
-0.265039
-0.265384
-0.26564
-0.265756
-0.260938
-0.262731
-0.26354
-0.264168
-0.264683
-0.26511
-0.265457
-0.26573
-0.265905
-0.265849
-0.261907
-0.263591
-0.264333
-0.264893
-0.265338
-0.26569
-0.265953
-0.266133
-0.266209
-0.265902
-0.263039
-0.264597
-0.26526
-0.265736
-0.266094
-0.266355
-0.266513
-0.266573
-0.26654
-0.265872
-0.264318
-0.265738
-0.266308
-0.266686
-0.26694
-0.267091
-0.267123
-0.267033
-0.266894
-0.265696
-0.265732
-0.267003
-0.267467
-0.267731
-0.267863
-0.267886
-0.26777
-0.267495
-0.267271
-0.265261
-0.26727
-0.268382
-0.268727
-0.26886
-0.268852
-0.26873
-0.268446
-0.267944
-0.267686
-0.264473
-0.268922
-0.269868
-0.27008
-0.270064
-0.269897
-0.269612
-0.269143
-0.268368
-0.268102
-0.263799
-0.270683
-0.271457
-0.27152
-0.271335
-0.27099
-0.270523
-0.26986
-0.268792
-0.268325
-0.26297
-0.272553
-0.273147
-0.273044
-0.27267
-0.272125
-0.271459
-0.270586
-0.269276
-0.268532
-0.261809
-0.274536
-0.274942
-0.274653
-0.274065
-0.273297
-0.272415
-0.271317
-0.269763
-0.268798
-0.260377
-0.276643
-0.27685
-0.276353
-0.275522
-0.274506
-0.273388
-0.272053
-0.270261
-0.269084
-0.258804
-0.278891
-0.278884
-0.278152
-0.277047
-0.275754
-0.274375
-0.272786
-0.270794
-0.269308
-0.257291
-0.281306
-0.281065
-0.280062
-0.278655
-0.277048
-0.275379
-0.273507
-0.271384
-0.269316
-0.256028
-0.28392
-0.283412
-0.282115
-0.280363
-0.278407
-0.276415
-0.274219
-0.272065
-0.268889
-0.255065
-0.286777
-0.285963
-0.284335
-0.282198
-0.279856
-0.277508
-0.274943
-0.27287
-0.267949
-0.254998
-0.28993
-0.288751
-0.286756
-0.284197
-0.281433
-0.278696
-0.275726
-0.273745
-0.266927
-0.259073
-0.293418
-0.291832
-0.28942
-0.286402
-0.283183
-0.280024
-0.276619
-0.274478
-0.266446
-0.270388
-0.297307
-0.295244
-0.292375
-0.288864
-0.285159
-0.281543
-0.277675
-0.274983
-0.266695
-0.269461
-0.301657
-0.299038
-0.295668
-0.291634
-0.287417
-0.2833
-0.278926
-0.275376
-0.267044
-0.266709
-0.306526
-0.303264
-0.29935
-0.294765
-0.29001
-0.285337
-0.280371
-0.275801
-0.267205
-0.263978
-0.311967
-0.307968
-0.303472
-0.298309
-0.292982
-0.287683
-0.282001
-0.276278
-0.26711
-0.261161
-0.318027
-0.313197
-0.308081
-0.302311
-0.296364
-0.290346
-0.283794
-0.276774
-0.26669
-0.258367
-0.324746
-0.318988
-0.313219
-0.306809
-0.300176
-0.293318
-0.285713
-0.277221
-0.265924
-0.255521
-0.33215
-0.325375
-0.318923
-0.31183
-0.304417
-0.296568
-0.287691
-0.277534
-0.264799
-0.252556
-0.340251
-0.332378
-0.325217
-0.317384
-0.309068
-0.300038
-0.289632
-0.277621
-0.263302
-0.249395
-0.349046
-0.340008
-0.332111
-0.32346
-0.314085
-0.303634
-0.291424
-0.277395
-0.261414
-0.245977
-0.358508
-0.348254
-0.339592
-0.330019
-0.319392
-0.307232
-0.292945
-0.276778
-0.259115
-0.242245
-0.368586
-0.357085
-0.347619
-0.336992
-0.32487
-0.310679
-0.294075
-0.2757
-0.256374
-0.238148
-0.379199
-0.36644
-0.356117
-0.344272
-0.33036
-0.313807
-0.294697
-0.274094
-0.253154
-0.233636
-0.390234
-0.376225
-0.364975
-0.35171
-0.335667
-0.316446
-0.294704
-0.271897
-0.249414
-0.228663
-0.401541
-0.386308
-0.374041
-0.35911
-0.340572
-0.318429
-0.293992
-0.269046
-0.245103
-0.223179
-0.412933
-0.396519
-0.383121
-0.366237
-0.344846
-0.319593
-0.292464
-0.265477
-0.24017
-0.217137
-0.424184
-0.406646
-0.39198
-0.372819
-0.348257
-0.319788
-0.290027
-0.261123
-0.234558
-0.21049
-0.435034
-0.416441
-0.400345
-0.378569
-0.350582
-0.318872
-0.28659
-0.25592
-0.228211
-0.203193
-0.445193
-0.425622
-0.407908
-0.38319
-0.351611
-0.316713
-0.282068
-0.249799
-0.221071
-0.195206
-0.454342
-0.433881
-0.414342
-0.386396
-0.35115
-0.313192
-0.276379
-0.242695
-0.213083
-0.186493
-0.462149
-0.440888
-0.419309
-0.387913
-0.349024
-0.3082
-0.269446
-0.234549
-0.2042
-0.177023
-0.46827
-0.446303
-0.422476
-0.387492
-0.345078
-0.301639
-0.261198
-0.225302
-0.194378
-0.166771
-0.472367
-0.449786
-0.423528
-0.384914
-0.339181
-0.293424
-0.251572
-0.214902
-0.183583
-0.155727
-0.47411
-0.451006
-0.422179
-0.379991
-0.331225
-0.283486
-0.240513
-0.2033
-0.171775
-0.143874
-0.473193
-0.449654
-0.41818
-0.372573
-0.321124
-0.271771
-0.227979
-0.190458
-0.15891
-0.13113
-0.469339
-0.445451
-0.411326
-0.362546
-0.308821
-0.258243
-0.213948
-0.17636
-0.144948
-0.117315
-0.462311
-0.438159
-0.401461
-0.349834
-0.294283
-0.242885
-0.198407
-0.161006
-0.129911
-0.10228
-0.451914
-0.427593
-0.388475
-0.334399
-0.277501
-0.225693
-0.181342
-0.144387
-0.113881
-0.0862589
-0.438007
-0.413621
-0.372304
-0.316239
-0.25849
-0.206673
-0.162757
-0.126514
-0.0968061
-0.0697832
-0.420501
-0.396166
-0.352932
-0.295385
-0.23729
-0.185858
-0.142724
-0.107604
-0.0785831
-0.0527186
-0.39936
-0.375208
-0.330393
-0.271911
-0.213963
-0.163324
-0.121407
-0.0874855
-0.059421
-0.0349609
-0.374605
-0.35078
-0.30477
-0.245922
-0.188598
-0.139213
-0.0987385
-0.0662593
-0.039407
-0.0165212
-0.346311
-0.322984
-0.276226
-0.217513
-0.161311
-0.113549
-0.0748212
-0.0440134
-0.0186074
0.00252806
-0.314605
-0.291993
-0.244983
-0.186693
-0.132224
-0.0864562
-0.0497582
-0.0208431
0.00290698
0.0220949
-0.279672
-0.258036
-0.211123
-0.153682
-0.101466
-0.0580679
-0.0236695
0.00315436
0.0250629
0.042103
-0.241733
-0.221336
-0.174298
-0.119116
-0.0692775
-0.0285361
0.003317
0.0278818
0.0477925
0.0624726
-0.200998
-0.181986
-0.135411
-0.0828856
-0.0358517
0.00197155
0.031071
0.0532497
0.0709926
0.082951
-0.157736
-0.140113
-0.0950474
-0.0452406
-0.00137624
0.0332823
0.0594691
0.0791697
0.0944344
0.102951
-0.11238
-0.0962518
-0.0532677
-0.00646099
0.0339397
0.0652221
0.088388
0.105513
0.117776
0.121972
-0.065296
-0.0507647
-0.010286
0.0331784
0.0698689
0.0976086
0.117666
0.132025
0.140756
0.140934
-0.0168105
-0.00407067
0.0335929
0.0734018
0.106178
0.130246
0.147077
0.158329
0.163143
0.163695
0.0326718
0.0434384
0.0780303
0.113926
0.142629
0.162925
0.176383
0.184329
0.186034
0.186614
0.0827308
0.0913743
0.122677
0.154464
0.17898
0.195431
0.205421
0.210078
0.209113
0.20852
0.132943
0.139345
0.167182
0.194722
0.214984
0.227549
0.23403
0.235478
0.232023
0.229656
0.182883
0.186957
0.211199
0.23441
0.250394
0.25907
0.262051
0.260368
0.25445
0.24998
0.232128
0.233819
0.254383
0.273238
0.284966
0.289789
0.289316
0.284581
0.276217
0.269487
0.280261
0.279545
0.296401
0.310926
0.318461
0.319503
0.315655
0.307955
0.297173
0.288117
0.326877
0.323761
0.336928
0.347198
0.350649
0.348018
0.340898
0.330336
0.317193
0.3058
0.371581
0.366104
0.375651
0.381791
0.381305
0.375142
0.364884
0.351584
0.336159
0.32246
0.413999
0.406231
0.412274
0.414455
0.410216
0.400696
0.387459
0.371563
0.35396
0.338023
0.453775
0.443816
0.446517
0.444953
0.437183
0.424509
0.408476
0.390149
0.370495
0.352415
0.490577
0.478556
0.478118
0.473064
0.462017
0.44642
0.427799
0.407227
0.385666
0.365568
0.524099
0.51017
0.506839
0.498585
0.484546
0.466283
0.445304
0.422689
0.399384
0.377419
0.554062
0.538406
0.532461
0.521332
0.504614
0.483965
0.460878
0.436438
0.41157
0.387913
0.580218
0.563038
0.554792
0.541142
0.52208
0.499348
0.474419
0.448388
0.422151
0.396999
0.602352
0.58387
0.573663
0.557873
0.536825
0.512328
0.485841
0.458463
0.431065
0.404636
0.620281
0.600736
0.588932
0.571403
0.548745
0.522817
0.495068
0.466601
0.438261
0.410788
0.633859
0.613504
0.600485
0.581636
0.557758
0.530747
0.502041
0.47275
0.443694
0.415426
0.642972
0.622073
0.608235
0.5885
0.563802
0.536063
0.506715
0.476871
0.447334
0.41853
0.647548
0.626374
0.612125
0.591943
0.566834
0.538729
0.50906
0.478938
0.44916
0.420086
0.647548
0.626374
0.612125
0.591943
0.566834
0.538729
0.50906
0.478938
0.44916
0.420086
0.642972
0.622073
0.608235
0.5885
0.563802
0.536063
0.506715
0.476871
0.447334
0.41853
0.633859
0.613505
0.600485
0.581636
0.557758
0.530747
0.502041
0.47275
0.443694
0.415426
0.620281
0.600736
0.588932
0.571403
0.548745
0.522817
0.495068
0.466601
0.438261
0.410788
0.602352
0.58387
0.573663
0.557873
0.536825
0.512328
0.485841
0.458463
0.431066
0.404636
0.580218
0.563038
0.554792
0.541142
0.52208
0.499348
0.474419
0.448388
0.422151
0.397
0.554062
0.538406
0.532461
0.521332
0.504614
0.483966
0.460878
0.436438
0.41157
0.387913
0.524099
0.51017
0.506839
0.498585
0.484546
0.466283
0.445304
0.422689
0.399385
0.377419
0.490577
0.478556
0.478119
0.473064
0.462017
0.44642
0.427799
0.407227
0.385666
0.365568
0.453775
0.443817
0.446517
0.444953
0.437183
0.424509
0.408476
0.39015
0.370495
0.352415
0.413999
0.406232
0.412274
0.414455
0.410216
0.400696
0.387459
0.371563
0.35396
0.338023
0.371581
0.366105
0.375651
0.381791
0.381305
0.375142
0.364885
0.351584
0.336159
0.322461
0.326877
0.323761
0.336928
0.347198
0.350649
0.348018
0.340898
0.330337
0.317193
0.3058
0.280262
0.279545
0.296402
0.310926
0.318462
0.319503
0.315655
0.307955
0.297174
0.288117
0.232128
0.233819
0.254384
0.273239
0.284966
0.289789
0.289317
0.284581
0.276217
0.269488
0.182883
0.186957
0.211199
0.23441
0.250394
0.25907
0.262052
0.260368
0.25445
0.249981
0.132943
0.139345
0.167183
0.194722
0.214984
0.227549
0.23403
0.235478
0.232023
0.229656
0.0827312
0.0913746
0.122677
0.154464
0.17898
0.195431
0.205421
0.210079
0.209113
0.20852
0.0326722
0.0434387
0.0780306
0.113927
0.14263
0.162925
0.176383
0.184329
0.186034
0.186615
-0.0168101
-0.0040703
0.0335933
0.0734021
0.106178
0.130246
0.147077
0.158329
0.163143
0.163695
-0.0652956
-0.0507643
-0.0102857
0.0331787
0.0698692
0.0976088
0.117666
0.132026
0.140756
0.140934
-0.112379
-0.0962514
-0.0532673
-0.00646065
0.03394
0.0652224
0.0883883
0.105514
0.117776
0.121972
-0.157735
-0.140112
-0.095047
-0.0452403
-0.00137592
0.0332826
0.0594694
0.0791699
0.0944346
0.102951
-0.200998
-0.181986
-0.13541
-0.0828853
-0.0358514
0.00197187
0.0310713
0.05325
0.0709929
0.0829513
-0.241732
-0.221336
-0.174298
-0.119116
-0.0692772
-0.0285357
0.0033173
0.0278821
0.0477928
0.0624729
-0.279671
-0.258035
-0.211123
-0.153681
-0.101465
-0.0580676
-0.0236692
0.00315465
0.0250632
0.0421033
-0.314604
-0.291993
-0.244983
-0.186692
-0.132224
-0.0864558
-0.0497579
-0.0208428
0.00290726
0.0220951
-0.34631
-0.322984
-0.276225
-0.217513
-0.161311
-0.113549
-0.0748208
-0.0440131
-0.0186071
0.00252834
-0.374605
-0.35078
-0.30477
-0.245922
-0.188598
-0.139213
-0.0987381
-0.066259
-0.0394066
-0.0165209
-0.399359
-0.375207
-0.330392
-0.271911
-0.213963
-0.163324
-0.121406
-0.0874852
-0.0594207
-0.0349606
-0.4205
-0.396166
-0.352932
-0.295385
-0.23729
-0.185857
-0.142724
-0.107604
-0.0785827
-0.0527183
-0.438007
-0.41362
-0.372303
-0.316238
-0.25849
-0.206673
-0.162756
-0.126514
-0.0968057
-0.0697828
-0.451914
-0.427592
-0.388475
-0.334399
-0.2775
-0.225692
-0.181341
-0.144386
-0.113881
-0.0862585
-0.46231
-0.438159
-0.401461
-0.349833
-0.294282
-0.242885
-0.198406
-0.161006
-0.12991
-0.10228
-0.469339
-0.44545
-0.411325
-0.362545
-0.308821
-0.258243
-0.213948
-0.176359
-0.144948
-0.117315
-0.473193
-0.449654
-0.418179
-0.372572
-0.321124
-0.27177
-0.227978
-0.190457
-0.15891
-0.13113
-0.47411
-0.451006
-0.422178
-0.379991
-0.331224
-0.283485
-0.240512
-0.2033
-0.171775
-0.143874
-0.472366
-0.449786
-0.423528
-0.384913
-0.339181
-0.293424
-0.251572
-0.214902
-0.183582
-0.155727
-0.46827
-0.446302
-0.422476
-0.387491
-0.345078
-0.301638
-0.261198
-0.225302
-0.194378
-0.16677
-0.462148
-0.440887
-0.419309
-0.387912
-0.349023
-0.3082
-0.269445
-0.234549
-0.2042
-0.177022
-0.454341
-0.43388
-0.414342
-0.386395
-0.35115
-0.313192
-0.276379
-0.242695
-0.213083
-0.186493
-0.445192
-0.425621
-0.407908
-0.38319
-0.351611
-0.316713
-0.282068
-0.249798
-0.22107
-0.195206
-0.435034
-0.41644
-0.400344
-0.378568
-0.350582
-0.318871
-0.28659
-0.255919
-0.22821
-0.203192
-0.424183
-0.406645
-0.39198
-0.372819
-0.348256
-0.319787
-0.290027
-0.261123
-0.234558
-0.210489
-0.412932
-0.396518
-0.383121
-0.366236
-0.344845
-0.319592
-0.292464
-0.265476
-0.24017
-0.217137
-0.401541
-0.386308
-0.37404
-0.35911
-0.340572
-0.318428
-0.293992
-0.269046
-0.245103
-0.223179
-0.390234
-0.376225
-0.364975
-0.35171
-0.335666
-0.316446
-0.294703
-0.271896
-0.249413
-0.228662
-0.379199
-0.36644
-0.356117
-0.344272
-0.330359
-0.313807
-0.294697
-0.274093
-0.253154
-0.233636
-0.368585
-0.357085
-0.347619
-0.336992
-0.324869
-0.310678
-0.294074
-0.275699
-0.256373
-0.238147
-0.358508
-0.348254
-0.339592
-0.330019
-0.319391
-0.307232
-0.292945
-0.276778
-0.259115
-0.242245
-0.349045
-0.340008
-0.332111
-0.32346
-0.314085
-0.303634
-0.291424
-0.277394
-0.261414
-0.245977
-0.340251
-0.332378
-0.325217
-0.317384
-0.309068
-0.300037
-0.289632
-0.27762
-0.263301
-0.249395
-0.332149
-0.325374
-0.318923
-0.31183
-0.304416
-0.296568
-0.28769
-0.277534
-0.264799
-0.252555
-0.324746
-0.318988
-0.313219
-0.306808
-0.300175
-0.293318
-0.285713
-0.277221
-0.265924
-0.255521
-0.318027
-0.313196
-0.308081
-0.30231
-0.296364
-0.290346
-0.283794
-0.276774
-0.266689
-0.258367
-0.311966
-0.307968
-0.303472
-0.298309
-0.292981
-0.287682
-0.282
-0.276278
-0.267109
-0.26116
-0.306525
-0.303263
-0.29935
-0.294765
-0.29001
-0.285337
-0.280371
-0.2758
-0.267205
-0.263978
-0.301657
-0.299038
-0.295667
-0.291634
-0.287417
-0.2833
-0.278926
-0.275375
-0.267044
-0.266708
-0.297306
-0.295244
-0.292374
-0.288864
-0.285159
-0.281542
-0.277675
-0.274983
-0.266695
-0.269461
-0.293417
-0.291831
-0.28942
-0.286402
-0.283183
-0.280024
-0.276619
-0.274477
-0.266445
-0.270388
-0.28993
-0.288751
-0.286756
-0.284197
-0.281433
-0.278695
-0.275726
-0.273745
-0.266927
-0.259073
-0.286777
-0.285962
-0.284335
-0.282198
-0.279856
-0.277508
-0.274943
-0.27287
-0.267949
-0.254998
-0.28392
-0.283412
-0.282115
-0.280363
-0.278407
-0.276415
-0.274218
-0.272065
-0.268888
-0.255065
-0.281305
-0.281064
-0.280062
-0.278655
-0.277048
-0.275379
-0.273507
-0.271384
-0.269315
-0.256027
-0.27889
-0.278884
-0.278151
-0.277046
-0.275753
-0.274374
-0.272785
-0.270793
-0.269307
-0.25729
-0.276642
-0.276849
-0.276352
-0.275522
-0.274506
-0.273387
-0.272052
-0.270261
-0.269084
-0.258803
-0.274536
-0.274942
-0.274653
-0.274065
-0.273297
-0.272415
-0.271317
-0.269763
-0.268797
-0.260376
-0.272553
-0.273147
-0.273044
-0.272669
-0.272125
-0.271459
-0.270586
-0.269275
-0.268531
-0.261809
-0.270683
-0.271457
-0.27152
-0.271335
-0.27099
-0.270523
-0.269859
-0.268791
-0.268325
-0.26297
-0.268922
-0.269868
-0.27008
-0.270063
-0.269897
-0.269611
-0.269143
-0.268368
-0.268102
-0.263799
-0.26727
-0.268381
-0.268727
-0.268859
-0.268852
-0.26873
-0.268445
-0.267944
-0.267685
-0.264472
-0.265732
-0.267002
-0.267467
-0.26773
-0.267863
-0.267886
-0.26777
-0.267495
-0.26727
-0.265261
-0.264318
-0.265738
-0.266308
-0.266686
-0.26694
-0.267091
-0.267122
-0.267032
-0.266893
-0.265696
-0.263039
-0.264597
-0.265259
-0.265736
-0.266094
-0.266354
-0.266513
-0.266572
-0.26654
-0.265872
-0.261907
-0.263591
-0.264333
-0.264893
-0.265338
-0.26569
-0.265953
-0.266132
-0.266209
-0.265902
-0.260937
-0.262731
-0.26354
-0.264167
-0.264683
-0.26511
-0.265457
-0.26573
-0.265905
-0.265849
-0.260143
-0.262027
-0.26289
-0.263571
-0.264143
-0.264627
-0.265039
-0.265384
-0.26564
-0.265756
-0.259535
-0.26149
-0.262394
-0.263115
-0.263727
-0.264253
-0.264713
-0.265109
-0.265426
-0.265658
-0.259124
-0.261127
-0.262058
-0.262806
-0.263444
-0.263999
-0.264489
-0.264918
-0.265276
-0.265579
-0.258917
-0.260945
-0.261889
-0.26265
-0.263302
-0.26387
-0.264375
-0.26482
-0.265199
-0.265536
-0.266066
-0.266342
-0.266738
-0.267075
-0.267429
-0.26777
-0.268102
-0.26842
-0.268724
-0.269023
-0.269329
-0.269664
-0.270038
-0.270465
-0.270867
-0.271185
-0.270988
-0.270079
-0.26706
-0.261876
-0.25111
-0.236863
-0.212296
-0.185308
-0.148314
-0.109462
-0.0771981
-0.0333239
-0.0242423
0.0122498
-0.266162
-0.266402
-0.266796
-0.267127
-0.267477
-0.267815
-0.268145
-0.26846
-0.268762
-0.269057
-0.26936
-0.269692
-0.270065
-0.270495
-0.270904
-0.271236
-0.271057
-0.270181
-0.267193
-0.262058
-0.251328
-0.237132
-0.21257
-0.185609
-0.148586
-0.109715
-0.0774572
-0.0334832
-0.024394
0.0121065
-0.266349
-0.266515
-0.266908
-0.267227
-0.267571
-0.267903
-0.268228
-0.268537
-0.268832
-0.269121
-0.269418
-0.269745
-0.270117
-0.270551
-0.270972
-0.271331
-0.271188
-0.270376
-0.267448
-0.262392
-0.251751
-0.237654
-0.213104
-0.186195
-0.14912
-0.110209
-0.0779567
-0.0338029
-0.0246899
0.0118246
-0.266618
-0.266673
-0.267067
-0.267368
-0.267703
-0.268028
-0.268345
-0.268646
-0.268932
-0.269211
-0.269497
-0.269818
-0.270186
-0.270627
-0.271063
-0.271461
-0.271369
-0.270647
-0.267806
-0.262944
-0.252353
-0.238398
-0.213871
-0.187035
-0.149896
-0.110916
-0.0786661
-0.0342981
-0.0251185
0.0114126
-0.266961
-0.266862
-0.26726
-0.26754
-0.267864
-0.268179
-0.268487
-0.268777
-0.269051
-0.269318
-0.269592
-0.269903
-0.270265
-0.270713
-0.271167
-0.271612
-0.271582
-0.270973
-0.268241
-0.263554
-0.253095
-0.239323
-0.214832
-0.188087
-0.150885
-0.111805
-0.0795725
-0.0349538
-0.0256632
0.0108821
-0.267366
-0.267063
-0.267476
-0.267733
-0.268044
-0.268348
-0.268644
-0.268922
-0.269182
-0.269433
-0.269691
-0.26999
-0.270343
-0.270797
-0.271269
-0.271767
-0.271805
-0.271326
-0.268721
-0.264247
-0.253933
-0.240379
-0.215943
-0.189304
-0.152056
-0.112868
-0.0806172
-0.0357649
-0.0263034
0.0102461
-0.267826
-0.26726
-0.267701
-0.267933
-0.268229
-0.268523
-0.268806
-0.26907
-0.269314
-0.269548
-0.269787
-0.27007
-0.270412
-0.27087
-0.271358
-0.271909
-0.272019
-0.27168
-0.269212
-0.264971
-0.254822
-0.241512
-0.217156
-0.190635
-0.153364
-0.114053
-0.0817909
-0.0367187
-0.0270171
0.00951852
-0.268345
-0.26743
-0.267919
-0.268128
-0.268409
-0.268692
-0.268962
-0.269211
-0.269437
-0.269651
-0.26987
-0.270135
-0.270462
-0.27092
-0.27142
-0.272024
-0.272204
-0.272008
-0.269684
-0.265685
-0.255718
-0.242677
-0.218417
-0.192027
-0.15477
-0.115331
-0.0830664
-0.0377991
-0.0277825
0.00871325
-0.268999
-0.267537
-0.268118
-0.268307
-0.268571
-0.268842
-0.269099
-0.269333
-0.269541
-0.269736
-0.269932
-0.270177
-0.270485
-0.270939
-0.271445
-0.272097
-0.272341
-0.272286
-0.270099
-0.266355
-0.256574
-0.243833
-0.219675
-0.193414
-0.156258
-0.116667
-0.0844122
-0.0389894
-0.0285794
0.00784353
-0.269841
-0.26757
-0.268287
-0.268459
-0.268704
-0.268964
-0.269208
-0.269427
-0.269618
-0.269792
-0.269966
-0.270189
-0.270475
-0.270921
-0.271426
-0.272118
-0.272418
-0.272496
-0.270427
-0.266954
-0.257356
-0.244884
-0.220936
-0.194769
-0.157775
-0.118033
-0.0858005
-0.0402723
-0.0293899
0.00692179
-0.270069
-0.267832
-0.268376
-0.268577
-0.268798
-0.269046
-0.269278
-0.269483
-0.269657
-0.269813
-0.269963
-0.270164
-0.270425
-0.270859
-0.271357
-0.27208
-0.272423
-0.272621
-0.270739
-0.267428
-0.25805
-0.24584
-0.222121
-0.196055
-0.159287
-0.119404
-0.087206
-0.0416304
-0.0301986
0.00595948
-0.27041
-0.268064
-0.268408
-0.268649
-0.268843
-0.269078
-0.269299
-0.269492
-0.269651
-0.269791
-0.26992
-0.270098
-0.270333
-0.270751
-0.271233
-0.271976
-0.272351
-0.272647
-0.270867
-0.267784
-0.258612
-0.246666
-0.223205
-0.197237
-0.160765
-0.120758
-0.0886054
-0.0430461
-0.0309924
0.00496702
-0.270822
-0.26825
-0.268392
-0.268667
-0.26883
-0.269048
-0.26926
-0.269443
-0.269591
-0.269717
-0.269827
-0.269986
-0.270193
-0.270592
-0.271051
-0.271804
-0.272195
-0.272569
-0.270886
-0.268005
-0.259027
-0.247333
-0.224168
-0.198291
-0.162181
-0.122075
-0.0899782
-0.0445027
-0.0317609
0.00395383
-0.271235
-0.268428
-0.268329
-0.268621
-0.268746
-0.268946
-0.26915
-0.269325
-0.269466
-0.269585
-0.26968
-0.269821
-0.270001
-0.270378
-0.270809
-0.271561
-0.271954
-0.272413
-0.270784
-0.268074
-0.259283
-0.247822
-0.22499
-0.199197
-0.163511
-0.123338
-0.0913061
-0.0459838
-0.0324956
0.00292836
-0.271627
-0.26861
-0.268216
-0.268501
-0.268577
-0.268756
-0.268954
-0.269128
-0.269267
-0.269382
-0.269468
-0.269596
-0.269751
-0.270106
-0.270503
-0.271244
-0.271623
-0.272121
-0.270551
-0.267986
-0.259374
-0.248121
-0.225655
-0.199941
-0.164735
-0.124532
-0.0925722
-0.0474732
-0.0331893
0.00189833
-0.271967
-0.268765
-0.268046
-0.26829
-0.268304
-0.26846
-0.268658
-0.268836
-0.268979
-0.2691
-0.269182
-0.269303
-0.269436
-0.269769
-0.270128
-0.270848
-0.271199
-0.271717
-0.270184
-0.267734
-0.259291
-0.248219
-0.22615
-0.200512
-0.165832
-0.125642
-0.0937606
-0.0489545
-0.0338365
0.000870894
-0.27216
-0.268795
-0.267799
-0.267969
-0.267908
-0.268046
-0.268249
-0.268439
-0.268595
-0.268727
-0.268813
-0.268933
-0.269048
-0.26936
-0.26968
-0.270371
-0.270681
-0.271201
-0.269682
-0.267316
-0.259034
-0.248112
-0.226467
-0.200905
-0.166793
-0.126665
-0.0948696
-0.0504183
-0.0344383
-0.000148519
-0.272101
-0.268603
-0.267469
-0.267529
-0.267376
-0.267496
-0.267711
-0.26792
-0.268094
-0.268246
-0.268342
-0.268467
-0.268569
-0.268862
-0.269139
-0.269798
-0.270052
-0.270556
-0.269034
-0.266728
-0.258604
-0.247815
-0.226629
-0.201154
-0.167656
-0.12763
-0.0959288
-0.0518721
-0.0350067
-0.00115852
-0.272426
-0.268135
-0.266976
-0.266878
-0.266614
-0.266719
-0.26696
-0.267203
-0.267411
-0.267599
-0.267719
-0.267863
-0.26796
-0.268239
-0.268479
-0.269099
-0.269292
-0.269765
-0.268229
-0.265964
-0.258006
-0.247339
-0.226652
-0.201278
-0.168427
-0.128542
-0.0969274
-0.053309
-0.0355322
-0.0021576
-0.271223
-0.266054
-0.265867
-0.265734
-0.265429
-0.265592
-0.265916
-0.26624
-0.266518
-0.266771
-0.266945
-0.267132
-0.267249
-0.267529
-0.267747
-0.268343
-0.268481
-0.268896
-0.267324
-0.265025
-0.257192
-0.246543
-0.226306
-0.200994
-0.16874
-0.129115
-0.0975663
-0.0545812
-0.0358988
-0.00312271
-0.257673
-0.260747
-0.264164
-0.264387
-0.264146
-0.264398
-0.264824
-0.265234
-0.265582
-0.265897
-0.266123
-0.266353
-0.266503
-0.266814
-0.267
-0.267516
-0.267588
-0.267875
-0.266222
-0.263718
-0.25591
-0.245031
-0.22516
-0.199817
-0.168182
-0.129106
-0.0976527
-0.0557951
-0.0360658
-0.00422362
-0.254796
-0.257409
-0.261368
-0.261793
-0.261593
-0.261977
-0.262595
-0.263171
-0.263648
-0.264076
-0.264399
-0.264709
-0.264907
-0.26522
-0.2654
-0.26585
-0.2658
-0.26586
-0.263999
-0.261125
-0.253247
-0.242029
-0.222628
-0.19737
-0.166643
-0.128468
-0.0973064
-0.0569594
-0.0361209
-0.00542036
-0.251862
-0.253757
-0.257083
-0.257854
-0.257951
-0.258566
-0.259437
-0.260243
-0.260909
-0.261503
-0.261968
-0.262398
-0.262681
-0.263043
-0.263213
-0.263582
-0.263391
-0.26318
-0.261069
-0.257763
-0.249782
-0.238219
-0.219299
-0.194258
-0.164492
-0.127429
-0.0966328
-0.0579367
-0.0360778
-0.00653626
-0.247478
-0.24908
-0.251374
-0.25246
-0.253089
-0.254066
-0.255243
-0.256339
-0.257257
-0.258071
-0.258728
-0.259322
-0.259728
-0.260164
-0.260345
-0.260627
-0.260296
-0.259794
-0.257432
-0.253678
-0.245605
-0.23374
-0.215314
-0.190643
-0.161848
-0.12609
-0.0956974
-0.0587474
-0.0359613
-0.00755747
-0.240842
-0.243033
-0.244557
-0.245793
-0.247003
-0.248442
-0.249971
-0.251391
-0.252605
-0.253685
-0.254576
-0.255369
-0.255931
-0.256462
-0.256679
-0.256877
-0.256413
-0.255614
-0.25301
-0.248818
-0.240668
-0.22858
-0.210659
-0.186526
-0.158718
-0.124436
-0.0945097
-0.0593566
-0.0357819
-0.00846113
-0.232097
-0.235546
-0.236835
-0.238145
-0.239861
-0.241801
-0.243715
-0.24547
-0.246996
-0.248361
-0.249507
-0.250516
-0.251253
-0.251887
-0.252155
-0.252287
-0.251701
-0.250608
-0.247777
-0.243183
-0.234974
-0.22277
-0.205366
-0.181942
-0.155139
-0.122468
-0.0930935
-0.0597372
-0.0355519
-0.00923049
-0.222087
-0.226829
-0.228373
-0.229819
-0.231937
-0.234353
-0.236665
-0.238752
-0.240582
-0.242225
-0.243625
-0.244848
-0.245762
-0.246498
-0.246816
-0.246895
-0.246199
-0.24483
-0.241788
-0.23685
-0.228606
-0.216406
-0.19953
-0.176964
-0.151189
-0.120208
-0.0914842
-0.0598756
-0.0352824
-0.00985683
-0.211425
-0.217218
-0.219337
-0.221058
-0.223505
-0.226334
-0.229031
-0.231443
-0.233558
-0.23546
-0.237097
-0.238518
-0.239598
-0.240426
-0.240797
-0.240812
-0.240016
-0.238401
-0.235168
-0.229959
-0.221705
-0.209622
-0.193288
-0.171687
-0.146959
-0.117692
-0.0897193
-0.05977
-0.03498
-0.0103395
-0.200515
-0.207082
-0.209904
-0.212026
-0.214776
-0.217947
-0.220999
-0.223723
-0.226108
-0.228245
-0.230097
-0.231696
-0.232924
-0.233834
-0.234244
-0.234194
-0.233307
-0.231481
-0.22808
-0.222674
-0.214437
-0.20257
-0.186786
-0.166212
-0.142544
-0.11496
-0.0878335
-0.0594288
-0.0346462
-0.0106854
-0.18966
-0.196731
-0.200239
-0.202835
-0.205887
-0.209347
-0.212711
-0.215729
-0.218371
-0.220726
-0.222773
-0.224531
-0.22589
-0.22687
-0.227309
-0.227202
-0.226231
-0.224234
-0.22069
-0.215159
-0.206968
-0.195388
-0.180165
-0.160632
-0.138029
-0.112056
-0.085855
-0.0588692
-0.0342784
-0.0109078
-0.179026
-0.18638
-0.190486
-0.193569
-0.196929
-0.200639
-0.204273
-0.207562
-0.210448
-0.213007
-0.215232
-0.217134
-0.218612
-0.219657
-0.220122
-0.219968
-0.218921
-0.216795
-0.21314
-0.207547
-0.199435
-0.188192
-0.173535
-0.155025
-0.13348
-0.109021
-0.0838043
-0.0581136
-0.033871
-0.0110233
-0.168694
-0.176174
-0.180763
-0.184302
-0.187964
-0.191898
-0.195762
-0.199294
-0.202408
-0.20516
-0.20755
-0.209586
-0.211171
-0.212281
-0.212772
-0.212589
-0.211482
-0.209266
-0.205535
-0.199935
-0.191936
-0.18106
-0.166975
-0.149447
-0.128943
-0.105892
-0.0816946
-0.0571871
-0.0334172
-0.0110496
-0.158727
-0.166216
-0.171171
-0.175105
-0.179047
-0.183181
-0.187241
-0.190983
-0.194303
-0.197237
-0.199781
-0.201941
-0.203628
-0.204803
-0.205326
-0.205131
-0.203984
-0.201716
-0.197949
-0.192388
-0.184537
-0.174044
-0.160533
-0.143935
-0.124449
-0.102698
-0.0795354
-0.0561157
-0.0329115
-0.0110035
-0.14917
-0.156577
-0.16179
-0.166047
-0.170233
-0.17454
-0.178761
-0.182679
-0.186182
-0.189281
-0.191967
-0.194245
-0.196027
-0.19727
-0.197831
-0.197643
-0.196479
-0.194194
-0.190428
-0.184947
-0.177277
-0.167177
-0.154238
-0.138516
-0.120016
-0.0994645
-0.0773343
-0.0549239
-0.0323507
-0.0108997
-0.140057
-0.14731
-0.152687
-0.157192
-0.161575
-0.166023
-0.170373
-0.174435
-0.178091
-0.181337
-0.184152
-0.186539
-0.18841
-0.189722
-0.190329
-0.190166
-0.189009
-0.186738
-0.183009
-0.177641
-0.170182
-0.160477
-0.148108
-0.133208
-0.115658
-0.0962151
-0.0750991
-0.0536349
-0.0317349
-0.0107506
-0.131413
-0.138459
-0.143918
-0.148599
-0.15313
-0.157684
-0.162128
-0.166299
-0.170079
-0.17345
-0.17638
-0.178866
-0.180821
-0.182201
-0.182861
-0.182736
-0.18161
-0.179381
-0.175721
-0.170492
-0.16327
-0.153962
-0.142154
-0.128028
-0.111385
-0.0929704
-0.0728395
-0.05227
-0.0310674
-0.0105662
-0.123259
-0.130056
-0.135528
-0.140318
-0.144949
-0.14957
-0.154077
-0.158324
-0.162198
-0.165669
-0.168696
-0.17127
-0.173303
-0.174751
-0.175468
-0.175395
-0.174319
-0.172154
-0.16859
-0.163525
-0.156559
-0.147647
-0.136389
-0.12299
-0.10721
-0.089751
-0.0705675
-0.0508494
-0.0303545
-0.0103547
-0.115606
-0.122127
-0.127553
-0.132395
-0.137079
-0.141732
-0.146268
-0.15056
-0.154498
-0.158045
-0.161151
-0.1638
-0.165903
-0.167416
-0.168196
-0.168183
-0.167174
-0.165092
-0.161648
-0.156763
-0.150068
-0.141547
-0.130825
-0.11811
-0.103147
-0.0865772
-0.0682977
-0.049392
-0.0296045
-0.0101231
-0.108462
-0.114688
-0.120025
-0.124869
-0.129564
-0.134216
-0.138751
-0.143058
-0.147032
-0.150631
-0.153797
-0.156508
-0.158672
-0.160247
-0.16109
-0.161145
-0.160215
-0.158232
-0.154925
-0.150234
-0.143819
-0.135683
-0.125478
-0.113407
-0.0992107
-0.0834698
-0.0660467
-0.0479167
-0.0288277
-0.00987719
-0.101832
-0.107756
-0.112968
-0.117774
-0.122445
-0.127066
-0.131572
-0.135867
-0.139853
-0.143481
-0.146688
-0.149446
-0.151664
-0.153295
-0.154201
-0.154328
-0.153486
-0.151613
-0.148456
-0.143968
-0.137836
-0.130076
-0.120366
-0.108898
-0.0954202
-0.0804503
-0.0638333
-0.0464419
-0.0280354
-0.00962223
-0.0957182
-0.101339
-0.106403
-0.111139
-0.115757
-0.120322
-0.124778
-0.129039
-0.133012
-0.136648
-0.139879
-0.142671
-0.144932
-0.146613
-0.147582
-0.147782
-0.147033
-0.145277
-0.142279
-0.137997
-0.132147
-0.12475
-0.11551
-0.104606
-0.0917961
-0.0775414
-0.0616782
-0.0449864
-0.0272399
-0.00936323
-0.0901227
-0.095448
-0.100349
-0.104993
-0.109535
-0.114026
-0.118412
-0.12262
-0.126562
-0.130189
-0.133427
-0.13624
-0.138534
-0.14026
-0.141287
-0.14156
-0.140906
-0.139271
-0.136433
-0.132357
-0.126783
-0.119733
-0.110936
-0.100556
-0.0883622
-0.074767
-0.0596034
-0.0435695
-0.0264542
-0.00910513
-0.0850496
-0.0900926
-0.0948235
-0.09936
-0.103813
-0.108215
-0.112519
-0.11666
-0.120557
-0.124158
-0.127391
-0.130213
-0.132531
-0.134294
-0.135375
-0.135718
-0.135159
-0.133643
-0.130964
-0.12709
-0.12178
-0.115058
-0.106672
-0.0967739
-0.0851448
-0.0721531
-0.0576328
-0.0422111
-0.0256919
-0.00885286
-0.080506
-0.0852851
-0.0898471
-0.0942687
-0.0986232
-0.10293
-0.107144
-0.111209
-0.115049
-0.118615
-0.12183
-0.124652
-0.126985
-0.128779
-0.129909
-0.130318
-0.129848
-0.128448
-0.125922
-0.12224
-0.117178
-0.11076
-0.102751
-0.093292
-0.0821735
-0.0697276
-0.0557917
-0.040932
-0.024967
-0.00861147
-0.0765025
-0.0810413
-0.0854418
-0.0897479
-0.094002
-0.098211
-0.102333
-0.106319
-0.110097
-0.113619
-0.11681
-0.119623
-0.121965
-0.123783
-0.124954
-0.125423
-0.125037
-0.123744
-0.121361
-0.117858
-0.113024
-0.106882
-0.0992135
-0.0901457
-0.0794817
-0.0675215
-0.0541076
-0.0397543
-0.0242941
-0.00838618
-0.0730577
-0.0773834
-0.0816358
-0.0858321
-0.0899897
-0.0941049
-0.0981382
-0.102045
-0.10576
-0.109236
-0.112398
-0.115198
-0.117542
-0.119377
-0.120584
-0.121105
-0.120793
-0.119598
-0.117344
-0.114001
-0.10937
-0.103473
-0.0961022
-0.0873759