/*--------------------------------*- C++ -*----------------------------------*\
  =========                 |
  \\      /  F ield         | OpenFOAM: The Open Source CFD Toolbox
   \\    /   O peration     | Website:  https://openfoam.org
    \\  /    A nd           | Version:  7
     \\/     M anipulation  |
\*---------------------------------------------------------------------------*/
FoamFile
{
    version     2.0;
    format      ascii;
    class       surfaceScalarField;
    location    "20";
    object      phi;
}
// * * * * * * * * * * * * * * * * * * * * * * * * * * * * * * * * * * * * * //

dimensions      [0 3 -1 0 0 0 0];

internalField   nonuniform List<scalar> 
16735
(
-7.65462e-07
7.65559e-07
-9.69528e-11
-2.72113e-06
1.95591e-06
-2.46501e-10
-5.66714e-06
2.94639e-06
-3.68555e-10
-9.41043e-06
3.74375e-06
-4.65277e-10
-1.37771e-05
4.36718e-06
-5.42431e-10
-1.86264e-05
4.84994e-06
-6.08133e-10
-2.38673e-05
5.24162e-06
-6.70646e-10
-2.94809e-05
5.61429e-06
-7.36368e-10
-3.55393e-05
6.05926e-06
-8.0861e-10
6.69818e-06
-8.86395e-10
-4.22366e-05
-7.55621e-07
1.52118e-06
-2.68734e-06
3.88763e-06
-5.59678e-06
5.85582e-06
-9.29054e-06
7.4375e-06
-1.35923e-05
8.66899e-06
-1.83566e-05
9.61423e-06
-2.34844e-05
1.03694e-05
-2.89462e-05
1.10761e-05
-3.48035e-05
1.19165e-05
1.31321e-05
-4.12374e-05
-7.36345e-07
2.25752e-06
-2.62098e-06
5.77227e-06
-5.45825e-06
8.6931e-06
-9.05409e-06
1.10333e-05
-1.32276e-05
1.28425e-05
-1.78235e-05
1.42102e-05
-2.2727e-05
1.52729e-05
-2.78876e-05
1.62367e-05
-3.33446e-05
1.73735e-05
1.90402e-05
-3.92526e-05
-7.08417e-07
2.96594e-06
-2.52433e-06
7.58818e-06
-5.25574e-06
1.14245e-05
-8.70745e-06
1.4485e-05
-1.26917e-05
1.68268e-05
-1.70391e-05
1.85575e-05
-2.1611e-05
1.98448e-05
-2.63249e-05
2.09506e-05
-3.11869e-05
2.22356e-05
2.41598e-05
-3.63065e-05
-6.72945e-07
3.63889e-06
-2.40063e-06
9.31587e-06
-4.99514e-06
1.4019e-05
-8.25946e-06
1.77494e-05
-1.1997e-05
2.05643e-05
-1.60198e-05
2.25803e-05
-2.0158e-05
2.3983e-05
-2.42853e-05
2.50778e-05
-2.83628e-05
2.6313e-05
2.82254e-05
-3.24283e-05
-6.31281e-07
4.27017e-06
-2.25383e-06
1.09384e-05
-4.68352e-06
1.64487e-05
-7.72064e-06
2.07865e-05
-1.11578e-05
2.40015e-05
-1.47848e-05
2.62073e-05
-1.8393e-05
2.75912e-05
-2.17993e-05
2.84841e-05
-2.49077e-05
2.94214e-05
3.09631e-05
-2.76454e-05
-5.84938e-07
4.85511e-06
-2.0883e-06
1.24418e-05
-4.3286e-06
1.8689e-05
-7.10211e-06
2.356e-05
-1.01888e-05
2.70881e-05
-1.33528e-05
2.93714e-05
-1.63399e-05
3.05782e-05
-1.88958e-05
3.104e-05
-2.08535e-05
3.13791e-05
3.20858e-05
-2.19761e-05
-5.35489e-07
5.39059e-06
-1.90848e-06
1.38148e-05
-3.93804e-06
2.07186e-05
-6.41446e-06
2.60364e-05
-9.10299e-06
2.97767e-05
-1.17393e-05
3.20077e-05
-1.40172e-05
3.28561e-05
-1.55952e-05
3.2618e-05
-1.62189e-05
3.20028e-05
3.12912e-05
-1.54243e-05
-4.84469e-07
5.87506e-06
-1.71864e-06
1.50489e-05
-3.51878e-06
2.25187e-05
-5.6664e-06
2.8184e-05
-7.90952e-06
3.20198e-05
-9.95236e-06
3.40506e-05
-1.14315e-05
3.43353e-05
-1.18996e-05
3.30861e-05
-1.09932e-05
3.10964e-05
2.82951e-05
-7.99712e-06
-4.33293e-07
6.30836e-06
-1.52251e-06
1.61382e-05
-3.07639e-06
2.40726e-05
-4.86358e-06
2.99712e-05
-6.61122e-06
3.37674e-05
-7.98838e-06
3.54277e-05
-8.57028e-06
3.49172e-05
-7.78242e-06
3.22982e-05
-5.06301e-06
2.8377e-05
2.33071e-05
-7.50625e-08
-3.83179e-07
6.69154e-06
-1.32303e-06
1.7078e-05
-2.6145e-06
2.53641e-05
-4.00751e-06
3.13642e-05
-5.20274e-06
3.49627e-05
-5.82843e-06
3.60534e-05
-5.39484e-06
3.44836e-05
-3.20993e-06
3.01133e-05
1.76227e-06
2.34048e-05
1.51036e-05
9.96576e-06
-3.35091e-07
7.02663e-06
-1.12217e-06
1.78651e-05
-2.13436e-06
2.63763e-05
-3.09474e-06
3.23246e-05
-3.66903e-06
3.55369e-05
-3.43536e-06
3.58198e-05
-1.82564e-06
3.28739e-05
1.93529e-06
2.63524e-05
9.14867e-06
1.61914e-05
3.20484e-06
2.10475e-05
-2.8968e-07
7.31631e-06
-9.20727e-07
1.84961e-05
-1.6345e-06
2.709e-05
-2.11651e-06
3.28066e-05
-1.98469e-06
3.54051e-05
-7.53485e-07
3.45886e-05
2.24137e-06
2.9879e-05
7.95578e-06
2.0638e-05
1.78902e-05
6.25698e-06
-1.27595e-05
3.38546e-05
-2.47227e-07
7.56353e-06
-7.18088e-07
1.8967e-05
-1.11047e-06
2.74824e-05
-1.05852e-06
3.27547e-05
-1.15159e-07
3.44618e-05
2.2925e-06
3.21809e-05
6.94033e-06
2.52312e-05
1.49482e-05
1.26302e-05
2.82392e-05
-7.0341e-06
-3.32643e-05
4.8744e-05
-2.07546e-07
7.77108e-06
-5.11993e-07
1.92715e-05
-5.54388e-07
2.75248e-05
9.98941e-08
3.21004e-05
1.98462e-06
3.2577e-05
5.78941e-06
2.83761e-05
1.24388e-05
1.85818e-05
2.32113e-05
1.85774e-06
4.05915e-05
-2.44144e-05
-5.86907e-05
6.60179e-05
-1.69877e-07
7.94096e-06
-2.98127e-07
1.93997e-05
4.73503e-08
2.71793e-05
1.38375e-06
3.0764e-05
4.36592e-06
2.95949e-05
9.83453e-06
2.29075e-05
1.89057e-05
9.51064e-06
3.30205e-05
-1.22571e-05
5.53148e-05
-4.67087e-05
-8.91715e-05
8.57956e-05
-1.32773e-07
8.07373e-06
-6.83902e-08
1.93353e-05
7.06042e-07
2.64049e-05
2.8275e-06
2.86425e-05
7.09073e-06
2.53316e-05
1.45319e-05
1.54663e-05
2.65063e-05
-2.46375e-06
4.46306e-05
-3.03814e-05
7.26069e-05
-7.4685e-05
-0.000124438
0.000107873
-9.43443e-08
8.16807e-06
1.81057e-07
1.90599e-05
1.44856e-06
2.51374e-05
4.47336e-06
2.56177e-05
1.02304e-05
1.95746e-05
1.99907e-05
5.70601e-06
3.53893e-05
-1.78624e-05
5.82604e-05
-5.32524e-05
9.23681e-05
-0.000108793
-0.000163735
0.000131666
-5.18768e-08
8.21995e-06
4.67553e-07
1.85405e-05
2.30168e-06
2.33033e-05
6.37242e-06
2.1547e-05
1.38658e-05
1.20812e-05
2.63212e-05
-6.7494e-06
4.56676e-05
-3.72087e-05
7.40535e-05
-8.16384e-05
0.000114169
-0.000148908
-0.000206098
0.000156532
5.7179e-09
8.21423e-06
8.06714e-07
1.77395e-05
3.2992e-06
2.08108e-05
8.5837e-06
1.62625e-05
1.80837e-05
2.58127e-06
3.36227e-05
-2.22885e-05
5.73817e-05
-6.09677e-05
9.18501e-05
-0.000116107
0.000137538
-0.000194596
-0.000251424
0.000182863
7.14841e-08
8.14275e-06
1.21459e-06
1.65964e-05
4.47879e-06
1.75466e-05
1.11705e-05
9.57076e-06
2.29686e-05
-9.2168e-06
4.19658e-05
-4.12857e-05
7.04635e-05
-8.94653e-05
0.000110879
-0.000156523
0.000161326
-0.000245042
-0.00032439
0.000234292
1.59393e-07
7.98335e-06
1.7106e-06
1.50452e-05
5.87919e-06
1.3378e-05
1.41943e-05
1.25565e-06
2.85911e-05
-2.36136e-05
5.13707e-05
-6.40654e-05
8.47485e-05
-0.000122843
0.000130346
-0.00020212
0.000185152
-0.000299848
-0.000394809
0.000255571
2.73056e-07
7.7103e-06
2.31297e-06
1.30053e-05
7.53632e-06
8.15464e-06
1.77059e-05
-8.9139e-06
3.49898e-05
-4.08975e-05
6.17736e-05
-9.08492e-05
9.98995e-05
-0.000160969
0.000149552
-0.000251773
0.000206973
-0.000357268
-0.000461009
0.000273173
4.17355e-07
7.29294e-06
3.03755e-06
1.03851e-05
9.47865e-06
1.71353e-06
2.1735e-05
-2.11703e-05
4.21499e-05
-6.13124e-05
7.29932e-05
-0.000121693
0.000115353
-0.000203329
0.000167687
-0.000304107
0.000225196
-0.000414777
-0.000521907
0.000286094
5.9642e-07
6.69652e-06
3.89637e-06
7.08512e-06
1.17231e-05
-6.11322e-06
2.62815e-05
-3.57286e-05
4.9985e-05
-8.50159e-05
8.47103e-05
-0.000156418
0.000130381
-0.000248999
0.000183696
-0.000357422
0.00023909
-0.000470171
-0.000576489
0.000293671
8.1327e-07
5.88325e-06
4.89643e-06
3.00196e-06
1.42718e-05
-1.54886e-05
3.13073e-05
-5.2764e-05
5.83251e-05
-0.000112034
9.6473e-05
-0.000194566
0.000144192
-0.000296719
0.000196706
-0.000409936
0.000248295
-0.000521759
-0.000624328
0.000296134
1.0697e-06
4.81355e-06
6.03899e-06
-1.96732e-06
1.71099e-05
-2.65596e-05
3.67325e-05
-7.23866e-05
6.69169e-05
-0.000142218
0.000107738
-0.000235387
0.000156059
-0.00034504
0.000206181
-0.000460058
0.000252901
-0.000568479
-0.00066558
0.000294153
1.36628e-06
3.44727e-06
7.31917e-06
-7.92021e-06
2.02041e-05
-3.94445e-05
4.24336e-05
-9.4616e-05
7.54365e-05
-0.000175221
0.000117945
-0.000277896
0.000165427
-0.000392521
0.000211947
-0.000506578
0.000253323
-0.000609855
-0.000700751
0.000288493
1.7023e-06
1.74497e-06
8.72562e-06
-1.49435e-05
2.35018e-05
-5.42207e-05
4.82451e-05
-0.000119359
8.3518e-05
-0.000210494
0.000126595
-0.000320973
0.000171978
-0.000437904
0.000214134
-0.000548734
0.000250144
-0.000645865
-0.000730537
0.00027993
2.07577e-06
-3.30801e-07
1.02403e-05
-2.3108e-05
2.69311e-05
-7.09115e-05
5.39676e-05
-0.000146396
9.07937e-05
-0.00024732
0.000133317
-0.000363496
0.000175634
-0.000480222
0.000213076
-0.000586176
0.000244002
-0.000676791
-0.000755683
0.000269148
2.48324e-06
-2.81404e-06
1.1838e-05
-3.24628e-05
3.04019e-05
-8.94754e-05
5.93806e-05
-0.000175375
9.69377e-05
-0.000284877
0.000137901
-0.00040446
0.000176514
-0.000518834
0.000209216
-0.000618878
0.00023551
-0.000703085
-0.000776888
0.000256715
2.91983e-06
-5.73387e-06
1.34869e-05
-4.30298e-05
3.38091e-05
-0.000109798
6.42627e-05
-0.000205828
0.000101702
-0.000322317
0.000140294
-0.000443052
0.000174866
-0.000553406
0.000203027
-0.000647039
0.000225207
-0.000725265
-0.000794766
0.000243085
3.37893e-06
-9.11279e-06
1.51484e-05
-5.47993e-05
3.70379e-05
-0.000131687
6.84125e-05
-0.000237203
0.000104937
-0.000358841
0.000140573
-0.000478688
0.000171013
-0.000583845
0.000194963
-0.00067099
0.000213547
-0.000743849
-0.000809822
0.000228604
3.85227e-06
-1.29651e-05
1.67786e-05
-6.77255e-05
3.99714e-05
-0.00015488
7.16685e-05
-0.0002689
0.00010659
-0.000393762
0.000138906
-0.000511004
0.000165301
-0.000610241
0.000185435
-0.000691124
0.000200897
-0.000759311
-0.000822458
0.000213533
4.33007e-06
-1.72951e-05
1.83299e-05
-8.17254e-05
4.24997e-05
-0.00017905
7.39215e-05
-0.000300322
0.000106693
-0.000426534
0.000135513
-0.000539824
0.00015807
-0.000632798
0.000174794
-0.000707848
0.000187543
-0.00077206
-0.000832977
0.000198062
4.80123e-06
-2.20964e-05
1.97536e-05
-9.66777e-05
4.45288e-05
-0.000203825
7.51186e-05
-0.000330911
0.000105346
-0.000456761
0.00013064
-0.000565118
0.00014963
-0.000651787
0.000163329
-0.000721547
0.000173706
-0.000782437
-0.000841604
0.000182334
5.25377e-06
-2.73501e-05
2.10023e-05
-0.000112426
4.59875e-05
-0.00022881
7.52592e-05
-0.000360183
0.000102686
-0.000484188
0.000124535
-0.000586968
0.000140257
-0.000667509
0.000151277
-0.000732568
0.000159553
-0.000790712
-0.000848501
0.00016645
5.67533e-06
-3.30255e-05
2.20335e-05
-0.000128784
4.68312e-05
-0.000253608
7.43866e-05
-0.000387739
9.88769e-05
-0.000508678
0.00011743
-0.000605521
0.000130183
-0.000680262
0.000138824
-0.000741209
0.000145208
-0.000797097
-0.000853782
0.000150488
6.05376e-06
-3.90792e-05
2.28115e-05
-0.000145542
4.70427e-05
-0.000277839
7.25756e-05
-0.000413272
9.40889e-05
-0.000530191
0.000109537
-0.000620968
0.000119605
-0.00069033
0.000126114
-0.000747718
0.000130766
-0.000801749
-0.000857524
0.000134508
6.37765e-06
-4.54569e-05
2.33099e-05
-0.000162474
4.66301e-05
-0.000301159
6.9922e-05
-0.000436563
8.84892e-05
-0.000548759
0.000101042
-0.000633521
0.00010868
-0.000697968
0.00011326
-0.000752298
0.000116298
-0.000804787
-0.000859784
0.000118558
6.63688e-06
-5.20938e-05
2.35127e-05
-0.00017935
4.56224e-05
-0.000323269
6.65326e-05
-0.000457474
8.22348e-05
-0.000564461
9.21047e-05
-0.000643391
9.75386e-05
-0.000703402
0.00010035
-0.000755109
0.000101859
-0.000806297
-0.0008606
0.000102675
6.82305e-06
-5.89168e-05
2.34138e-05
-0.000195941
4.40644e-05
-0.00034392
6.25171e-05
-0.000475926
7.54685e-05
-0.000577412
8.28608e-05
-0.000650783
8.6282e-05
-0.000706824
8.745e-05
-0.000756277
8.74918e-05
-0.000806338
-0.000859994
8.68861e-05
6.92979e-06
-6.58466e-05
2.30174e-05
-0.000212029
4.20114e-05
-0.000362914
5.79832e-05
-0.000491898
6.83169e-05
-0.000587746
7.34221e-05
-0.000655888
7.49916e-05
-0.000708393
7.46123e-05
-0.000755897
7.32296e-05
-0.000804956
-0.00085798
7.12155e-05
6.9529e-06
-7.27995e-05
2.23356e-05
-0.000227411
3.95245e-05
-0.000380103
5.30323e-05
-0.000505406
6.08903e-05
-0.000595604
6.38812e-05
-0.000658879
6.37313e-05
-0.000708243
6.18761e-05
-0.000754042
5.90982e-05
-0.000802178
-0.000854564
5.56816e-05
6.89039e-06
-7.96899e-05
2.13875e-05
-0.000241908
3.66671e-05
-0.000395382
4.77576e-05
-0.000516496
5.32835e-05
-0.00060113
5.4314e-05
-0.00065991
5.25533e-05
-0.000706482
4.92734e-05
-0.000750762
4.51163e-05
-0.000798021
-0.000849742
4.02949e-05
6.7424e-06
-8.64323e-05
2.01969e-05
-0.000255363
3.35014e-05
-0.000408687
4.22427e-05
-0.000525238
4.55764e-05
-0.000604464
4.47826e-05
-0.000659116
4.15018e-05
-0.000703202
3.68386e-05
-0.000746099
3.13024e-05
-0.000792485
-0.00084349
2.50506e-05
6.51104e-06
-9.29433e-05
1.87905e-05
-0.000267642
3.0087e-05
-0.000419983
3.65613e-05
-0.000531712
3.78362e-05
-0.000605739
3.53364e-05
-0.000656616
3.06124e-05
-0.000698478
2.46147e-05
-0.000740101
1.7691e-05
-0.000785561
-0.000835685
9.88532e-06
6.2004e-06
-9.91437e-05
1.71982e-05
-0.00027864
2.64795e-05
-0.000429264
3.0778e-05
-0.00053601
3.01186e-05
-0.000605079
2.60146e-05
-0.000652512
1.99081e-05
-0.000692371
1.2627e-05
-0.00073282
4.42111e-06
-0.000777355
-0.000826243
-5.02075e-06
5.81623e-06
-0.00010496
1.5451e-05
-0.000288275
2.27302e-05
-0.000436544
2.49483e-05
-0.000538229
2.24699e-05
-0.000602601
1.68506e-05
-0.000646893
9.40925e-06
-0.00068493
7.38958e-07
-0.00072415
-8.70744e-06
-0.000767909
-0.00081576
-1.91905e-05
5.36547e-06
-0.000110325
1.35778e-05
-0.000296487
1.88854e-05
-0.000441851
1.91197e-05
-0.000538463
1.49274e-05
-0.000598408
7.86921e-06
-0.000639835
-9.00533e-07
-0.00067616
-1.06647e-05
-0.000714386
-2.15549e-05
-0.000757019
-0.000804054
-3.3261e-05
4.856e-06
-0.000115181
1.16064e-05
-0.000303238
1.49869e-05
-0.000445232
1.33315e-05
-0.000536808
7.5211e-06
-0.000592598
-9.26315e-07
-0.000631387
-1.08483e-05
-0.000666238
-2.19082e-05
-0.000703326
-3.4067e-05
-0.00074486
-0.000791034
-4.70863e-05
4.29657e-06
-0.000119478
9.56395e-06
-0.000308505
1.10715e-05
-0.000446739
7.61679e-06
-0.000533353
2.73611e-07
-0.000585255
-9.43802e-06
-0.000621676
-2.05951e-05
-0.000655081
-3.28737e-05
-0.000691047
-4.62776e-05
-0.000731456
-0.000776704
-6.06075e-05
3.6965e-06
-0.000123174
7.47777e-06
-0.000312286
7.16894e-06
-0.000446431
2.02527e-06
-0.000528209
-6.77015e-06
-0.000576459
-1.77456e-05
-0.0006107
-3.00777e-05
-0.000642749
-4.35409e-05
-0.000677584
-5.818e-05
-0.000716817
-0.000761081
-7.38034e-05
3.06479e-06
-0.000126239
5.37542e-06
-0.000314597
3.31798e-06
-0.000444373
-3.46971e-06
-0.000521421
-1.36323e-05
-0.000566297
-2.58105e-05
-0.000598522
-3.92819e-05
-0.000629277
-5.39001e-05
-0.000662966
-6.97582e-05
-0.000700959
-0.000744193
-8.66465e-05
2.41137e-06
-0.000128651
3.27622e-06
-0.000315462
-3.34982e-07
-0.000440762
-8.79833e-06
-0.000512958
-2.02912e-05
-0.000554804
-3.36232e-05
-0.00058519
-4.81986e-05
-0.000614702
-6.39423e-05
-0.000647222
-8.09952e-05
-0.000683906
-0.00072608
-9.91083e-05
1.74713e-06
-0.000130398
1.21924e-06
-0.000314934
-4.25803e-06
-0.000435285
-1.40128e-05
-0.000503203
-2.67317e-05
-0.000542085
-4.1174e-05
-0.000570748
-5.68198e-05
-0.000599056
-7.36587e-05
-0.000630383
-9.18768e-05
-0.000665688
-0.000706764
-0.000111193
1.05667e-06
-0.000131454
-8.45103e-07
-0.000313032
-7.90858e-06
-0.000428221
-1.906e-05
-0.000492052
-3.29467e-05
-0.000528198
-4.84547e-05
-0.00055524
-6.51387e-05
-0.000582372
-8.30409e-05
-0.000612481
-0.000102398
-0.00064633
-0.000686224
-0.000122938
3.17015e-07
-0.000131771
-3.0484e-06
-0.000309667
-1.14628e-05
-0.000419807
-2.39223e-05
-0.000479592
-3.89284e-05
-0.000513192
-5.54609e-05
-0.000538707
-7.31535e-05
-0.00056468
-9.2086e-05
-0.000593548
-0.000112521
-0.000625895
-0.000664467
-0.000134279
-3.98852e-07
-0.000131373
-5.11405e-06
-0.000304952
-1.49038e-05
-0.000410017
-2.85938e-05
-0.000465902
-4.46676e-05
-0.000497118
-6.2187e-05
-0.000521188
-8.08653e-05
-0.000546001
-0.000100804
-0.00057361
-0.000122148
-0.00060455
-0.000641469
-0.000145145
-1.08607e-06
-0.000130287
-7.10065e-06
-0.000298937
-1.82173e-05
-0.0003989
-3.30707e-05
-0.000451049
-5.01589e-05
-0.00048003
-6.86271e-05
-0.00050272
-8.82625e-05
-0.000526366
-0.000109188
-0.000552684
-0.000131659
-0.00058208
-0.000618751
-0.000154377
-1.77446e-06
-0.000128512
-9.01761e-06
-0.000291694
-2.13951e-05
-0.000386523
-3.7348e-05
-0.000435096
-5.53993e-05
-0.000461979
-7.47775e-05
-0.000483341
-9.53241e-05
-0.000505819
-0.00011703
-0.000530978
-0.000139463
-0.000559647
-0.000592469
-0.000165745
-2.4491e-06
-0.000126063
-1.08635e-05
-0.000283279
-2.44317e-05
-0.000372955
-4.14221e-05
-0.000418106
-6.03879e-05
-0.000443013
-8.06348e-05
-0.000463094
-0.000102024
-0.00048443
-0.000124514
-0.000508488
-0.000148215
-0.000535946
-0.000566132
-0.000174552
-3.10454e-06
-0.000122958
-1.26339e-05
-0.00027375
-2.73231e-05
-0.000358266
-4.52899e-05
-0.000400139
-6.51221e-05
-0.000423181
-8.61959e-05
-0.000442021
-0.000108404
-0.000462222
-0.000131781
-0.000485111
-0.000156612
-0.000511115
-0.000539346
-0.000183397
-3.73722e-06
-0.000119221
-1.4324e-05
-0.000263163
-3.00654e-05
-0.000342524
-4.89488e-05
-0.000381255
-6.95987e-05
-0.000402531
-9.14559e-05
-0.000420163
-0.000114447
-0.00043923
-0.000138662
-0.000460896
-0.000164373
-0.000485405
-0.000511943
-0.000191777
-4.34424e-06
-0.000114877
-1.59295e-05
-0.000251578
-3.26557e-05
-0.000325798
-5.23969e-05
-0.000361514
-7.38164e-05
-0.000381111
-9.64151e-05
-0.000397565
-0.000120156
-0.00041549
-0.00014516
-0.000435892
-0.000171661
-0.000458904
-0.000483852
-0.000199751
-4.92305e-06
-0.000109954
-1.74467e-05
-0.000239054
-3.50912e-05
-0.000308153
-5.56326e-05
-0.000340973
-7.77738e-05
-0.00035897
-0.000101072
-0.000374267
-0.000125521
-0.00039104
-0.000151259
-0.000410154
-0.000178487
-0.000431676
-0.000455064
-0.000207275
-5.47142e-06
-0.000104483
-1.88724e-05
-0.000225653
-3.73699e-05
-0.000289656
-5.86547e-05
-0.000319688
-8.14698e-05
-0.000336155
-0.000105424
-0.000350313
-0.000130538
-0.000365926
-0.000156958
-0.000383733
-0.000184868
-0.000403766
-0.000425594
-0.000214337
-5.98735e-06
-9.84952e-05
-2.0204e-05
-0.000211437
-3.94901e-05
-0.00027037
-6.14624e-05
-0.000297716
-8.49038e-05
-0.000312714
-0.000109469
-0.000325748
-0.000135204
-0.000340192
-0.000162257
-0.00035668
-0.000190805
-0.000375218
-0.000395473
-0.000220926
-6.46912e-06
-9.20261e-05
-2.14393e-05
-0.000196467
-4.14502e-05
-0.000250359
-6.4055e-05
-0.000275111
-8.8075e-05
-0.000288694
-0.000113208
-0.000300615
-0.000139516
-0.000313884
-0.000167156
-0.00032904
-0.000196299
-0.000346076
-0.000364739
-0.000227033
-6.91521e-06
-8.51109e-05
-2.25764e-05
-0.000180805
-4.32493e-05
-0.000229686
-6.64321e-05
-0.000251928
-9.09831e-05
-0.000264143
-0.000116638
-0.00027496
-0.000143475
-0.000287046
-0.000171654
-0.00030086
-0.000201345
-0.000316385
-0.000333434
-0.00023265
-7.32431e-06
-7.77865e-05
-2.3614e-05
-0.000164516
-4.48864e-05
-0.000208413
-6.85934e-05
-0.000228221
-9.36275e-05
-0.000239109
-0.000119758
-0.00024883
-0.000147077
-0.000259727
-0.000175749
-0.000272189
-0.000205942
-0.000286192
-0.000301606
-0.000237771
-7.6953e-06
-7.00912e-05
-2.45506e-05
-0.00014766
-4.6361e-05
-0.000186603
-7.05386e-05
-0.000204043
-9.60079e-05
-0.000213639
-0.000122568
-0.00022227
-0.000150323
-0.000231972
-0.000179439
-0.000243073
-0.000210086
-0.000255545
-0.000269302
-0.00024239
-8.02723e-06
-6.2064e-05
-2.53853e-05
-0.000130302
-4.76726e-05
-0.000164316
-7.22677e-05
-0.000179448
-9.81242e-05
-0.000187783
-0.000125067
-0.000195327
-0.00015321
-0.000203829
-0.000182723
-0.00021356
-0.000213775
-0.000224492
-0.000236573
-0.000246504
-8.31928e-06
-5.37447e-05
-2.61172e-05
-0.000112504
-4.88208e-05
-0.000141612
-7.37807e-05
-0.000154488
-9.99762e-05
-0.000161587
-0.000127255
-0.000168049
-0.000155738
-0.000175345
-0.000185599
-0.0001837
-0.000217007
-0.000193083
-0.000203472
-0.000250108
-8.57079e-06
-4.51739e-05
-2.67457e-05
-9.43295e-05
-4.98054e-05
-0.000118553
-7.50774e-05
-0.000129216
-0.000101564
-0.000135101
-0.00012913
-0.000140482
-0.000157907
-0.000146569
-0.000188066
-0.00015354
-0.000219779
-0.00016137
-0.00017005
-0.000253201
-8.78118e-06
-3.63928e-05
-2.72702e-05
-7.58405e-05
-5.06261e-05
-9.51967e-05
-7.61579e-05
-0.000103684
-0.000102887
-0.000108372
-0.000130694
-0.000112675
-0.000159714
-0.000117549
-0.000190123
-0.000123132
-0.000222091
-0.000129402
-0.000136361
-0.00025578
-8.95001e-06
-2.74428e-05
-2.76903e-05
-5.71002e-05
-5.12828e-05
-7.16043e-05
-7.70223e-05
-7.79449e-05
-0.000103945
-8.14489e-05
-0.000131945
-8.46752e-05
-0.000161161
-8.83332e-05
-0.000191769
-9.25239e-05
-0.000223941
-9.72298e-05
-0.000102458
-0.000257844
-9.07694e-06
-1.83658e-05
-2.80057e-05
-3.81715e-05
-5.17753e-05
-4.78346e-05
-7.76705e-05
-5.20497e-05
-0.000104739
-5.43803e-05
-0.000132884
-5.65306e-05
-0.000162247
-5.89705e-05
-0.000193005
-6.17659e-05
-0.000225329
-6.49049e-05
-6.83949e-05
-0.000259392
-9.16169e-06
-9.20413e-06
-2.8216e-05
-1.91171e-05
-5.21038e-05
-2.39468e-05
-7.81027e-05
-2.60508e-05
-0.000105269
-2.72144e-05
-0.00013351
-2.82895e-05
-0.00016297
-2.95098e-05
-0.000193828
-3.0908e-05
-0.000226255
-3.2478e-05
-3.42244e-05
-0.000260426
-9.20411e-06
-1.76739e-11
-2.83212e-05
-3.64506e-11
-5.2268e-05
-4.47579e-11
-7.83188e-05
-4.72413e-11
-0.000105533
-4.7449e-11
-0.000133823
-4.70155e-11
-0.000163332
-4.63465e-11
-0.00019424
-4.54767e-11
-0.000226718
-4.43765e-11
-4.29895e-11
-0.000260943
-9.20411e-06
9.20409e-06
-2.83212e-05
1.91171e-05
-5.2268e-05
2.39467e-05
-7.83188e-05
2.60507e-05
-0.000105533
2.72143e-05
-0.000133823
2.82894e-05
-0.000163332
2.95097e-05
-0.00019424
3.09079e-05
-0.000226718
3.24779e-05
3.42244e-05
-0.000260943
-9.16169e-06
1.83658e-05
-2.8216e-05
3.81714e-05
-5.21038e-05
4.78345e-05
-7.81027e-05
5.20496e-05
-0.000105269
5.43802e-05
-0.00013351
5.65305e-05
-0.00016297
5.89704e-05
-0.000193828
6.17658e-05
-0.000226255
6.49048e-05
6.83948e-05
-0.000260426
-9.07694e-06
2.74427e-05
-2.80057e-05
5.71001e-05
-5.17753e-05
7.16042e-05
-7.76705e-05
7.79448e-05
-0.000104739
8.14489e-05
-0.000132884
8.46751e-05
-0.000162247
8.83331e-05
-0.000193005
9.25238e-05
-0.000225329
9.72297e-05
0.000102458
-0.000259392
-8.95001e-06
3.63927e-05
-2.76903e-05
7.58404e-05
-5.12828e-05
9.51966e-05
-7.70223e-05
0.000103684
-0.000103945
0.000108372
-0.000131945
0.000112675
-0.000161161
0.000117549
-0.000191769
0.000123132
-0.000223941
0.000129402
0.000136361
-0.000257844
-8.78118e-06
4.51739e-05
-2.72702e-05
9.43295e-05
-5.06261e-05
0.000118552
-7.61579e-05
0.000129216
-0.000102887
0.000135101
-0.000130694
0.000140482
-0.000159714
0.000146569
-0.000190123
0.00015354
-0.000222091
0.00016137
0.00017005
-0.00025578
-8.57079e-06
5.37447e-05
-2.67457e-05
0.000112504
-4.98054e-05
0.000141612
-7.50774e-05
0.000154488
-0.000101564
0.000161587
-0.00012913
0.000168049
-0.000157907
0.000175345
-0.000188066
0.000183699
-0.000219779
0.000193083
0.000203472
-0.000253201
-8.31928e-06
6.2064e-05
-2.61172e-05
0.000130302
-4.88208e-05
0.000164316
-7.37807e-05
0.000179448
-9.99762e-05
0.000187783
-0.000127255
0.000195327
-0.000155738
0.000203829
-0.000185599
0.00021356
-0.000217007
0.000224492
0.000236573
-0.000250108
-8.02723e-06
7.00912e-05
-2.53853e-05
0.00014766
-4.76726e-05
0.000186603
-7.22677e-05
0.000204043
-9.81242e-05
0.000213639
-0.000125067
0.00022227
-0.00015321
0.000231972
-0.000182723
0.000243073
-0.000213775
0.000255544
0.000269302
-0.000246504
-7.6953e-06
7.77865e-05
-2.45506e-05
0.000164516
-4.6361e-05
0.000208413
-7.05386e-05
0.000228221
-9.60079e-05
0.000239109
-0.000122568
0.00024883
-0.000150323
0.000259727
-0.000179439
0.000272189
-0.000210086
0.000286192
0.000301606
-0.00024239
-7.32431e-06
8.51108e-05
-2.3614e-05
0.000180805
-4.48864e-05
0.000229686
-6.85934e-05
0.000251928
-9.36274e-05
0.000264143
-0.000119758
0.00027496
-0.000147077
0.000287046
-0.000175749
0.00030086
-0.000205942
0.000316385
0.000333434
-0.000237771
-6.91521e-06
9.2026e-05
-2.25764e-05
0.000196467
-4.32493e-05
0.000250359
-6.64321e-05
0.000275111
-9.09831e-05
0.000288694
-0.000116638
0.000300615
-0.000143475
0.000313884
-0.000171654
0.00032904
-0.000201345
0.000346076
0.000364739
-0.00023265
-6.46912e-06
9.84951e-05
-2.14393e-05
0.000211437
-4.14502e-05
0.00027037
-6.4055e-05
0.000297716
-8.8075e-05
0.000312714
-0.000113208
0.000325747
-0.000139516
0.000340192
-0.000167156
0.00035668
-0.000196298
0.000375218
0.000395473
-0.000227033
-5.98735e-06
0.000104482
-2.0204e-05
0.000225653
-3.94901e-05
0.000289656
-6.14624e-05
0.000319688
-8.49038e-05
0.000336155
-0.000109469
0.000350313
-0.000135204
0.000365926
-0.000162257
0.000383733
-0.000190805
0.000403766
0.000425594
-0.000220926
-5.47142e-06
0.000109954
-1.88723e-05
0.000239054
-3.73699e-05
0.000308153
-5.86547e-05
0.000340973
-8.14698e-05
0.00035897
-0.000105424
0.000374267
-0.000130538
0.00039104
-0.000156958
0.000410153
-0.000184868
0.000431676
0.000455064
-0.000214337
-4.92305e-06
0.000114877
-1.74467e-05
0.000251578
-3.50912e-05
0.000325798
-5.56326e-05
0.000361514
-7.77738e-05
0.000381111
-0.000101072
0.000397565
-0.000125521
0.00041549
-0.000151259
0.000435891
-0.000178487
0.000458904
0.000483852
-0.000207275
-4.34424e-06
0.000119221
-1.59295e-05
0.000263163
-3.26557e-05
0.000342524
-5.23969e-05
0.000381255
-7.38164e-05
0.000402531
-9.64151e-05
0.000420163
-0.000120156
0.00043923
-0.00014516
0.000460896
-0.000171661
0.000485405
0.000511942
-0.000199751
-3.73722e-06
0.000122958
-1.4324e-05
0.00027375
-3.00654e-05
0.000358265
-4.89488e-05
0.000400139
-6.95987e-05
0.000423181
-9.14558e-05
0.00044202
-0.000114447
0.000462222
-0.000138662
0.000485111
-0.000164373
0.000511115
0.000539346
-0.000191777
-3.10454e-06
0.000126063
-1.26339e-05
0.000283279
-2.73231e-05
0.000372955
-4.52899e-05
0.000418106
-6.5122e-05
0.000443013
-8.61959e-05
0.000463094
-0.000108404
0.00048443
-0.000131781
0.000508488
-0.000156612
0.000535946
0.000566131
-0.000183397
-2.4491e-06
0.000128512
-1.08635e-05
0.000291694
-2.44317e-05
0.000386523
-4.14221e-05
0.000435096
-6.03879e-05
0.000461979
-8.06347e-05
0.000483341
-0.000102024
0.000505819
-0.000124514
0.000530978
-0.000148215
0.000559647
0.000592469
-0.000174552
-1.77446e-06
0.000130287
-9.0176e-06
0.000298937
-2.13951e-05
0.0003989
-3.7348e-05
0.000451049
-5.53993e-05
0.00048003
-7.47775e-05
0.000502719
-9.5324e-05
0.000526366
-0.00011703
0.000552684
-0.000139463
0.00058208
0.000618751
-0.000165745
-1.08607e-06
0.000131373
-7.10065e-06
0.000304951
-1.82173e-05
0.000410017
-3.30707e-05
0.000465902
-5.01589e-05
0.000497118
-6.86271e-05
0.000521188
-8.82625e-05
0.000546001
-0.000109188
0.00057361
-0.000131659
0.00060455
0.000641469
-0.000154377
-3.98851e-07
0.000131771
-5.11405e-06
0.000309667
-1.49038e-05
0.000419807
-2.85937e-05
0.000479592
-4.46676e-05
0.000513192
-6.2187e-05
0.000538707
-8.08652e-05
0.000564679
-0.000100804
0.000593548
-0.000122148
0.000625895
0.000664466
-0.000145145
3.17016e-07
0.000131454
-3.0484e-06
0.000313032
-1.14628e-05
0.000428221
-2.39222e-05
0.000492052
-3.89284e-05
0.000528198
-5.54609e-05
0.000555239
-7.31535e-05
0.000582372
-9.2086e-05
0.000612481
-0.000112521
0.00064633
0.000686224
-0.000134279
1.05667e-06
0.000130398
-8.45102e-07
0.000314934
-7.90857e-06
0.000435285
-1.906e-05
0.000503203
-3.29467e-05
0.000542085
-4.84547e-05
0.000570748
-6.51387e-05
0.000599056
-8.30409e-05
0.000630383
-0.000102398
0.000665687
0.000706764
-0.000122938
1.74713e-06
0.000128651
1.21924e-06
0.000315462
-4.25802e-06
0.000440762
-1.40128e-05
0.000512958
-2.67317e-05
0.000554804
-4.1174e-05
0.00058519
-5.68197e-05
0.000614702
-7.36586e-05
0.000647222
-9.18768e-05
0.000683906
0.000726079
-0.000111193
2.41137e-06
0.000126239
3.27622e-06
0.000314597
-3.34979e-07
0.000444373
-8.79833e-06
0.000521421
-2.02912e-05
0.000566297
-3.36232e-05
0.000598522
-4.81986e-05
0.000629277
-6.39423e-05
0.000662966
-8.09952e-05
0.000700958
0.000744193
-9.91083e-05
3.06479e-06
0.000123174
5.37542e-06
0.000312286
3.31799e-06
0.00044643
-3.46971e-06
0.000528209
-1.36322e-05
0.000576459
-2.58105e-05
0.0006107
-3.92818e-05
0.000642749
-5.39e-05
0.000677584
-6.97582e-05
0.000716817
0.000761081
-8.66464e-05
3.6965e-06
0.000119478
7.47777e-06
0.000308505
7.16895e-06
0.000446739
2.02527e-06
0.000533353
-6.77014e-06
0.000585255
-1.77456e-05
0.000621675
-3.00777e-05
0.000655081
-4.35409e-05
0.000691047
-5.818e-05
0.000731456
0.000776704
-7.38034e-05
4.29656e-06
0.000115181
9.56395e-06
0.000303238
1.10715e-05
0.000445232
7.61679e-06
0.000536807
2.7362e-07
0.000592598
-9.43801e-06
0.000631387
-2.05951e-05
0.000666238
-3.28737e-05
0.000703326
-4.62776e-05
0.00074486
0.000791034
-6.06075e-05
4.856e-06
0.000110325
1.16064e-05
0.000296487
1.49869e-05
0.000441851
1.33315e-05
0.000538463
7.52111e-06
0.000598408
-9.26304e-07
0.000639834
-1.08483e-05
0.00067616
-2.19082e-05
0.000714386
-3.40669e-05
0.000757018
0.000804054
-4.70863e-05
5.36547e-06
0.00010496
1.35778e-05
0.000288275
1.88854e-05
0.000436544
1.91198e-05
0.000538228
1.49274e-05
0.000602601
7.86922e-06
0.000646893
-9.00518e-07
0.000684929
-1.06647e-05
0.00072415
-2.15548e-05
0.000767909
0.00081576
-3.3261e-05
5.81623e-06
9.91437e-05
1.5451e-05
0.00027864
2.27302e-05
0.000429264
2.49483e-05
0.00053601
2.24699e-05
0.000605079
1.68507e-05
0.000652512
9.40927e-06
0.000692371
7.38978e-07
0.00073282
-8.70742e-06
0.000777355
0.000826243
-1.91904e-05
6.2004e-06
9.29433e-05
1.71982e-05
0.000267642
2.64795e-05
0.000419983
3.0778e-05
0.000531712
3.01186e-05
0.000605738
2.60147e-05
0.000656616
1.99081e-05
0.000698477
1.2627e-05
0.000740101
4.42113e-06
0.000785561
0.000835684
-5.02072e-06
6.51104e-06
8.64323e-05
1.87905e-05
0.000255363
3.0087e-05
0.000408687
3.65613e-05
0.000525237
3.78362e-05
0.000604463
3.53364e-05
0.000659116
3.06124e-05
0.000703201
2.46147e-05
0.000746099
1.7691e-05
0.000792484
0.00084349
9.88535e-06
6.7424e-06
7.96898e-05
2.01969e-05
0.000241908
3.35014e-05
0.000395382
4.22427e-05
0.000516496
4.55764e-05
0.00060113
4.47826e-05
0.000659909
4.15018e-05
0.000706482
3.68386e-05
0.000750762
3.13024e-05
0.000798021
0.000849742
2.50506e-05
6.89039e-06
7.27995e-05
2.13875e-05
0.000227411
3.66671e-05
0.000380102
4.77576e-05
0.000505406
5.32835e-05
0.000595604
5.4314e-05
0.000658879
5.25534e-05
0.000708243
4.92734e-05
0.000754042
4.51164e-05
0.000802178
0.000854563
4.0295e-05
6.9529e-06
6.58466e-05
2.23356e-05
0.000212029
3.95245e-05
0.000362914
5.30323e-05
0.000491898
6.08903e-05
0.000587746
6.38812e-05
0.000655888
6.37313e-05
0.000708393
6.18761e-05
0.000755897
5.90983e-05
0.000804956
0.00085798
5.56816e-05
6.92978e-06
5.89168e-05
2.30174e-05
0.000195941
4.20114e-05
0.00034392