/*--------------------------------*- C++ -*----------------------------------*\
  =========                 |
  \\      /  F ield         | OpenFOAM: The Open Source CFD Toolbox
   \\    /   O peration     | Website:  https://openfoam.org
    \\  /    A nd           | Version:  7
     \\/     M anipulation  |
\*---------------------------------------------------------------------------*/
FoamFile
{
    version     2.0;
    format      ascii;
    class       volVectorField;
    location    "20";
    object      U;
}
// * * * * * * * * * * * * * * * * * * * * * * * * * * * * * * * * * * * * * //

dimensions      [0 1 -1 0 0 0 0];

internalField   nonuniform List<vector> 
8500
(
(-0.00126115 0.0010883 -5.70596e-20)
(-0.00697832 0.00249575 -1.34844e-19)
(-0.0176517 0.00332524 -2.27152e-19)
(-0.0302591 0.00372581 2.25844e-19)
(-0.0436823 0.00380912 -2.07783e-19)
(-0.0570365 0.00368073 -1.10794e-19)
(-0.0697215 0.00343819 1.89275e-19)
(-0.0814891 0.00317185 2.3456e-19)
(-0.0923692 0.00295987 -3.85074e-20)
(-0.102638 0.00287483 1.12798e-19)
(-0.00141639 0.00324586 3.01063e-20)
(-0.0072915 0.00744682 1.8979e-19)
(-0.0179815 0.00992457 -5.43236e-19)
(-0.0305113 0.0111212 4.92684e-19)
(-0.0437799 0.0113688 2.19472e-20)
(-0.0569127 0.0109816 3.61612e-19)
(-0.0693122 0.0102505 -6.28228e-19)
(-0.0807298 0.00944623 -9.1909e-19)
(-0.0911893 0.00880518 -1.7961e-19)
(-0.100929 0.0085479 4.0565e-19)
(-0.00172283 0.00534871 6.8828e-20)
(-0.00791078 0.0122818 5.07729e-19)
(-0.0186345 0.0163772 1.19632e-18)
(-0.0310103 0.0183557 -1.08256e-18)
(-0.0439714 0.0187608 -2.44256e-19)
(-0.0566631 0.0181087 -2.22294e-19)
(-0.0684928 0.0168787 1.1352e-18)
(-0.0792106 0.0155208 7.05989e-19)
(-0.0888295 0.0144352 1.72227e-19)
(-0.0975026 0.0139988 -1.25703e-18)
(-0.0021727 0.0073628 2.44007e-19)
(-0.00882228 0.0169274 -2.98095e-19)
(-0.0195972 0.0225894 -2.2284e-18)
(-0.0317452 0.0253252 1.97142e-19)
(-0.0442485 0.0258765 6.11369e-19)
(-0.0562822 0.0249495 -4.75256e-19)
(-0.0672597 0.0232032 -2.46817e-20)
(-0.0769273 0.0212647 -1.92875e-19)
(-0.0852868 0.0197078 4.37367e-19)
(-0.0923345 0.019079 1.25359e-18)
(-0.00275485 0.00925753 1.69714e-19)
(-0.0100058 0.0213159 -9.57355e-19)
(-0.0208493 0.0284731 2.30189e-18)
(-0.0326983 0.0319312 -1.04657e-18)
(-0.0445971 0.0326118 -4.33521e-21)
(-0.0557585 0.0313957 1.44588e-18)
(-0.0656026 0.0291089 -6.63935e-19)
(-0.073867 0.0265513 7.54674e-20)
(-0.0805495 0.0244829 -2.7245e-19)
(-0.0853736 0.0236391 9.93171e-20)
(-0.00345545 0.0110068 2.02726e-18)
(-0.0114354 0.0253875 2.46108e-18)
(-0.0223638 0.0339479 -6.29638e-19)
(-0.0338442 0.0380817 1.20106e-18)
(-0.0449937 0.0388693 3.77466e-19)
(-0.0550702 0.0373461 -5.38842e-19)
(-0.0634986 0.0344883 -2.07673e-19)
(-0.0699993 0.0312609 -9.03366e-19)
(-0.0745884 0.0286247 1.95765e-19)
(-0.076523 0.0275266 -1.16339e-18)
(-0.00425868 0.0125897 -1.95382e-18)
(-0.0130803 0.029091 -1.28248e-18)
(-0.0241063 0.0389422 1.04551e-18)
(-0.035148 0.0436931 -1.80958e-18)
(-0.0454027 0.0445592 2.0642e-19)
(-0.0541791 0.0427082 2.12048e-18)
(-0.0609038 0.0392442 -3.82114e-19)
(-0.0652635 0.0352847 -1.78251e-19)
(-0.0673439 0.0320027 1.13506e-18)
(-0.0656151 0.0305835 -2.67195e-19)
(-0.00514757 0.013991 1.63757e-18)
(-0.0149056 0.0323849 -2.96094e-18)
(-0.0260353 0.0433947 -1.17775e-18)
(-0.0365632 0.0486908 1.38063e-18)
(-0.0457713 0.0496012 4.64521e-20)
(-0.053023 0.0474004 -3.97982e-18)
(-0.0577413 0.0432938 1.2638e-18)
(-0.0595516 0.0385316 8.42672e-19)
(-0.0587095 0.0344965 -2.25039e-18)
(-0.0523844 0.0326617 1.20721e-18)
(-0.00610472 0.015201 -9.14908e-19)
(-0.016873 0.0352377 4.41535e-19)
(-0.0281007 0.0472539 1.0872e-18)
(-0.038029 0.0530102 -9.72821e-19)
(-0.0460241 0.0539249 -3.41371e-18)
(-0.051506 0.0513538 1.17539e-18)
(-0.0538873 0.0465727 -5.93167e-19)
(-0.0526859 0.0409353 4.92501e-19)
(-0.0484968 0.0360021 3.90233e-18)
(-0.0364793 0.0337419 -1.75663e-18)
(-0.00711304 0.0162154 1.44094e-18)
(-0.0189414 0.0376272 1.31228e-18)
(-0.0302441 0.0504787 -1.88335e-19)
(-0.0394672 0.056596 4.84429e-18)
(-0.046057 0.05747 2.05889e-18)
(-0.0494876 0.0545133 1.5453e-18)
(-0.0491535 0.0490387 1.03503e-18)
(-0.0443925 0.0424647 -2.82701e-18)
(-0.0363214 0.0364174 -1.30394e-18)
(-0.0175665 0.0341082 -2.14731e-18)
(-0.00815631 0.0170345 -1.34177e-19)
(-0.0210674 0.0395399 -2.073e-18)
(-0.0323971 0.0530372 -1.49284e-18)
(-0.0407791 0.059402 -2.39307e-18)
(-0.0457305 0.0601859 -1.89499e-18)
(-0.0467702 0.0568376 1.91226e-18)
(-0.0432684 0.0506754 -1.45371e-18)
(-0.0343055 0.0431435 1.27221e-18)
(-0.0214233 0.0356432 1.66588e-19)
(0.00500507 0.0335739 5.62278e-19)
(-0.00921962 0.0176629 -3.97072e-18)
(-0.0232049 0.0409695 1.89694e-18)
(-0.0344798 0.0549057 1.38321e-18)
(-0.0418419 0.0613901 1.72597e-18)
(-0.0448628 0.0620301 -2.44419e-18)
(-0.0430877 0.0582981 -1.42639e-18)
(-0.0358465 0.0514924 2.06573e-18)
(-0.0219817 0.0430524 5.73367e-19)
(-0.00313089 0.0338401 1.30145e-18)
(0.0329238 0.0319633 -1.76799e-18)
(-0.0102895 0.018108 3.32628e-18)
(-0.0253052 0.0419161 1.35292e-18)
(-0.0363998 0.0560682 7.94421e-20)
(-0.0425049 0.0625298 -8.29591e-19)
(-0.0432232 0.062968 -5.87989e-19)
(-0.0380962 0.058876 1.13453e-18)
(-0.0263637 0.0515218 -1.23411e-18)
(-0.00666916 0.042291 -1.93487e-18)
(0.0193292 0.0313424 -3.73466e-18)
(0.0676058 0.029737 2.69417e-18)
(-0.0113537 0.0183794 2.2519e-18)
(-0.027316 0.0423841 -3.65165e-18)
(-0.0380492 0.056515 -2.81672e-18)
(-0.0425854 0.0627981 1.21773e-18)
(-0.0405266 0.0629724 2.4856e-18)
(-0.0313685 0.0585586 2.79657e-18)
(-0.0141991 0.0508034 -1.49603e-18)
(0.0125779 0.0409876 4.3622e-18)
(0.0472418 0.0283372 -1.31742e-18)
(0.110508 0.0277473 -3.16871e-18)
(-0.0124009 0.0184875 -1.41679e-19)
(-0.0291788 0.0423813 2.03647e-18)
(-0.0393012 0.0562429 -9.78263e-19)
(-0.0418643 0.0621815 1.02836e-19)
(-0.0364278 0.0620268 1.04771e-18)
(-0.0223843 0.0573448 -3.33171e-18)
(0.00140144 0.049397 2.96183e-18)
(0.0367835 0.0393557 -2.88421e-18)
(0.082217 0.0250837 4.64658e-18)
(0.163068 0.0270214 1.68413e-18)
(-0.0134197 0.0184428 -1.02405e-18)
(-0.0308272 0.0419169 3.96265e-18)
(-0.0400061 0.0552555 -9.98305e-19)
(-0.0400811 0.0606814 1.00963e-18)
(-0.0305151 0.0601319 1.17797e-18)
(-0.0105296 0.0552522 -3.54466e-19)
(0.0213245 0.0473797 2.54359e-18)
(0.0670636 0.0376013 1.27114e-19)
(0.126078 0.0220308 -2.98087e-18)
(0.226128 0.0286456 4.02445e-18)
(-0.0143973 0.0182542 -1.91891e-18)
(-0.0321819 0.0410003 -3.75621e-18)
(-0.0399875 0.0535703 3.25905e-18)
(-0.0369251 0.0583165 1.6359e-18)
(-0.022305 0.0573164 -7.58586e-18)
(0.00490404 0.0523337 6.18991e-18)
(0.0465659 0.0448684 -5.59719e-18)
(0.104577 0.0359032 8.70063e-20)
(0.18072 0.0199345 -1.2703e-18)
(0.299127 0.0335909 -3.72981e-18)
(-0.0153188 0.0179288 1.66447e-18)
(-0.0331481 0.0396462 -2.27061e-19)
(-0.0390331 0.051213 -8.00255e-19)
(-0.032031 0.055128 -9.22646e-20)
(-0.0112343 0.0536535 -4.75498e-19)
(0.0247188 0.048703 -1.97196e-18)
(0.0782019 0.0420509 8.41578e-19)
(0.150501 0.0344133 -1.32835e-18)
(0.247789 0.0201018 4.00853e-19)
(0.379291 0.0426092 1.19196e-19)
(-0.0161621 0.0174707 -3.39942e-18)
(-0.0336125 0.037868 -2.47286e-19)
(-0.0368892 0.0482179 3.7267e-19)
(-0.0249721 0.0511941 1.52443e-19)
(0.00333974 0.0492738 2.48745e-18)
(0.0497988 0.044558 -7.25742e-18)
(0.117331 0.0392112 4.89559e-18)
(0.206066 0.0332979 -3.67365e-18)
(0.328203 0.0244071 3.09526e-18)
(0.462098 0.0551932 3.41803e-18)
(-0.0168918 0.0168744 -4.15282e-19)
(-0.0334362 0.0356793 1.89281e-18)
(-0.0332612 0.0446402 -2.37519e-18)
(-0.0152593 0.0466311 -7.43807e-19)
(0.0221308 0.0443767 1.43455e-18)
(0.0810731 0.0402004 6.90385e-18)
(0.16494 0.0367389 -1.38706e-18)
(0.272423 0.0329418 6.74432e-19)
(0.421228 0.0342665 -3.58382e-18)
(0.545015 0.0655967 1.66579e-18)
(-0.0174608 0.0161391 -1.24712e-18)
(-0.0324431 0.0330954 -9.70234e-19)
(-0.0278096 0.0405501 2.40368e-19)
(-0.00234749 0.0415956 9.37269e-19)
(0.0458991 0.039236 -2.77737e-18)
(0.11945 0.0360472 -1.1241e-18)
(0.221728 0.0351421 -3.53812e-18)
(0.349988 0.0342525 3.64688e-18)
(0.522298 0.0481545 3.847e-18)
(0.633656 0.0641692 -1.62739e-18)
(-0.0178167 0.0152584 -5.97602e-19)
(-0.0304276 0.0301281 2.42277e-18)
(-0.0201481 0.0360375 -2.70667e-18)
(0.0143518 0.0362867 -3.16988e-19)
(0.0754118 0.0341985 -1.27652e-18)
(0.16573 0.032627 2.77886e-18)
(0.288017 0.0350613 3.58484e-18)
(0.437802 0.03852 -3.44031e-18)
(0.623055 0.0602238 3.66621e-18)
(0.754934 0.0644276 5.19217e-19)
(-0.0178859 0.0142188 -1.73243e-18)
(-0.0271563 0.0267995 -4.90645e-18)
(-0.00985634 0.0312131 4.78641e-18)
(0.035445 0.0309448 6.87889e-19)
(0.111384 0.0296732 1.00458e-18)
(0.220467 0.0305437 6.10333e-19)
(0.363594 0.0371962 2.74151e-18)
(0.533295 0.0464754 2.02165e-18)
(0.724925 0.0725166 -7.12748e-18)
(0.87042 0.0790493 -3.54226e-18)
(-0.0175793 0.013009 2.33782e-18)
(-0.0223667 0.0231418 -5.99274e-19)
(0.0035081 0.0262116 -2.71288e-18)
(0.0615222 0.0258499 5.26263e-19)
(0.154399 0.0261169 8.42989e-19)
(0.283814 0.0304209 -6.06253e-18)
(0.447453 0.0421869 2.67893e-18)
(0.632943 0.0580108 -1.8142e-18)
(0.824876 0.0869173 1.896e-18)
(0.969941 0.0971118 -6.79551e-19)
(-0.0167939 0.0116219 2.37563e-18)
(-0.0157737 0.0192028 5.38767e-18)
(0.0203919 0.0211968 1.44541e-19)
(0.0931141 0.0213213 -7.4109e-19)
(0.204823 0.0240172 2.5753e-20)
(0.35537 0.032838 5.6263e-20)
(0.537589 0.0504503 -4.07488e-18)
(0.732793 0.0725744 5.23839e-19)
(0.918114 0.103142 5.11057e-18)
(1.05412 0.11555 2.34749e-18)
(-0.0154147 0.0100585 -5.13572e-21)
(-0.00707878 0.015054 -1.07425e-18)
(0.0412239 0.0163684 4.46279e-18)
(0.130641 0.0177177 1.18301e-19)
(0.262698 0.0238729 -1.94058e-18)
(0.434061 0.0382577 5.20239e-18)
(0.631119 0.0620537 1.14846e-18)
(0.828801 0.0894172 7.65575e-20)
(1.00125 0.120316 -2.23221e-18)
(1.12165 0.133294 -2.96243e-18)
(-0.0133175 0.00833124 3.06685e-18)
(0.0040186 0.0107974 -8.47581e-19)
(0.0663896 0.0119678 -2.70204e-18)
(0.174361 0.0154353 1.81534e-19)
(0.327656 0.0261639 3.15083e-18)
(0.518122 0.0469486 -3.14957e-18)
(0.724665 0.0766848 -1.77967e-18)
(0.917506 0.107709 -4.02983e-19)
(1.07229 0.137599 -1.29391e-18)
(1.17393 0.149641 1.43809e-18)
(-0.0103731 0.00646728 -1.12687e-18)
(0.0178082 0.00657199 -6.72085e-18)
(0.0962012 0.00828235 6.96459e-19)
(0.224311 0.0148991 1.817e-18)
(0.398855 0.0313052 1.18017e-18)
(0.605197 0.058927 -4.18127e-18)
(0.814876 0.0937496 3.78264e-18)
(0.996483 0.126663 -4.24264e-18)
(1.13073 0.15436 -6.36963e-19)
(1.2129 0.164454 7.21501e-19)
(-0.00645123 0.00451123 -1.24465e-18)
(0.0345538 0.00255744 2.38168e-18)
(0.130866 0.00564368 3.1165e-18)
(0.280255 0.0165434 -3.80635e-18)
(0.474959 0.0395887 2.1829e-18)
(0.692605 0.0739495 3.27282e-18)
(0.898923 0.112534 9.88831e-19)
(1.06447 0.145641 2.65034e-18)
(1.17716 0.170237 1.87445e-18)
(1.24087 0.177795 -2.0197e-18)
(-0.00142571 0.00252658 -1.6174e-18)
(0.0544759 -0.00102497 -5.53117e-19)
(0.170453 0.0044212 -5.66363e-18)
(0.34164 0.0207795 -8.88096e-19)
(0.554212 0.0511302 -9.32924e-20)
(0.777681 0.0915713 3.01607e-19)
(0.97479 0.132354 -5.94916e-18)
(1.12123 0.164197 1.08308e-18)
(1.21284 0.185087 4.56856e-20)
(1.26005 0.18988 1.39249e-18)
(0.00482024 0.000595978 -4.26262e-19)
(0.0777341 -0.00391483 1.96963e-18)
(0.214861 0.00500794 2.7728e-18)
(0.407583 0.0279527 1.73363e-18)
(0.634585 0.0658488 -5.09437e-19)
(0.858103 0.111245 -4.28426e-19)
(1.04134 0.152639 4.5499e-18)
(1.16727 0.182069 4.27653e-19)
(1.23928 0.198923 6.4533e-19)
(1.27242 0.200963 -8.44754e-19)
(0.0123876 -0.00117879 4.07802e-18)
(0.104408 -0.00581835 2.62213e-18)
(0.26379 0.00779919 -2.6583e-18)
(0.476897 0.0382988 -5.28812e-19)
(0.713997 0.08349 2.80378e-19)
(0.932097 0.132418 -1.01522e-18)
(1.09819 0.172969 -7.98298e-19)
(1.20356 0.199145 -1.73266e-18)
(1.25807 0.211852 -2.80869e-18)
(1.27959 0.211303 1.36422e-18)
(0.0213544 -0.00267881 5.16165e-19)
(0.13448 -0.00641835 -1.43569e-18)
(0.316731 0.0131649 3.40008e-18)
(0.548157 0.0519136 2.20958e-18)
(0.790515 0.103682 7.45067e-20)
(0.998504 0.154596 1.56782e-18)
(1.14556 0.19306 -3.82268e-19)
(1.23127 0.215416 -1.4028e-18)
(1.27064 0.22403 3.52625e-18)
(1.28285 0.221131 9.24266e-19)
(0.0317706 -0.00377077 -3.3899e-18)
(0.167822 -0.00538686 -9.95609e-19)
(0.372966 0.0214191 -8.94024e-19)
(0.619818 0.0687478 -1.5566e-18)
(0.862522 0.126002 3.73312e-19)
(1.05673 0.177375 8.8786e-21)
(1.18402 0.212746 1.22078e-18)
(1.25163 0.230942 -1.44648e-18)
(1.27825 0.235628 -2.11058e-18)
(1.28315 0.230634 -1.40209e-18)
(0.0436506 -0.00431037 2.77606e-19)
(0.204184 -0.00240068 1.62081e-18)
(0.431597 0.0327921 7.8696e-19)
(0.690338 0.0886247 -2.44788e-18)
(0.928794 0.150026 -1.20333e-19)
(1.10665 0.200442 -1.05854e-18)
(1.2144 0.231947 2.71313e-20)
(1.26581 0.245821 4.96224e-19)
(1.28193 0.246804 -5.54864e-19)
(1.28121 0.239957 1.55414e-18)
(0.0569686 -0.00414706 6.58144e-19)
(0.243193 0.002841 -1.59423e-18)
(0.491584 0.0474102 -3.75531e-18)
(0.758291 0.111274 3.45477e-18)
(0.988505 0.175359 -2.5774e-19)
(1.14846 0.223566 7.62068e-19)
(1.23757 0.250641 -1.06922e-19)
(1.27485 0.260163 7.37844e-19)
(1.2825 0.257696 -5.50262e-20)
(1.27752 0.249197 -1.20455e-18)
(0.0716545 -0.00312941 -1.34556e-18)
(0.284359 0.0105983 2.08461e-18)
(0.551812 0.0652884 1.71144e-18)
(0.822448 0.136369 -2.47409e-18)
(1.04119 0.201653 -4.13156e-19)
(1.18259 0.246581 1.56041e-19)
(1.25442 0.268845 1.57805e-18)
(1.27962 0.274075 7.92202e-20)
(1.28057 0.268412 3.06233e-19)
(1.27242 0.258416 -6.60831e-19)
(0.0875922 -0.00111136 1.02124e-18)
(0.327088 0.0210736 -9.14185e-19)
(0.611155 0.0863346 -7.81337e-19)
(0.881826 0.163552 1.33475e-18)
(1.08668 0.228603 4.59535e-19)
(1.2096 0.269371 3.48558e-19)
(1.26578 0.286591 -1.60912e-18)
(1.28085 0.287648 -5.49803e-19)
(1.27661 0.279025 -4.91293e-19)
(1.26613 0.267637 2.17691e-19)
(0.104619 0.00204123 -3.04562e-19)
(0.370702 0.0343975 -2.86068e-19)
(0.668535 0.110363 1.48004e-18)
(0.935687 0.192459 -5.4022e-19)
(1.12501 0.255948 -2.40696e-19)
(1.23008 0.291852 -1.57996e-19)
(1.27238 0.303915 3.89855e-19)
(1.27913 0.300952 6.70806e-19)
(1.27095 0.28958 -2.10376e-20)
(1.25879 0.276859 2.4293e-19)
(0.12253 0.00644385 -9.29918e-20)
(0.41447 0.0506194 3.75831e-19)
(0.722974 0.137111 -3.25288e-19)
(0.983528 0.222729 -2.02096e-19)
(1.1564 0.283459 1.58999e-19)
(1.24465 0.31396 1.11326e-19)
(1.27487 0.320847 -6.15871e-20)
(1.2749 0.314032 1.03467e-19)
(1.26381 0.300088 2.60321e-20)
(1.2505 0.286057 -7.77516e-20)
(0.14108 0.0121869 4.04158e-20)
(0.457634 0.0697037 3.09629e-19)
(0.773621 0.166257 -2.43963e-19)
(1.02505 0.25401 -2.37991e-19)
(1.18115 0.310933 1.59878e-19)
(1.25389 0.335642 1.03838e-19)
(1.27377 0.337403 -1.6132e-19)
(1.26849 0.326905 1.61606e-19)
(1.25535 0.310535 1.38339e-20)
(1.2413 0.295188 -7.29752e-20)
(0.159993 0.0193302 1.56774e-19)
(0.499444 0.091531 -1.4211e-19)
(0.819776 0.197438 1.0324e-18)
(1.06012 0.285964 -4.59495e-19)
(1.19962 0.338186 -2.22514e-19)
(1.25832 0.356843 -2.48913e-19)
(1.26954 0.353579 5.06236e-19)
(1.26018 0.339563 3.3426e-19)
(1.24566 0.320884 2.64156e-19)
(1.23122 0.304201 1.41801e-19)
(0.178968 0.0278984 1.59513e-18)
(0.539185 0.115904 -8.70841e-19)
(0.860891 0.230263 -9.84753e-19)
(1.08873 0.318264 1.3371e-18)
(1.21221 0.365048 6.99481e-19)
(1.25842 0.377506 -4.57065e-20)
(1.26251 0.369355 -8.41472e-19)
(1.25013 0.351975 -6.01905e-19)
(1.23483 0.331076 -6.13937e-19)
(1.2203 0.313032 3.57977e-19)
(0.197692 0.0378785 -2.16054e-18)
(0.576198 0.142554 2.01985e-18)
(0.896562 0.264319 2.31979e-18)
(1.11099 0.350595 -2.27423e-18)
(1.21931 0.391354 -7.79833e-19)
(1.25461 0.397562 4.9269e-19)
(1.25298 0.38469 8.82514e-19)
(1.23849 0.364087 1.34602e-19)
(1.22288 0.341032 -1.9863e-20)
(1.20854 0.321603 -4.79797e-19)
(0.215844 0.0492186 -3.13769e-19)
(0.609899 0.171156 -2.85011e-18)
(0.926521 0.299188 -3.04016e-18)
(1.12707 0.382653 3.38808e-18)
(1.22132 0.416945 -3.82467e-19)
(1.24727 0.416935 6.83445e-19)
(1.24117 0.399524 1.28968e-19)
(1.22534 0.375827 -3.70022e-19)
(1.20984 0.350659 1.97281e-19)
(1.19593 0.329823 -1.7295e-20)
(0.233112 0.0618282 6.35111e-19)
(0.639795 0.201334 1.77012e-18)
(0.950619 0.334447 9.97725e-19)
(1.1372 0.414143 -7.859e-19)
(1.21861 0.441659 -1.20225e-18)
(1.2367 0.435536 -1.09937e-18)
(1.22727 0.413785 -2.16263e-19)
(1.21077 0.387119 5.51009e-19)
(1.19568 0.359868 -1.14943e-19)
(1.18234 0.337601 2.62598e-19)
(0.249194 0.075581 -2.40866e-18)
(0.665484 0.232678 -2.22859e-18)
(0.968812 0.369674 -3.50844e-19)
(1.14165 0.444785 -3.96165e-19)
(1.21153 0.465337 -8.77133e-19)
(1.22318 0.453263 5.2326e-19)
(1.21144 0.427385 -9.67906e-20)
(1.19483 0.397883 -8.723e-19)
(1.18045 0.368618 -1.30261e-19)
(1.16763 0.344892 -1.06662e-18)
(0.263813 0.0903178 5.73421e-19)
(0.686665 0.264752 1.88955e-18)
(0.981144 0.404457 1.62935e-18)
(1.14073 0.474304 1.75537e-18)
(1.20044 0.487818 4.32799e-20)
(1.20697 0.470005 1.45809e-18)
(1.19379 0.440219 -8.70235e-19)
(1.17758 0.408017 4.54049e-19)
(1.16418 0.376908 9.32328e-19)
(1.15188 0.351689 5.3188e-19)
(0.27672 0.105851 1.56363e-18)
(0.703134 0.297107 3.46531e-18)
(0.987731 0.438392 -4.57499e-19)
(1.13473 0.502438 -2.20521e-18)
(1.18564 0.50894 9.80867e-19)
(1.18827 0.485645 -9.91831e-19)
(1.17444 0.452175 -7.34097e-19)
(1.15905 0.417382 -5.05891e-19)
(1.14691 0.384642 -8.67589e-19)
(1.13547 0.357818 3.17268e-19)
(0.287703 0.121968 7.2824e-19)
(0.714779 0.329292 5.28931e-19)
(0.988754 0.471091 4.26341e-18)
(1.124 0.528935 7.77815e-19)
(1.16745 0.528543 -6.60227e-19)
(1.16728 0.500062 -3.3425e-19)
(1.15349 0.463144 1.95344e-18)
(1.13942 0.425898 -9.69707e-21)
(1.12858 0.39159 6.88422e-19)
(1.11848 0.36331 -7.77516e-20)
(0.296587 0.138439 1.48337e-19)
(0.721571 0.360864 -3.53626e-18)
(0.984442 0.502184 -5.00052e-18)
(1.10887 0.553555 1.36578e-19)
(1.14613 0.546471 9.1731e-19)
(1.14419 0.513123 -1.24571e-18)
(1.13115 0.472984 -2.79319e-18)
(1.11868 0.433477 7.9458e-19)
(1.10924 0.397671 -3.85427e-20)
(1.10082 0.367963 2.20232e-19)
(0.303244 0.155023 -1.25694e-18)
(0.723556 0.39139 3.13779e-18)
(0.975075 0.531318 2.98808e-18)
(1.08969 0.576073 -1.00745e-18)
(1.12199 0.562568 -9.6129e-19)
(1.11923 0.524686 2.82527e-18)
(1.10748 0.481585 -5.10028e-19)
(1.09683 0.44 8.44487e-19)
(1.08903 0.402783 2.68082e-19)
(1.0825 0.371708 -1.56235e-19)
(0.307583 0.171472 -2.80667e-18)
(0.720855 0.420462 -4.95067e-18)
(0.960987 0.558173 -9.59658e-19)
(1.0668 0.596272 1.89237e-18)
(1.09528 0.576669 1.00384e-18)
(1.09256 0.534621 -2.46293e-18)
(1.08255 0.488823 1.54832e-18)
(1.074 0.445364 -8.31879e-19)
(1.06801 0.406831 -1.71159e-19)
(1.06355 0.374456 5.32132e-20)
(0.309565 0.18754 2.14596e-18)
(0.713672 0.447691 1.69796e-19)
(0.942569 0.582479 -4.72261e-19)
(1.04046 0.613919 -1.83301e-18)
(1.06627 0.588627 1.05639e-18)
(1.06435 0.54279 -2.83602e-19)
(1.05652 0.494587 -5.40371e-19)
(1.05028 0.449463 2.22996e-19)
(1.04625 0.409719 1.3934e-20)
(1.04405 0.376134 -1.6778e-19)
(0.309201 0.202979 1.60908e-19)
(0.702293 0.472708 -7.56498e-19)
(0.920152 0.604012 1.97487e-18)
(1.01096 0.628826 8.96448e-19)
(1.03524 0.598257 -1.15153e-18)
(1.03478 0.549072 1.26331e-18)
(1.0295 0.498768 1.64343e-19)
(1.02576 0.452203 2.62551e-19)
(1.02382 0.411349 4.8571e-19)
(1.02405 0.376653 7.887e-20)
(0.306554 0.217541 1.58009e-18)
(0.687029 0.495191 2.79039e-18)
(0.893823 0.622397 -2.54861e-19)
(0.978823 0.640955 -3.64148e-19)
(1.0025 0.605418 -4.35387e-19)
(1.00406 0.553347 -1.83593e-19)
(1.00164 0.501269 2.64031e-19)
(1.00056 0.453501 4.09811e-20)
(1.00079 0.41163 -4.25822e-19)
(1.00361 0.37592 -5.65373e-19)
(0.301701 0.230967 2.18786e-19)
(0.668078 0.514973 4.33106e-19)
(0.863969 0.637363 -2.34861e-18)
(0.944506 0.650029 9.56227e-19)
(0.968301 0.610081 -2.40766e-21)
(0.972372 0.555526 1.17713e-19)
(0.973085 0.501999 2.87182e-20)
(0.97478 0.453283 1.1676e-19)
(0.977257 0.410482 -4.87335e-19)
(0.982886 0.373845 6.86781e-19)
(0.294707 0.242964 -1.38904e-18)
(0.645649 0.531683 -9.3728e-19)
(0.831333 0.648956 6.24374e-19)
(0.908285 0.655878 2.5873e-20)
(0.932897 0.612119 -4.11821e-19)
(0.939906 0.555518 1.87851e-19)
(0.943968 0.500879 3.10917e-19)
(0.948514 0.451475 -1.3246e-18)
(0.95342 0.407843 2.86543e-18)
(0.962307 0.370393 1.10441e-18)
(0.28568 0.253319 -9.91805e-19)
(0.620089 0.544937 2.12559e-18)
(0.796333 0.656961 -1.20584e-18)
(0.870484 0.658469 -2.68848e-19)
(0.896549 0.611452 2.96206e-20)
(0.906855 0.553252 -4.09029e-19)
(0.914414 0.497839 -1.05361e-18)
(0.921894 0.447991 5.4859e-19)
(0.929647 0.403617 -2.07411e-19)
(0.942332 0.365711 -5.29828e-19)
(0.274842 0.261911 -1.55804e-19)
(0.591896 0.554594 -6.5394e-19)
(0.759324 0.661198 1.61662e-19)
(0.831445 0.657731 4.9944e-20)
(0.859522 0.608012 7.59651e-19)
(0.87341 0.548672 5.83479e-19)
(0.884561 0.492831 1.89125e-18)
(0.895134 0.442762 -1.35769e-18)
(0.906371 0.397611 -2.58662e-18)
(0.922556 0.3597 1.05486e-18)
(0.262382 0.268621 -1.80511e-19)
(0.561497 0.560528 -3.12141e-19)
(0.720715 0.661543 1.13105e-19)
(0.791515 0.653608 1.01444e-18)
(0.82208 0.601752 -1.5139e-18)
(0.839765 0.541735 -2.28939e-18)
(0.854595 0.485829 -7.06244e-19)
(0.868532 0.435853 -1.21075e-19)
(0.883878 0.389969 3.32023e-18)
(0.901103 0.349005 -7.91051e-19)
(0.248489 0.273302 4.39629e-19)
(0.52932 0.562634 -3.35343e-19)
(0.680925 0.657934 -6.07986e-20)
(0.751041 0.646062 4.14009e-20)
(0.784487 0.592643 -9.12735e-19)
(0.806131 0.532409 4.22432e-18)
(0.824754 0.476779 -2.88214e-18)
(0.842306 0.427227 3.45916e-18)
(0.861283 0.38204 -2.44973e-18)
(0.878941 0.342358 -3.23486e-18)
(0.23339 0.275842 -2.69906e-19)
(0.49579 0.560837 2.05112e-20)
(0.640369 0.650345 -6.14086e-21)
(0.710365 0.635083 1.45489e-18)
(0.747006 0.580674 -5.40313e-19)
(0.772727 0.52067 8.41199e-19)
(0.795224 0.465636 1.71123e-18)
(0.816411 0.416682 -9.0247e-19)
(0.838476 0.37202 -2.26431e-18)
(0.857344 0.332633 3.18376e-18)
(0.217325 0.27616 1.23529e-18)
(0.461326 0.555097 1.6663e-18)
(0.599461 0.638784 -1.54484e-18)
(0.669821 0.620684 -1.39344e-18)
(0.709897 0.565853 4.65329e-18)
(0.739764 0.506524 -4.72731e-18)
(0.766162 0.452429 5.62394e-18)
(0.790916 0.404391 -1.43449e-18)
(0.815833 0.360715 1.53785e-18)
(0.83645 0.322372 2.84199e-18)
(0.200543 0.274204 2.57428e-18)
(0.426347 0.545411 -1.56881e-18)
(0.558603 0.623289 -8.5391e-19)
(0.629739 0.602906 -5.09414e-19)
(0.67342 0.548211 4.98085e-19)
(0.707454 0.489989 -1.17893e-18)
(0.737727 0.437165 -1.6894e-18)
(0.765939 0.390308 -3.62119e-18)
(0.793577 0.347843 3.59025e-18)
(0.816237 0.31073 -1.19783e-18)
(0.183293 0.269946 6.84436e-19)
(0.391263 0.531814 -3.00378e-19)
(0.518186 0.603928 -1.19651e-18)
(0.590437 0.581813 1.58738e-18)
(0.637826 0.527797 -2.88294e-18)
(0.676002 0.471106 7.62113e-18)
(0.710084 0.419885 -4.06728e-18)
(0.741644 0.374506 3.70375e-18)
(0.771931 0.333532 -6.84225e-18)
(0.796791 0.297838 -1.82633e-18)
(0.165829 0.263391 -9.23335e-19)
(0.356476 0.514374 2.88818e-18)
(0.478589 0.580798 6.98309e-19)
(0.552223 0.557492 -1.4598e-18)
(0.603361 0.504682 -2.51593e-18)
(0.645609 0.44993 -1.9329e-18)
(0.683395 0.400637 1.29487e-18)
(0.718182 0.357018 -3.31059e-18)
(0.75104 0.317777 1.65893e-18)
(0.77817 0.283652 2.27115e-19)
(0.148397 0.254565 -4.65023e-18)
(0.322375 0.493197 -1.15453e-18)
(0.440174 0.554023 -3.08268e-19)
(0.515393 0.530055 3.92699e-18)
(0.570262 0.478955 -3.69888e-18)
(0.616467 0.426535 8.63591e-19)
(0.657826 0.379486 -4.55066e-19)
(0.695706 0.337903 3.20516e-18)
(0.731046 0.300619 9.83529e-19)
(0.760459 0.26821 -2.05044e-18)
(0.131241 0.243524 4.05682e-18)
(0.289333 0.468419 -2.29898e-18)
(0.403287 0.523757 1.23838e-19)
(0.480229 0.499636 -3.55093e-18)
(0.538757 0.450726 4.34551e-18)
(0.588767 0.401012 -1.93881e-18)
(0.633538 0.35651 1.16652e-18)
(0.674358 0.317223 8.3444e-20)
(0.71207 0.282107 -3.94512e-19)
(0.743739 0.25156 -1.21678e-18)
(0.114596 0.230347 -1.65806e-18)
(0.257704 0.440209 4.75326e-18)
(0.368255 0.490178 2.68035e-18)
(0.446998 0.466388 4.3809e-18)
(0.50906 0.420121 -1.02874e-18)
(0.562687 0.373468 4.06612e-19)
(0.610684 0.331798 3.18111e-18)
(0.654273 0.295056 -3.2374e-18)
(0.69423 0.2623 7.05398e-20)
(0.728094 0.233766 -1.45415e-18)
(0.0986846 0.215136 -3.74677e-18)
(0.227824 0.408762 -2.81883e-19)
(0.335384 0.453487 -1.56505e-18)
(0.415949 0.430486 -7.0233e-18)
(0.481374 0.387284 -6.81122e-18)
(0.538397 0.344022 1.14081e-18)
(0.58941 0.305456 -3.8442e-18)
(0.635579 0.271487 6.8086e-18)
(0.677635 0.241272 9.90053e-19)
(0.713601 0.214899 2.10142e-18)
(0.083718 0.198016 5.46352e-18)
(0.200001 0.374303 -4.47468e-18)
(0.304957 0.41391 -2.27423e-18)
(0.387314 0.392122 4.05533e-18)
(0.45589 0.352377 4.61939e-18)
(0.516055 0.312811 -1.53056e-18)
(0.569851 0.277599 1.8765e-18)
(0.618394 0.246614 -2.47378e-18)
(0.662387 0.219107 -3.19688e-18)
(0.700333 0.195042 1.23602e-18)
(0.0698918 0.179131 -3.10147e-18)
(0.174522 0.33708 1.30932e-18)
(0.277235 0.371692 4.81114e-18)
(0.361306 0.351508 -2.15571e-18)
(0.432779 0.315574 1.66087e-19)
(0.49581 0.279983 6.17067e-18)
(0.552133 0.248354 -5.97859e-19)
(0.602827 0.220546 -4.85451e-18)
(0.64858 0.195899 5.58974e-18)
(0.68836 0.174283 -2.08094e-18)
(0.0573846 0.158643 4.27292e-18)
(0.151645 0.297365 4.68137e-19)
(0.252451 0.327098 3.07881e-19)
(0.338116 0.308869 4.39868e-18)
(0.412201 0.277065 -5.90682e-19)
(0.477792 0.2457 -3.8663e-18)
(0.536369 0.217859 1.90596e-18)
(0.588977 0.1934 3.62299e-19)
(0.636301 0.17175 -2.32029e-18)
(0.677743 0.152716 4.10818e-19)
(0.0463564 0.136732 -2.66587e-18)
(0.1316 0.255448 -5.12259e-18)
(0.230814 0.280409 1.18302e-18)
(0.317915 0.264446 -2.32591e-18)
(0.394295 0.237052 -1.4141e-18)
(0.462122 0.210132 3.43653e-18)
(0.522663 0.18626 -8.32992e-19)
(0.576935 0.165303 7.78848e-19)
(0.625626 0.146771 -9.53622e-19)
(0.668538 0.13044 1.90996e-18)
(0.0369469 0.113593 9.60766e-19)
(0.114585 0.211638 3.44541e-18)
(0.212503 0.231923 -4.79094e-18)
(0.300851 0.218492 2.27515e-18)
(0.379183 0.195747 -1.03972e-18)
(0.448902 0.17346 -2.94181e-18)
(0.511102 0.153713 2.41234e-18)
(0.566777 0.136387 5.12729e-19)
(0.616624 0.121079 -7.62528e-20)
(0.660792 0.107559 -2.2237e-18)
(0.0292744 0.0894303 3.14229e-19)
(0.100769 0.166259 1.10832e-18)
(0.19767 0.181949 4.33314e-18)
(0.287049 0.17127 -8.33642e-19)
(0.366969 0.153372 -6.59585e-19)
(0.438219 0.135875 2.45039e-19)
(0.501761 0.120381 1.06419e-19)
(0.55857 0.106792 9.05033e-19)
(0.609353 0.0947943 -1.19696e-18)
(0.654547 0.0841796 -7.71406e-19)
(0.023435 0.0644616 -7.85953e-19)
(0.0902872 0.119646 -1.34858e-18)
(0.186437 0.130805 -3.367e-18)
(0.276608 0.123053 1.69778e-18)
(0.357734 0.110157 1.39032e-18)
(0.430145 0.0975709 5.84918e-20)
(0.494702 0.086431 -2.35189e-18)
(0.552367 0.0766648 -1.051e-18)
(0.603857 0.0680454 8.38388e-19)
(0.649834 0.0604092 9.09851e-19)
(0.0195014 0.0389113 -1.4806e-19)
(0.0832422 0.0721448 -1.61992e-19)
(0.178898 0.0788212 6.38806e-19)
(0.269605 0.0741193 -4.34382e-19)
(0.351543 0.0663372 -3.83879e-19)
(0.424732 0.0587504 -2.61228e-19)
(0.48997 0.0520372 4.83386e-19)
(0.548209 0.0461533 1.85208e-18)
(0.600174 0.0409619 2.69746e-19)
(0.646678 0.0363584 -4.85887e-19)
(0.0175224 0.0130096 -1.74017e-20)
(0.0797024 0.024108 4.3508e-19)
(0.175112 0.0263302 3.34615e-19)
(0.266091 0.0247546 -2.6205e-19)
(0.348437 0.022153 3.41224e-19)
(0.422017 0.0196182 1.32765e-19)
(0.487597 0.0173756 8.01422e-21)
(0.546123 0.0154103 -6.05972e-19)
(0.598327 0.0136765 1.60336e-19)
(0.645096 0.0121384 -3.75116e-19)
(0.0175223 -0.0130095 9.74126e-20)
(0.0797024 -0.0241078 3.26719e-19)
(0.175112 -0.02633 3.54716e-19)
(0.266091 -0.0247544 -2.11542e-19)
(0.348437 -0.0221528 3.49866e-19)
(0.422017 -0.019618 -5.59054e-21)
(0.487597 -0.0173755 1.44768e-19)
(0.546123 -0.0154101 -6.7465e-19)
(0.598327 -0.0136764 1.40756e-19)
(0.645096 -0.0121383 -3.25027e-19)
(0.0195014 -0.0389112 -7.654e-20)
(0.0832421 -0.0721446 -4.55174e-19)
(0.178898 -0.078821 1.2469e-18)
(0.269605 -0.0741191 -1.09744e-18)
(0.351543 -0.066337 -5.15955e-20)
(0.424732 -0.0587502 -7.35558e-19)
(0.48997 -0.0520371 1.20215e-18)
(0.548209 -0.0461531 1.64516e-18)
(0.600174 -0.0409617 2.96499e-19)
(0.646678 -0.0363583 -6.4595e-19)
(0.023435 -0.0644615 -1.59884e-19)
(0.0902872 -0.119646 -1.17631e-18)
(0.186437 -0.130805 -2.73718e-18)
(0.276608 -0.123052 2.37679e-18)
(0.357734 -0.110157 4.93755e-19)
(0.430145 -0.0975707 4.37833e-19)
(0.494702 -0.0864308 -2.16362e-18)
(0.552367 -0.0766646 -1.28147e-18)
(0.603857 -0.0680452 -2.8725e-19)
(0.649834 -0.0604091 1.99584e-18)
(0.0292744 -0.0894302 -5.64085e-19)
(0.100769 -0.166259 7.06701e-19)
(0.19767 -0.181948 4.97218e-18)
(0.287049 -0.17127 -4.4589e-19)
(0.366969 -0.153372 -1.28336e-18)
(0.438219 -0.135875 9.27258e-19)
(0.501761 -0.12038 6.2255e-20)
(0.55857 -0.106792 3.31019e-19)
(0.609353 -0.0947942 -7.269e-19)
(0.654547 -0.0841794 -1.94972e-18)
(0.0369468 -0.113593 -3.82217e-19)
(0.114585 -0.211638 2.0793e-18)
(0.212503 -0.231923 -5.01457e-18)
(0.300851 -0.218492 2.18116e-18)
(0.379183 -0.195747 1.96436e-20)
(0.448902 -0.17346 -2.7858e-18)
(0.511102 -0.153713 1.23482e-18)
(0.566777 -0.136387 -1.16906e-19)
(0.616624 -0.121078 4.72218e-19)
(0.660792 -0.107559 -1.46962e-19)
(0.0463564 -0.136732 -4.38742e-18)
(0.1316 -0.255448 -5.24216e-18)
(0.230814 -0.280409 1.3704e-18)
(0.317915 -0.264446 -2.49857e-18)
(0.394295 -0.237052 -7.13102e-19)
(0.462122 -0.210132 1.05956e-18)
(0.522663 -0.18626 3.94616e-19)
(0.576935 -0.165303 1.4862e-18)
(0.625626 -0.146771 -3.20521e-19)
(0.668538 -0.13044 1.75187e-18)
(0.0573846 -0.158643 4.19867e-18)
(0.151645 -0.297365 2.69742e-18)
(0.252451 -0.327098 -2.05447e-18)
(0.338116 -0.308869 3.46477e-18)
(0.412201 -0.277065 -3.04685e-19)
(0.477792 -0.2457 -3.77352e-18)
(0.536369 -0.217859 6.63723e-19)
(0.588977 -0.1934 2.67409e-19)
(0.636301 -0.17175 -1.6752e-18)
(0.677743 -0.152716 4.0813e-19)
(0.0698917 -0.17913 -3.15193e-18)
(0.174522 -0.33708 5.63951e-18)
(0.277235 -0.371691 2.21092e-18)
(0.361306 -0.351508 -2.72387e-18)
(0.432779 -0.315574 1.40275e-20)
(0.495809 -0.279983 6.96611e-18)
(0.552132 -0.248354 -2.12459e-18)
(0.602827 -0.220546 -1.37845e-18)
(0.64858 -0.195899 3.35147e-18)
(0.68836 -0.174283 -1.7219e-18)
(0.0837179 -0.198016 1.76737e-18)
(0.200001 -0.374303 -8.44272e-19)
(0.304957 -0.413909 -2.00883e-18)
(0.387314 -0.392122 1.53635e-18)
(0.45589 -0.352376 5.85165e-18)
(0.516055 -0.312811 -2.05312e-18)