/*--------------------------------*- C++ -*----------------------------------*\
  =========                 |
  \\      /  F ield         | OpenFOAM: The Open Source CFD Toolbox
   \\    /   O peration     | Website:  https://openfoam.org
    \\  /    A nd           | Version:  7
     \\/     M anipulation  |
\*---------------------------------------------------------------------------*/
FoamFile
{
    version     2.0;
    format      ascii;
    class       volScalarField;
    location    "33.9999";
    object      p;
}
// * * * * * * * * * * * * * * * * * * * * * * * * * * * * * * * * * * * * * //

dimensions      [0 2 -2 0 0 0 0];

internalField   nonuniform List<scalar> 
18750
(
-0.0227815
-0.0306983
-0.0445799
-0.0653702
-0.0918004
-0.123367
-0.159345
-0.199116
-0.242081
-0.287688
-0.335376
-0.384568
-0.43462
-0.484803
-0.534468
-0.0178225
-0.0258733
-0.0398053
-0.0605627
-0.0869137
-0.11838
-0.154248
-0.193981
-0.236945
-0.282611
-0.330417
-0.379801
-0.430139
-0.480741
-0.53093
-0.0160119
-0.0239966
-0.0377689
-0.058318
-0.0844453
-0.115696
-0.151387
-0.19098
-0.233868
-0.279528
-0.327412
-0.376953
-0.427511
-0.478382
-0.528861
-0.0172825
-0.0249803
-0.0384165
-0.0585952
-0.0843631
-0.115289
-0.150712
-0.190097
-0.232846
-0.278437
-0.326343
-0.375997
-0.426718
-0.477733
-0.528294
-0.0214538
-0.0286782
-0.0416025
-0.0612602
-0.0865434
-0.117041
-0.152112
-0.19122
-0.233763
-0.27922
-0.327071
-0.376762
-0.427569
-0.478617
-0.529097
-0.0282367
-0.0348286
-0.047088
-0.0660925
-0.0907792
-0.120754
-0.15539
-0.194148
-0.236415
-0.281655
-0.329356
-0.378974
-0.42976
-0.480738
-0.531011
-0.0372488
-0.0430842
-0.0545532
-0.0727972
-0.0967934
-0.12616
-0.160282
-0.198616
-0.24053
-0.285463
-0.332897
-0.382306
-0.432939
-0.48374
-0.533718
-0.0480376
-0.0530259
-0.0636143
-0.0810221
-0.104255
-0.132941
-0.166475
-0.204309
-0.245789
-0.29032
-0.337365
-0.386414
-0.43674
-0.487258
-0.536882
-0.0601132
-0.0641744
-0.0738432
-0.0903769
-0.112798
-0.140747
-0.173628
-0.210887
-0.251851
-0.295886
-0.342423
-0.39096
-0.44082
-0.490943
-0.540176
-0.072954
-0.0760277
-0.0847944
-0.100454
-0.122041
-0.149213
-0.181384
-0.217999
-0.258368
-0.301821
-0.347744
-0.395632
-0.444871
-0.494485
-0.543308
-0.0860123
-0.0880978
-0.0960307
-0.110849
-0.131602
-0.157974
-0.189394
-0.225304
-0.265006
-0.307797
-0.353021
-0.400148
-0.448627
-0.49762
-0.54602
-0.0987563
-0.0999277
-0.107142
-0.121176
-0.141116
-0.166685
-0.197326
-0.232482
-0.271451
-0.313513
-0.357971
-0.404261
-0.451869
-0.500127
-0.54809
-0.110691
-0.111107
-0.117759
-0.131082
-0.150248
-0.175027
-0.204875
-0.239241
-0.277423
-0.318696
-0.36234
-0.407753
-0.45442
-0.501829
-0.54932
-0.121403
-0.121332
-0.127562
-0.140251
-0.158702
-0.182718
-0.211771
-0.245324
-0.282677
-0.323112
-0.365903
-0.410428
-0.456137
-0.502594
-0.549515
-0.130549
-0.130386
-0.136262
-0.148418
-0.166228
-0.189519
-0.217782
-0.250512
-0.287004
-0.32656
-0.368464
-0.412102
-0.456896
-0.502355
-0.548452
-0.138049
-0.137972
-0.143627
-0.155375
-0.172629
-0.195234
-0.222716
-0.254629
-0.290231
-0.328875
-0.369862
-0.412603
-0.456552
-0.501089
-0.545998
-0.143892
-0.143944
-0.149532
-0.160975
-0.177759
-0.199718
-0.226421
-0.257535
-0.292212
-0.32992
-0.369968
-0.411787
-0.454921
-0.498727
-0.542239
-0.148137
-0.148324
-0.153936
-0.165163
-0.181524
-0.202875
-0.228788
-0.259128
-0.292831
-0.329586
-0.368674
-0.409553
-0.451845
-0.49506
-0.537429
-0.150955
-0.151234
-0.156846
-0.167912
-0.183901
-0.204674
-0.229879
-0.259212
-0.292002
-0.327781
-0.365905
-0.405819
-0.447247
-0.489899
-0.531477
-0.152621
-0.152842
-0.158337
-0.169234
-0.184877
-0.205068
-0.22951
-0.257886
-0.289685
-0.324435
-0.361575
-0.400534
-0.441051
-0.483242
-0.524015
-0.153438
-0.153325
-0.158524
-0.169203
-0.184485
-0.204066
-0.227697
-0.255103
-0.285848
-0.319507
-0.355637
-0.393662
-0.433168
-0.475042
-0.514894
-0.153644
-0.152819
-0.157555
-0.16794
-0.182804
-0.201727
-0.224491
-0.250868
-0.280492
-0.312976
-0.348026
-0.385175
-0.423514
-0.465196
-0.504112
-0.153338
-0.151407
-0.155615
-0.165605
-0.179948
-0.198143
-0.21997
-0.24523
-0.273642
-0.304852
-0.338673
-0.375047
-0.412042
-0.453604
-0.491657
-0.152471
-0.149174
-0.152944
-0.162378
-0.176055
-0.193432
-0.214237
-0.238266
-0.265345
-0.295184
-0.327529
-0.363243
-0.398744
-0.44022
-0.477484
-0.150952
-0.146368
-0.14983
-0.158461
-0.171286
-0.18774
-0.207424
-0.230078
-0.255646
-0.284079
-0.314584
-0.349716
-0.383635
-0.425037
-0.46163
-0.148788
-0.14349
-0.146553
-0.154069
-0.165849
-0.181255
-0.199684
-0.220814
-0.244599
-0.271621
-0.299922
-0.33441
-0.366744
-0.408012
-0.444265
-0.146144
-0.141087
-0.143317
-0.149456
-0.160013
-0.174204
-0.191197
-0.210659
-0.232282
-0.257886
-0.283692
-0.317298
-0.348191
-0.388961
-0.425597
-0.143331
-0.139355
-0.140257
-0.14494
-0.154108
-0.166874
-0.18215
-0.199836
-0.218858
-0.242851
-0.266191
-0.298273
-0.328361
-0.36774
-0.405662
-0.140805
-0.138073
-0.137568
-0.140903
-0.148494
-0.159597
-0.172788
-0.188514
-0.204637
-0.226509
-0.247666
-0.27727
-0.307544
-0.344489
-0.384769
-0.138749
-0.136952
-0.13554
-0.137686
-0.143522
-0.152746
-0.163429
-0.176884
-0.189956
-0.208864
-0.228643
-0.254038
-0.286178
-0.318254
-0.365703
-0.137197
-0.135893
-0.134351
-0.135435
-0.139489
-0.146699
-0.154507
-0.165075
-0.175395
-0.189934
-0.209474
-0.229224
-0.263852
-0.290257
-0.338245
-0.136079
-0.134996
-0.133796
-0.134105
-0.136619
-0.141749
-0.146574
-0.153383
-0.161155
-0.170579
-0.189442
-0.205396
-0.238168
-0.265481
-0.305953
-0.135287
-0.13437
-0.133559
-0.133576
-0.135009
-0.138089
-0.14004
-0.142502
-0.147262
-0.151659
-0.168954
-0.182163
-0.213939
-0.23988
-0.280647
-0.13471
-0.133977
-0.133527
-0.133664
-0.134532
-0.135789
-0.135075
-0.133086
-0.134264
-0.133647
-0.14927
-0.159756
-0.19309
-0.215819
-0.260208
-0.134227
-0.133718
-0.133658
-0.13412
-0.134822
-0.134703
-0.131582
-0.125702
-0.122645
-0.11787
-0.13006
-0.140046
-0.172775
-0.19649
-0.243521
-0.133715
-0.133477
-0.133842
-0.1347
-0.135414
-0.134454
-0.129217
-0.120635
-0.112588
-0.105243
-0.11173
-0.123465
-0.151839
-0.181931
-0.226908
-0.133069
-0.133141
-0.133917
-0.135154
-0.13591
-0.134533
-0.127641
-0.117555
-0.104708
-0.0956233
-0.0981872
-0.110865
-0.135465
-0.171928
-0.209698
-0.132221
-0.132616
-0.133722
-0.135254
-0.136035
-0.134463
-0.126582
-0.115664
-0.0996202
-0.0888366
-0.0898244
-0.103333
-0.124834
-0.163262
-0.197475
-0.131158
-0.131852
-0.133166
-0.134864
-0.135641
-0.133923
-0.125789
-0.11434
-0.0973384
-0.0854408
-0.0853609
-0.0999278
-0.11995
-0.155487
-0.189947
-0.129933
-0.130862
-0.132243
-0.133961
-0.134701
-0.13286
-0.12527
-0.113388
-0.0975043
-0.0859318
-0.0847868
-0.0989692
-0.119095
-0.150352
-0.184282
-0.12868
-0.129755
-0.131071
-0.132655
-0.133341
-0.131716
-0.125461
-0.114108
-0.0993409
-0.0895022
-0.0880956
-0.100342
-0.12021
-0.14771
-0.179426
-0.127595
-0.128733
-0.129914
-0.131348
-0.132079
-0.131125
-0.127186
-0.117416
-0.102979
-0.0948252
-0.0937437
-0.103869
-0.1222
-0.146475
-0.175174
-0.126876
-0.128019
-0.129087
-0.130488
-0.131434
-0.131402
-0.13034
-0.122312
-0.108414
-0.100648
-0.100026
-0.108423
-0.124546
-0.145896
-0.17133
-0.126644
-0.127761
-0.128789
-0.130241
-0.131548
-0.132435
-0.133498
-0.126437
-0.114191
-0.106506
-0.105991
-0.113048
-0.126924
-0.145429
-0.167745
-0.126905
-0.127966
-0.128997
-0.130527
-0.132185
-0.133952
-0.134293
-0.129691
-0.119195
-0.111987
-0.111334
-0.117203
-0.128982
-0.144843
-0.164324
-0.127564
-0.128533
-0.129554
-0.131088
-0.132894
-0.135525
-0.133763
-0.131319
-0.122954
-0.116685
-0.115853
-0.120614
-0.13055
-0.144021
-0.160948
-0.128477
-0.129313
-0.130252
-0.131653
-0.133667
-0.135379
-0.13383
-0.131653
-0.125387
-0.120345
-0.119443
-0.12324
-0.131531
-0.142874
-0.15757
-0.129503
-0.130168
-0.130925
-0.132003
-0.13467
-0.133509
-0.133903
-0.131563
-0.126768
-0.122911
-0.122063
-0.12506
-0.131904
-0.141402
-0.154131
-0.130538
-0.131014
-0.131458
-0.132332
-0.134889
-0.132611
-0.133346
-0.131161
-0.127399
-0.124482
-0.123734
-0.126113
-0.131697
-0.139587
-0.150596
-0.131529
-0.131818
-0.131769
-0.133081
-0.132658
-0.132893
-0.132669
-0.130546
-0.1275
-0.125226
-0.124558
-0.126442
-0.130931
-0.137454
-0.146943
-0.132475
-0.132548
-0.131983
-0.134176
-0.130113
-0.132645
-0.132
-0.129825
-0.127205
-0.125308
-0.124647
-0.12611
-0.129657
-0.135013
-0.143142
-0.133424
-0.133157
-0.132633
-0.134012
-0.130255
-0.131954
-0.131166
-0.129018
-0.12661
-0.124863
-0.124126
-0.125193
-0.12791
-0.132278
-0.139183
-0.134445
-0.133678
-0.134207
-0.131593
-0.13187
-0.13168
-0.130307
-0.128103
-0.125753
-0.123993
-0.123095
-0.123761
-0.125744
-0.129263
-0.135043
-0.135567
-0.134242
-0.136443
-0.128973
-0.132325
-0.131535
-0.129529
-0.127101
-0.124667
-0.122768
-0.121639
-0.12189
-0.123202
-0.125977
-0.130714
-0.136767
-0.135384
-0.137629
-0.129958
-0.132132
-0.131204
-0.128794
-0.126033
-0.123373
-0.121235
-0.119818
-0.119633
-0.120332
-0.122439
-0.12619
-0.138065
-0.137656
-0.136834
-0.134187
-0.132889
-0.130863
-0.127995
-0.12486
-0.121886
-0.119432
-0.117676
-0.117042
-0.117169
-0.118659
-0.121483
-0.13949
-0.141086
-0.134547
-0.137302
-0.134275
-0.130743
-0.127169
-0.123577
-0.120214
-0.117381
-0.115245
-0.114147
-0.113739
-0.114656
-0.116614
-0.141138
-0.144834
-0.133169
-0.137984
-0.135212
-0.130766
-0.126371
-0.122193
-0.118363
-0.115097
-0.112547
-0.110976
-0.110061
-0.110437
-0.111611
-0.143307
-0.147632
-0.135682
-0.13793
-0.135472
-0.130665
-0.125557
-0.120718
-0.116341
-0.112591
-0.109593
-0.107543
-0.106144
-0.106015
-0.106497
-0.146348
-0.148848
-0.141787
-0.13921
-0.135538
-0.130323
-0.124617
-0.119117
-0.114141
-0.109863
-0.106391
-0.103858
-0.101997
-0.101397
-0.10128
-0.150561
-0.14877
-0.148248
-0.142151
-0.136058
-0.129845
-0.123479
-0.117332
-0.111741
-0.106909
-0.102942
-0.0999236
-0.0976242
-0.0965884
-0.0959538
-0.156293
-0.148251
-0.15329
-0.14568
-0.137151
-0.129409
-0.122149
-0.115315
-0.109104
-0.103708
-0.0992375
-0.0957415
-0.0930263
-0.0915891
-0.090502
-0.163497
-0.150082
-0.15669
-0.148899
-0.138497
-0.12905
-0.120659
-0.113042
-0.106195
-0.100239
-0.0952678
-0.0913061
-0.0881983
-0.0863914
-0.0849041
-0.171851
-0.155923
-0.159366
-0.151349
-0.139651
-0.128638
-0.119001
-0.110504
-0.10299
-0.096476
-0.0910154
-0.086608
-0.0831327
-0.0809826
-0.0791343
-0.18054
-0.165425
-0.162435
-0.152995
-0.140265
-0.127952
-0.117109
-0.107681
-0.0994695
-0.0923984
-0.0864632
-0.0816333
-0.0778155
-0.0753493
-0.0731813
-0.188388
-0.176188
-0.166317
-0.154086
-0.140187
-0.126794
-0.114877
-0.104538
-0.0956171
-0.0879896
-0.0815937
-0.0763646
-0.0722294
-0.0694779
-0.0670399
-0.194387
-0.185437
-0.170448
-0.154838
-0.139435
-0.12505
-0.112205
-0.101024
-0.0914111
-0.0832353
-0.0763925
-0.0707839
-0.0663528
-0.063351
-0.0607057
-0.198004
-0.191801
-0.173701
-0.155176
-0.138093
-0.122699
-0.109026
-0.0970882
-0.0868247
-0.0781208
-0.0708465
-0.0648752
-0.0601653
-0.0569456
-0.0541577
-0.199537
-0.195334
-0.17556
-0.154888
-0.136204
-0.119767
-0.10531
-0.0926898
-0.0818302
-0.0726298
-0.0649448
-0.0586281
-0.0536526
-0.0502353
-0.0473459
-0.199971
-0.196729
-0.175999
-0.153817
-0.133746
-0.116276
-0.101053
-0.0878028
-0.0764017
-0.0667442
-0.0586759
-0.0520376
-0.0468143
-0.0432052
-0.0401789
-0.200098
-0.196722
-0.175184
-0.151897
-0.130669
-0.112224
-0.0962528
-0.0824108
-0.0705176
-0.0604458
-0.0520277
-0.045101
-0.0396632
-0.0358705
-0.0325397
-0.200355
-0.195864
-0.173334
-0.149127
-0.126924
-0.107587
-0.0909005
-0.0765008
-0.0641598
-0.0537175
-0.0449881
-0.0378147
-0.0322169
-0.0282845
-0.0243395
-0.200851
-0.194449
-0.17062
-0.145535
-0.122475
-0.102334
-0.0849776
-0.0700579
-0.0573127
-0.0465464
-0.03755
-0.0301781
-0.0244852
-0.0205
-0.0156099
-0.201447
-0.192607
-0.16716
-0.141145
-0.11729
-0.0964246
-0.078457
-0.0630637
-0.0499634
-0.0389259
-0.0297153
-0.0222029
-0.0164768
-0.0124836
-0.00658595
-0.201845
-0.190358
-0.163004
-0.135962
-0.11134
-0.0898189
-0.0713068
-0.0554992
-0.0421042
-0.0308574
-0.0214956
-0.0139168
-0.00821987
-0.00406947
0.00238939
-0.201687
-0.187597
-0.158133
-0.129969
-0.104587
-0.0824765
-0.0634966
-0.0473512
-0.0337369
-0.0223495
-0.0129072
-0.00534939
0.000258414
0.00482089
0.0112707
-0.200665
-0.184035
-0.152457
-0.123121
-0.0969958
-0.0743639
-0.0550065
-0.0386198
-0.024872
-0.0134115
-0.00396516
0.00350353
0.0090548
0.0140433
0.0201373
-0.198489
-0.179375
-0.145845
-0.11536
-0.0885316
-0.065463
-0.0458361
-0.02932
-0.0155179
-0.00403959
0.00534001
0.0126694
0.0182127
0.02347
0.0290598
-0.19491
-0.173401
-0.138162
-0.106624
-0.0791685
-0.0557793
-0.0360069
-0.0194657
-0.00564616
0.00577355
0.01501
0.0221697
0.0277194
0.0330433
0.038075
-0.189733
-0.165961
-0.129288
-0.0968615
-0.0689008
-0.0453396
-0.0255444
-0.00900163
0.00474598
0.0160208
0.0250448
0.0320086
0.0375288
0.0427657
0.0471973
-0.182817
-0.156964
-0.119126
-0.0860369
-0.0577543
-0.0341579
-0.0143844
0.00206746
0.0156494
0.0266915
0.0354397
0.0421762
0.0476057
0.0526559
0.0564338
-0.174077
-0.146385
-0.107594
-0.074142
-0.0457636
-0.0221656
-0.00252217
0.0137307
0.0270497
0.0377727
0.0461841
0.0526577
0.0579367
0.0627269
0.0657817
-0.16348
-0.134274
-0.0946388
-0.0611828
-0.0328537
-0.0093726
0.0100295
0.025973
0.0389297
0.0492491
0.0572655
0.0634393
0.0685121
0.0729722
0.0752159
-0.151029
-0.120714
-0.080273
-0.0470851
-0.0190088
0.00420084
0.0232471
0.0387735
0.0512695
0.0611048
0.0686732
0.0745101
0.0793108
0.0833423
0.0846876
-0.136756
-0.105711
-0.0646124
-0.0318053
-0.00423185
0.0185303
0.037101
0.0521055
0.0640467
0.0733253
0.0804013
0.0858608
0.0902932
0.0937324
0.0941007
-0.120732
-0.0890758
-0.0478203
-0.0154466
0.0114462
0.0335879
0.0515576
0.0659379
0.0772372
0.0858975
0.0924453
0.0974767
0.101402
0.103996
0.10321
-0.103072
-0.0705016
-0.0301305
0.00184505
0.027965
0.0493378
0.0665805
0.0802364
0.0908158
0.0988076
0.104795
0.109324
0.11256
0.113966
0.111597
-0.0838967
-0.0502083
-0.0113938
0.0199632
0.0452439
0.0657314
0.0821292
0.0949653
0.104756
0.112037
0.117423
0.121342
0.123664
0.123492
0.119126
-0.0632391
-0.028591
0.00844497
0.0388533
0.063201
0.0827088
0.0981579
0.110087
0.119028
0.125558
0.130278
0.13344
0.13461
0.132639
0.126623
-0.0410339
-0.00611395
0.0292947
0.0584833
0.0817662
0.100204
0.114615
0.12556
0.133598
0.139329
0.143287
0.145525
0.145371
0.141883
0.135719
-0.0174221
0.0170795
0.051003
0.0788015
0.100875
0.118151
0.131444
0.14134
0.148425
0.153296
0.156383
0.157552
0.156054
0.151507
0.147976
0.00738512
0.0409837
0.0734244
0.0997246
0.120459
0.13648
0.148585
0.157375
0.163457
0.1674
0.169516
0.169547
0.166855
0.161782
0.160005
0.0331811
0.0655582
0.0964345
0.121151
0.140442
0.155123
0.165976
0.17361
0.178637
0.181582
0.182655
0.181562
0.177897
0.172667
0.17151
0.0597806
0.0907182
0.11992
0.142975
0.160739
0.174007
0.183552
0.189983
0.193906
0.195792
0.195786
0.19362
0.189128
0.183776
0.182551
0.0870076
0.116346
0.143769
0.16509
0.18126
0.193055
0.201244
0.206431
0.209204
0.209989
0.208896
0.20572
0.200508
0.194945
0.193226
0.114695
0.14231
0.167866
0.187391
0.201913
0.212188
0.218981
0.222887
0.224475
0.224133
0.221956
0.217809
0.211898
0.205994
0.203644
0.142678
0.16847
0.192093
0.209771
0.222604
0.231323
0.23669
0.239288
0.239665
0.238182
0.234937
0.229853
0.223246
0.216879
0.213814
0.170796
0.194689
0.21633
0.232126
0.243239
0.250379
0.254297
0.255568
0.254718
0.25209
0.247783
0.241771
0.234452
0.227563
0.223762
0.198892
0.220827
0.240456
0.25435
0.263725
0.26927
0.271729
0.271661
0.26958
0.26581
0.260457
0.25353
0.245482
0.238008
0.233452
0.22681
0.24675
0.264352
0.276337
0.283969
0.287916
0.288911
0.287505
0.284193
0.279287
0.272895
0.265059
0.256281
0.248207
0.242877
0.2544
0.272326
0.2879
0.297983
0.303877
0.306232
0.305772
0.303035
0.298502
0.292474
0.285058
0.276325
0.266811
0.258108
0.251998
0.281514
0.297425
0.310986
0.319187
0.323361
0.32414
0.32224
0.318186
0.312448
0.305312
0.296889
0.287277
0.277042
0.267704
0.260793
0.308011
0.321923
0.333499
0.339848
0.34233
0.341561
0.338245
0.332899
0.325979
0.317758
0.30835
0.297875
0.286925
0.276942
0.269232
0.333753
0.345699
0.35533
0.359872
0.3607
0.358418
0.353719
0.347111
0.339035
0.329755
0.319391
0.308085
0.296439
0.285808
0.277288
0.358608
0.368639
0.376377
0.379166
0.378388
0.374637
0.368597
0.360764
0.351568
0.341263
0.329972
0.31786
0.305538
0.294262
0.284938
0.38245
0.39063
0.39654
0.39764
0.395315
0.390147
0.382813
0.373799
0.363523
0.352231
0.340054
0.327174
0.314198
0.30228
0.292158
0.40516
0.41157
0.415726
0.415211
0.411404
0.404881
0.39631
0.386166
0.374856
0.362619
0.349594
0.335984
0.322382
0.309835
0.298927
0.426625
0.431357
0.433845
0.431798
0.426584
0.418774
0.409027
0.397809
0.385518
0.372387
0.358563
0.344262
0.330061
0.316899
0.305225
0.446738
0.4499
0.450814
0.447326
0.440788
0.431767
0.420913
0.408683
0.395466
0.381493
0.36692
0.351976
0.337209
0.323451
0.311035
0.465402
0.467112
0.466556
0.461726
0.453953
0.443802
0.431915
0.418742
0.404662
0.389905
0.374637
0.359095
0.343797
0.329468
0.316341
0.482522
0.482913
0.480999
0.474933
0.466021
0.454827
0.441987
0.427943
0.413066
0.397588
0.381683
0.365593
0.349802
0.33493
0.321132
0.498016
0.497234
0.49408
0.486888
0.476938
0.464794
0.451086
0.436249
0.420646
0.404512
0.38803
0.371445
0.3552
0.339821
0.325394
0.511807
0.510011
0.50574
0.497537
0.486656
0.47366
0.459173
0.443623
0.42737
0.410649
0.393653
0.376627
0.359972
0.344125
0.329118
0.523839
0.521182
0.515926
0.50683
0.49513
0.481384
0.466213
0.450036
0.433211
0.415974
0.398529
0.381118
0.364098
0.347827
0.332299
0.534074
0.53068
0.524585
0.514724
0.502321
0.487933
0.472174
0.455459
0.438143
0.420466
0.402639
0.384899
0.367563
0.350917
0.33493
0.542467
0.538457
0.531674
0.52118
0.508197
0.493276
0.47703
0.45987
0.442147
0.424105
0.405963
0.387953
0.370353
0.353385
0.337011
0.548978
0.544477
0.537159
0.526169
0.512728
0.497389
0.480759
0.463248
0.445205
0.426876
0.408488
0.390265
0.372454
0.355226
0.338543
0.553572
0.548715
0.541011
0.529664
0.515894
0.500252
0.483344
0.465578
0.447302
0.428767
0.410201
0.391825
0.373858
0.356437
0.339529
0.556221
0.551148
0.543212
0.531648
0.517676
0.501848
0.48477
0.466848
0.448429
0.429767
0.411093
0.392624
0.374561
0.357021
0.339977
0.556909
0.551763
0.543748
0.532107
0.518064
0.50217
0.48503
0.46705
0.448579
0.42987
0.411157
0.392654
0.374556
0.356973
0.339885
0.555625
0.550552
0.542612
0.531037
0.517053
0.501211
0.484118
0.46618
0.447747
0.429073
0.41039
0.391912
0.373837
0.356286
0.339248
0.552371
0.547516
0.539804
0.528437
0.514642
0.498971
0.482034
0.464238
0.445934
0.427376
0.408792
0.390399
0.372409
0.354968
0.338067
0.547157
0.54266
0.53533
0.524313
0.510837
0.495456
0.478783
0.461228
0.443144
0.424782
0.406368
0.388121
0.370278
0.353022
0.336345
0.54
0.535998
0.529203
0.518677
0.505649
0.490676
0.474374
0.457158
0.439383
0.421298
0.403122
0.385081
0.367444
0.350443
0.334075
0.530928
0.52755
0.521445
0.511548
0.499094
0.484645
0.46882
0.452039
0.434661
0.416932
0.399065
0.381289
0.363913
0.347231
0.331253
0.519974
0.517343
0.512083
0.502951
0.491196
0.477384
0.462139
0.445888
0.428993
0.411698
0.394208
0.376757
0.359695
0.343388
0.327874
0.507173
0.505418
0.501154
0.492919
0.481983
0.468917
0.454353
0.438724
0.422396
0.405612
0.388567
0.371498
0.354801
0.338922
0.323938
0.492554
0.491836
0.488704
0.481489
0.471488
0.459275
0.445489
0.43057
0.414892
0.398692
0.382159
0.365532
0.349247
0.333843
0.319448
0.476167
0.476651
0.47478
0.468704
0.459751
0.448493
0.435579
0.421456
0.406504
0.39096
0.375005
0.358875
0.343048
0.328161
0.31441
0.458079
0.459921
0.459435
0.454615
0.446815
0.43661
0.424656
0.41141
0.397259
0.382442
0.367128
0.35155
0.336225
0.321891
0.308831
0.438368
0.441709
0.442727
0.439274
0.432729
0.42367
0.412762
0.40047
0.387192
0.373166
0.358554
0.34358
0.328796
0.31505
0.302721
0.417118
0.422088
0.424721
0.422741
0.417547
0.409721
0.399938
0.388674
0.376334
0.363161
0.349308
0.334991
0.320787
0.307655
0.296092
0.394423
0.401138
0.405489
0.405082
0.401327
0.394816
0.386233
0.376063
0.364724
0.352464
0.339425
0.32581
0.31222
0.299726
0.28896
0.370382
0.378946
0.38511
0.386366
0.384134
0.379013
0.371697
0.362684
0.352403
0.341106
0.328931
0.316065
0.303124
0.291286
0.281339
0.345101
0.355606
0.363668
0.366669
0.366034
0.362371
0.356385
0.348585
0.339413
0.329131
0.317868
0.305793
0.293527
0.282359
0.273248
0.318695
0.33122
0.341252
0.346072
0.3471
0.344956
0.340356
0.33382
0.325803
0.316577
0.306266
0.295019
0.283457
0.27297
0.264708
0.291285
0.305891
0.317957
0.32466
0.327409
0.326836
0.323669
0.31844
0.311618
0.303487
0.294168
0.283787
0.272954
0.26315
0.255739
0.262996
0.279733
0.293884
0.302524
0.30704
0.308083
0.30639
0.302506
0.296915
0.289911
0.281614
0.272125
0.262036
0.25292
0.246368
0.233964
0.252861
0.269137
0.279755
0.286078
0.288771
0.288584
0.286075
0.281741
0.27589
0.268642
0.260077
0.250758
0.242325
0.23662
0.204325
0.225399
0.243825
0.256453
0.264608
0.268977
0.270322
0.26921
0.266156
0.261482
0.255306
0.247681
0.239134
0.231374
0.226521
0.174224
0.19747
0.21806
0.232716
0.242721
0.248782
0.251672
0.251973
0.250214
0.24673
0.24164
0.234972
0.227216
0.220127
0.216106
0.143811
0.169207
0.191958
0.208649
0.220507
0.228266
0.232708
0.234429
0.233974
0.231695
0.227708
0.222009
0.215034
0.208583
0.205392
0.113237
0.140743
0.165638
0.184356
0.198062
0.207513
0.213503
0.216642
0.217492
0.216422
0.213544
0.208817
0.202622
0.196799
0.194424
0.0826607
0.112216
0.139222
0.159944
0.175478
0.186606
0.194132
0.198677
0.200826
0.20097
0.199216
0.195475
0.190041
0.184776
0.183203
0.0522419
0.0837654
0.112832
0.135521
0.152851
0.16563
0.174669
0.1806
0.184032
0.185383
0.184762
0.182013
0.177316
0.172544
0.171762
0.0221441
0.0555335
0.0865907
0.111195
0.130277
0.144671
0.155189
0.162477
0.167163
0.169709
0.170237
0.168517
0.164559
0.160141
0.160058
-0.00746498
0.0276622
0.0606176
0.0870712
0.107851
0.123811
0.135768
0.144373
0.150276
0.153989
0.15567
0.15502
0.151815
0.147591
0.148055
-0.0364145
0.00028743
0.0350303
0.0632583
0.0856672
0.103132
0.116478
0.126357
0.133428
0.13826
0.141087
0.141579
0.139244
0.135099
0.135587
-0.0645241
-0.0264688
0.00994181
0.0398641
0.0638184
0.082712
0.0973881
0.108493
0.11668
0.122566
0.126497
0.128187
0.126879
0.122832
0.122462
-0.0916035
-0.0525175
-0.0145345
0.0169982
0.0423926
0.0626264
0.0785663
0.0908451
0.100093
0.106957
0.111914
0.114815
0.114778
0.111234
0.108612
-0.117439
-0.0778158
-0.038275
-0.00523231
0.0214701
0.0429459
0.060076
0.0734707
0.0837286
0.0914974
0.0973682
0.101398
0.102799
0.10034
0.0944568
-0.14181
-0.102364
-0.0611331
-0.0267353
0.00112128
0.0237395
0.0419785
0.0564227
0.0676396
0.0762511
0.0829163
0.0879128
0.0907213
0.0898977
0.0841812
-0.164548
-0.126056
-0.0829456
-0.0474513
-0.0185889
0.00507565
0.024332
0.039748
0.0518701
0.061276
0.0686367
0.0744216
0.0784545
0.0796297
0.0759696
-0.185709
-0.148441
-0.103594
-0.0673484
-0.0375918
-0.0129777
0.00719081
0.0234888
0.0364554
0.0466167
0.0546104
0.0610372
0.0660556
0.0690121
0.0677461
-0.205287
-0.169082
-0.1231
-0.0863805
-0.055807
-0.0303573
-0.00939642
0.00768443
0.0214256
0.0323036
0.0408952
0.0478603
0.0536379
0.0579435
0.0585028
-0.223165
-0.187711
-0.141603
-0.104451
-0.0731507
-0.04701
-0.0253868
-0.00762807
0.00680774
0.018355
0.027518
0.0349502
0.0412942
0.0465538
0.0484031
-0.239212
-0.204534
-0.158956
-0.121418
-0.0895548
-0.0628954
-0.0407426
-0.0224135
-0.00737229
0.00478279
0.0144843
0.0223316
0.0290868
0.0350077
0.0379409
-0.253337
-0.219776
-0.174987
-0.137163
-0.104979
-0.0779828
-0.0554299
-0.0366398
-0.0210902
-0.00840211
0.00179251
0.0100113
0.0170678
0.0234624
0.0273996
-0.265494
-0.23348
-0.189573
-0.151687
-0.119409
-0.0922474
-0.0694193
-0.0502788
-0.0343234
-0.021187
-0.0105554
-0.00200537
0.00528025
0.0120401
0.0168844
-0.275668
-0.245578
-0.202659
-0.165076
-0.132852
-0.105672
-0.0826877
-0.0633078
-0.047052
-0.0335567
-0.0225497
-0.0137076
-0.0062497
0.000802794
0.00645026
-0.28388
-0.256007
-0.214275
-0.177329
-0.14538
-0.11825
-0.0952216
-0.07571
-0.0592589
-0.0454957
-0.0341765
-0.0250798
-0.0175107
-0.0102387
-0.003869
-0.2902
-0.264769
-0.224496
-0.188451
-0.156996
-0.130028
-0.107023
-0.0874759
-0.0709297
-0.0569905
-0.0454225
-0.0361044
-0.0284912
-0.0210978
-0.0140651
-0.29475
-0.271933
-0.233419
-0.198479
-0.167673
-0.141015
-0.118131
-0.0986086
-0.0820528
-0.0680297
-0.0562804
-0.0467683
-0.0391601
-0.0317956
-0.0241412
-0.297718
-0.277636
-0.241167
-0.207469
-0.177412
-0.15119
-0.128552
-0.109152
-0.0926239
-0.0786034
-0.0667495
-0.0570709
-0.0494668
-0.0423445
-0.0341057
-0.299344
-0.282078
-0.247887
-0.215489
-0.186235
-0.160543
-0.138269
-0.119097
-0.102685
-0.0887055
-0.0768341
-0.0670315
-0.0593871
-0.052701
-0.043986
-0.299932
-0.285547
-0.253736
-0.222611
-0.194175
-0.169085
-0.147273
-0.12843
-0.112224
-0.0983578
-0.0865431
-0.0766815
-0.0689453
-0.0627454
-0.0538505
-0.299791
-0.288422
-0.258847
-0.228893
-0.201272
-0.176846
-0.155579
-0.137146
-0.121227
-0.107554
-0.095872
-0.0860458
-0.0782147
-0.0723088
-0.0638037
-0.299311
-0.290917
-0.263284
-0.234369
-0.207564
-0.183866
-0.163216
-0.14526
-0.129693
-0.116283
-0.104802
-0.0950907
-0.0872358
-0.0813267
-0.0739016
-0.29888
-0.293078
-0.267032
-0.239044
-0.213085
-0.190188
-0.170218
-0.152791
-0.137629
-0.124539
-0.113318
-0.103786
-0.0959831
-0.0900554
-0.0838082
-0.298765
-0.294842
-0.269999
-0.242898
-0.217866
-0.195853
-0.176617
-0.15976
-0.145047
-0.132325
-0.12141
-0.112115
-0.104443
-0.0986015
-0.0931717
-0.299021
-0.295995
-0.272021
-0.245891
-0.221935
-0.2009
-0.182439
-0.166186
-0.151964
-0.139652
-0.129084
-0.120074
-0.112602
-0.106921
-0.10189
-0.29938
-0.296093
-0.27287
-0.247993
-0.225335
-0.20536
-0.187697
-0.17208
-0.158395
-0.146537
-0.136353
-0.127665
-0.120437
-0.114935
-0.110041
-0.29917
-0.294379
-0.272284
-0.249209
-0.228116
-0.209248
-0.192394
-0.177454
-0.164359
-0.152999
-0.14323
-0.13489
-0.127924
-0.122601
-0.117766
-0.297362
-0.289966
-0.270107
-0.249637
-0.230324
-0.212553
-0.196528
-0.182327
-0.169882
-0.159059
-0.149726
-0.141751
-0.135057
-0.129927
-0.125185
-0.292927
-0.282214
-0.26648
-0.249469
-0.231957
-0.215238
-0.200104
-0.18673
-0.17499
-0.164733
-0.155856
-0.148259
-0.141849
-0.136941
-0.132367
-0.285834
-0.271455
-0.262175
-0.248921
-0.23294
-0.217275
-0.203164
-0.190711
-0.179716
-0.170041
-0.161632
-0.15443
-0.148325
-0.143676
-0.139339
-0.276964
-0.259772
-0.258498
-0.247988
-0.233174
-0.21871
-0.205792
-0.194327
-0.184085
-0.174996
-0.16707
-0.160286
-0.154509
-0.150154
-0.14611
-0.267597
-0.250501
-0.255792
-0.246369
-0.23268
-0.219698
-0.208108
-0.197631
-0.18812
-0.179615
-0.172186
-0.165846
-0.160427
-0.156394
-0.152681
-0.258959
-0.245761
-0.253249
-0.243824
-0.231688
-0.220478
-0.210218
-0.200655
-0.191837
-0.183916
-0.177
-0.171129
-0.166095
-0.162412
-0.159065
-0.251744
-0.24521
-0.249476
-0.240495
-0.230628
-0.22128
-0.212181
-0.203413
-0.195255
-0.187922
-0.18153
-0.176148
-0.171527
-0.168224
-0.165289
-0.246248
-0.246203
-0.243659
-0.237012
-0.229985
-0.222202
-0.21398
-0.205914
-0.198404
-0.191662
-0.185795
-0.180912
-0.176728
-0.173843
-0.171385
-0.242272
-0.246221
-0.236483
-0.234493
-0.230011
-0.223139
-0.215573
-0.208187
-0.201323
-0.19516
-0.189806
-0.185425
-0.181702
-0.179274
-0.177374
-0.239433
-0.244509
-0.23066
-0.233952
-0.230391
-0.223874
-0.216965
-0.210291
-0.204052
-0.198434
-0.193567
-0.189687
-0.186447
-0.184514
-0.18327
-0.237398
-0.241135
-0.229255
-0.234475
-0.230346
-0.224338
-0.218258
-0.212285
-0.206608
-0.201486
-0.197076
-0.193693
-0.190962
-0.189557
-0.189066
-0.235793
-0.236996
-0.231654
-0.233434
-0.229468
-0.224715
-0.219561
-0.214198
-0.208994
-0.204311
-0.200326
-0.197431
-0.195237
-0.194396
-0.194747
-0.234348
-0.233556
-0.233999
-0.229546
-0.228232
-0.225295
-0.220897
-0.216006
-0.211195
-0.206895
-0.203297
-0.200886
-0.199263
-0.199022
-0.200287
-0.233022
-0.231437
-0.234409
-0.225287
-0.227938
-0.226071
-0.222177
-0.217699
-0.213206
-0.209219
-0.205967
-0.204027
-0.203019
-0.20343
-0.205666
-0.231761
-0.230429
-0.232716
-0.225229
-0.228496
-0.22674
-0.223385
-0.219288
-0.21501
-0.211252
-0.208297
-0.206818
-0.20648
-0.207604
-0.210874
-0.230564
-0.229887
-0.23024
-0.228607
-0.227837
-0.227146
-0.224657
-0.220807
-0.216586
-0.212948
-0.210235
-0.209205
-0.209607
-0.211541
-0.215911
-0.229469
-0.229312
-0.228676
-0.230845
-0.225947
-0.227794
-0.225993
-0.222204
-0.217896
-0.214249
-0.211711
-0.21113
-0.212355
-0.215226
-0.220797
-0.228432
-0.228619
-0.228097
-0.230505
-0.22636
-0.228848
-0.227225
-0.22345
-0.218894
-0.215066
-0.21263
-0.212513
-0.214683
-0.218659
-0.225544
-0.227386
-0.227781
-0.227862
-0.229226
-0.229494
-0.229141
-0.228196
-0.224551
-0.219517
-0.215277
-0.212881
-0.213286
-0.216543
-0.22183
-0.230184
-0.226291
-0.226876
-0.227453
-0.228412
-0.23158
-0.228838
-0.229151
-0.225456
-0.21963
-0.21472
-0.212326
-0.213375
-0.217907
-0.224733
-0.234733
-0.22516
-0.225932
-0.226801
-0.228048
-0.230916
-0.230044
-0.229826
-0.225996
-0.219059
-0.213206
-0.210847
-0.212722
-0.218732
-0.227365
-0.239228
-0.224066
-0.224996
-0.226018
-0.227558
-0.229704
-0.232053
-0.229607
-0.226039
-0.217536
-0.210547
-0.208342
-0.211293
-0.219012
-0.22971
-0.243704
-0.223135
-0.224177
-0.225242
-0.22685
-0.228752
-0.231594
-0.22931
-0.225417
-0.21472
-0.206642
-0.204798
-0.20906
-0.218736
-0.231805
-0.248207
-0.222526
-0.223637
-0.224677
-0.226215
-0.227853
-0.22954
-0.229448
-0.223066
-0.210341
-0.201565
-0.200273
-0.206068
-0.217945
-0.233671
-0.252812
-0.22239
-0.223536
-0.224556
-0.225966
-0.227123
-0.227658
-0.227849
-0.218783
-0.204569
-0.195611
-0.194906
-0.202384
-0.216768
-0.235422
-0.257585
-0.222814
-0.223968
-0.225023
-0.226357
-0.227091
-0.22646
-0.22389
-0.213785
-0.197992
-0.189241
-0.188975
-0.198325
-0.215406
-0.237212
-0.262658
-0.223765
-0.224897
-0.226067
-0.227409
-0.227926
-0.22623
-0.220413
-0.208184
-0.191962
-0.183019
-0.182888
-0.194471
-0.214262
-0.2393
-0.268152
-0.225095
-0.226147
-0.22744
-0.229039
-0.229408
-0.226989
-0.218659
-0.204691
-0.187993
-0.177678
-0.177734
-0.191809
-0.213725
-0.242261
-0.274218