/*--------------------------------*- C++ -*----------------------------------*\
  =========                 |
  \\      /  F ield         | OpenFOAM: The Open Source CFD Toolbox
   \\    /   O peration     | Website:  https://openfoam.org
    \\  /    A nd           | Version:  7
     \\/     M anipulation  |
\*---------------------------------------------------------------------------*/
FoamFile
{
    version     2.0;
    format      ascii;
    class       surfaceScalarField;
    location    "33.9999";
    object      phi;
}
// * * * * * * * * * * * * * * * * * * * * * * * * * * * * * * * * * * * * * //

dimensions      [0 3 -1 0 0 0 0];

internalField   nonuniform List<scalar> 
37105
(
-9.77969e-06
-1.12607e-05
2.10403e-05
-2.31192e-05
-1.31605e-05
2.65e-05
-3.70151e-05
-1.13614e-05
2.52574e-05
-5.15412e-05
-9.18319e-06
2.37092e-05
-6.6806e-05
-6.55986e-06
2.18247e-05
-8.28789e-05
-3.44058e-06
1.95135e-05
-9.98241e-05
1.88386e-07
1.67568e-05
-0.00011768
4.31475e-06
1.35413e-05
-0.000136494
8.93202e-06
9.88152e-06
-0.000156309
1.40027e-05
5.81229e-06
-0.00017715
1.94962e-05
1.34482e-06
-0.000199092
2.53213e-05
-3.3788e-06
-0.000222128
3.14478e-05
-8.41244e-06
-0.000246263
3.77807e-05
-1.36455e-05
4.42182e-05
-1.88281e-05
-0.000271653
-9.80906e-06
-1.45159e-06
-2.31714e-05
2.01839e-07
-3.70928e-05
2.56003e-06
-5.16511e-05
5.37511e-06
-6.69557e-05
8.7447e-06
-8.30734e-05
1.26771e-05
-0.000100064
1.71793e-05
-0.000117971
2.22214e-05
-0.000136826
2.77873e-05
-0.00015666
3.38369e-05
-0.000177493
4.03289e-05
-0.000199355
4.71834e-05
-0.000222237
5.433e-05
-0.000246134
6.16773e-05
6.91916e-05
-0.000271108
-9.69403e-06
8.24244e-06
-2.29403e-05
1.34481e-05
-3.67506e-05
1.63703e-05
-5.11931e-05
1.98176e-05
-6.63723e-05
2.39239e-05
-8.23481e-05
2.86529e-05
-9.91719e-05
3.40031e-05
-0.000116872
3.99214e-05
-0.000135465
4.63805e-05
-0.000154957
5.33287e-05
-0.000175348
6.07202e-05
-0.000196628
6.84629e-05
-0.000218761
7.64633e-05
-0.000241708
8.46244e-05
9.29813e-05
-0.000265498
-9.43464e-06
1.76771e-05
-2.24242e-05
2.64377e-05
-3.59905e-05
2.99367e-05
-5.01714e-05
3.39985e-05
-6.50632e-05
3.88158e-05
-8.07136e-05
4.43032e-05
-9.71584e-05
5.0448e-05
-0.000114405
5.71683e-05
-0.000132447
6.44221e-05
-0.000151257
7.21388e-05
-0.000170804
8.02667e-05
-0.000191041
8.87e-05
-0.000211905
9.73277e-05
-0.000233322
0.000106042
0.000114897
-0.000255238
-9.03358e-06
2.67106e-05
-2.16298e-05
3.90339e-05
-3.48216e-05
4.31285e-05
-4.86001e-05
4.7777e-05
-6.30501e-05
5.32658e-05
-7.82014e-05
5.94545e-05
-9.40696e-05
6.63162e-05
-0.000110638
7.37363e-05
-0.000127869
8.16535e-05
-0.000145703
8.99729e-05
-0.000164071
9.86344e-05
-0.000182894
0.000107523
-0.000202087
0.000116521
-0.000221549
0.000125503
0.000134507
-0.000241159
-8.49626e-06
3.52069e-05
-2.05671e-05
5.11047e-05
-3.32594e-05
5.58208e-05
-4.65035e-05
6.10211e-05
-6.03689e-05
6.71312e-05
-7.48639e-05
7.39495e-05
-8.99804e-05
8.14327e-05
-0.000105675
8.94308e-05
-0.000121882
9.78601e-05
-0.000138506
0.000106597
-0.000155444
0.000115573
-0.000172591
0.00012467
-0.000189849
0.000133779
-0.000207105
0.000142759
0.000151611
-0.000224209
-7.83138e-06
4.30383e-05
-1.92489e-05
6.25222e-05
-3.13241e-05
6.7896e-05
-4.39137e-05
7.36107e-05
-5.70671e-05
8.02845e-05
-7.07689e-05
8.76514e-05
-8.49859e-05
9.56496e-05
-9.96488e-05
0.000104094
-0.000114665
0.000112876
-0.00012991
0.000121843
-0.000145255
0.000130917
-0.000160573
0.000139988
-0.000175762
0.000148969
-0.000190721
0.000157717
0.00016619
-0.0002053
-7.06055e-06
5.00989e-05
-1.769e-05
7.31516e-05
-2.904e-05
7.9246e-05
-4.08693e-05
8.54399e-05
-5.32007e-05
9.2616e-05
-6.59952e-05
0.000100446
-7.91944e-05
0.000108849
-9.27056e-05
0.000117605
-0.000106413
0.000126584
-0.000120174
0.000135604
-0.000133837
0.00014458
-0.000147263
0.000153415
-0.000160357
0.000162063
-0.000173043
0.000170403
0.000178349
-0.000185202
-6.17162e-06
5.62705e-05
-1.59e-05
8.288e-05
-2.64338e-05
8.97799e-05
-3.74131e-05
9.64192e-05
-4.88313e-05
0.000104034
-6.0627e-05
0.000112241
-7.27189e-05
0.000120941
-8.4994e-05
0.00012988
-9.73197e-05
0.000138909
-0.000109541
0.000147825
-0.000121495
0.000156534
-0.000133039
0.000164958
-0.000144083
0.000173108
-0.000154592
0.000180911
0.000188249
-0.000164491
-5.16045e-06
6.14309e-05
-1.38917e-05
9.16112e-05
-2.35338e-05
9.94221e-05
-3.35906e-05
0.000106476
-4.40228e-05
0.000114466
-5.47501e-05
0.000122969
-6.56719e-05
0.000131863
-7.66585e-05
0.000140867
-8.75653e-05
0.000149816
-9.82322e-05
0.000158492
-0.000108497
0.000166799
-0.000118214
0.000174675
-0.0001273
0.000182194
-0.000135753
0.000189364
0.000196056
-0.00014356
-4.04283e-06
6.54738e-05
-1.16836e-05
9.92519e-05
-2.03712e-05
0.00010811
-2.94487e-05
0.000115553
-3.88392e-05
0.000123857
-4.84489e-05
0.000132578
-5.81609e-05
0.000141575
-6.78333e-05
0.000150539
-7.7313e-05
0.000159296
-8.64405e-05
0.000167619
-9.50614e-05
0.00017542
-0.000103033
0.000182647
-0.000110268
0.000189428
-0.000116784
0.00019588
0.000201919
-0.000122647
-2.82938e-06
6.83031e-05
-9.29298e-06
0.000105716
-1.69785e-05
0.000115795
-2.50341e-05
0.000123609
-3.33435e-05
0.000132166
-4.18039e-05
0.000141039
-5.02858e-05
0.000150056
-5.86386e-05
0.000158892
-6.67047e-05
0.000167362
-7.43269e-05
0.000175241
-8.13627e-05
0.000182456
-8.7683e-05
0.000188968
-9.31837e-05
0.000194929
-9.78651e-05
0.000200561
0.000205943
-0.000101888
-1.52259e-06
6.98257e-05
-6.75001e-06
0.000110943
-1.33928e-05
0.000122438
-2.03929e-05
0.000130609
-2.75961e-05
0.000139369
-3.48911e-05
0.000148334
-4.21377e-05
0.000157303
-4.91812e-05
0.000165935
-5.58617e-05
0.000174042
-6.20244e-05
0.000181404
-6.75364e-05
0.000187968
-7.22904e-05
0.000193722
-7.61739e-05
0.000198812
-7.91034e-05
0.000203491
0.000208173
-8.13338e-05
-6.64358e-08
6.98922e-05
-4.09796e-06
0.000114974
-9.64493e-06
0.000127985
-1.55695e-05
0.000136534
-2.16551e-05
0.000145455
-2.77806e-05
0.000154459
-3.37984e-05
0.000163321
-3.9553e-05
0.00017169
-4.48843e-05
0.000179374
-4.96401e-05
0.00018616
-5.36895e-05
0.000192018
-5.69451e-05
0.000196977
-5.93319e-05
0.000201199
-6.06513e-05
0.00020481
0.000208411
-6.08892e-05
1.18801e-06
6.87042e-05
-1.39109e-06
0.000117554
-5.77238e-06
0.000132366
-1.06082e-05
0.00014137
-1.55764e-05
0.000150423
-2.05385e-05
0.000159421
-2.5342e-05
0.000168124
-2.98358e-05
0.000176184
-3.38582e-05
0.000183396
-3.72606e-05
0.000189562
-3.99094e-05
0.000194666
-4.17109e-05
0.000198779
-4.26535e-05
0.000202141
-4.25625e-05
0.000204719
0.000206641
-4.07926e-05
2.53418e-06
6.617e-05
1.40048e-06
0.000118687
-1.82613e-06
0.000135593
-5.55523e-06
0.000145099
-9.41537e-06
0.000154283
-1.3226e-05
0.000163232
-1.68356e-05
0.000171734
-2.01011e-05
0.000179449
-2.28544e-05
0.000186149
-2.49518e-05
0.000191659
-2.62628e-05
0.000195977
-2.66606e-05
0.000199177
-2.61112e-05
0.000201592
-2.46964e-05
0.000203305
0.000203277
-2.13327e-05
3.88031e-06
6.22897e-05
4.23662e-06
0.000118331
2.21509e-06
0.000137614
-4.78434e-07
0.000147792
-3.23037e-06
0.000157035
-5.90588e-06
0.000165908
-8.34559e-06
0.000174174
-1.04184e-05
0.000181522
-1.19427e-05
0.000187674
-1.27767e-05
0.000192494
-1.28e-05
0.000196001
-1.18595e-05
0.000198236
-9.87251e-06
0.000199605
-6.81392e-06
0.000200246
0.000199186
-2.7222e-06
5.1658e-06
5.71239e-05
7.05608e-06
0.000116441
6.28701e-06
0.000138383
4.69545e-06
0.000149384
2.98119e-06
0.00015875
1.37284e-06
0.000167516
8.28953e-10
0.000175546
-8.87657e-07
0.00018241
-1.21654e-06
0.000188003
-8.33381e-07
0.00019211
4.28022e-07
0.000194739
2.6795e-06
0.000195985
6.003e-06
0.000196281
1.04316e-05
0.000195817
0.000193393
1.62247e-05
6.32723e-06
5.07966e-05
9.78812e-06
0.00011298
1.03121e-05
0.000137859
9.80299e-06
0.000149893
9.15572e-06
0.000159397
8.63964e-06
0.000168032
8.42643e-06
0.000175759
8.64168e-06
0.000182195
9.46372e-06
0.000187181
1.10339e-05
0.00019054
1.34728e-05
0.0001923
1.69789e-05
0.000192479
2.16733e-05
0.000191587
2.7263e-05
0.000190228
0.000185983
3.46729e-05
7.28171e-06
4.35149e-05
1.23484e-05
0.000107913
1.42391e-05
0.000135969
1.48268e-05
0.000149305
1.52051e-05
0.000159019
1.57328e-05
0.000167504
1.65839e-05
0.000174908
1.78986e-05
0.000180881
1.98428e-05
0.000185236
2.25687e-05
0.000187814
2.61847e-05
0.000188684
3.08752e-05
0.000187788
3.69868e-05
0.000185475
4.38919e-05
0.000183323
0.000177239
5.26357e-05
7.92243e-06
3.55925e-05
1.4639e-05
0.000101197
1.79941e-05
0.000132614
1.97103e-05
0.000147589
2.10912e-05
0.000157638
2.26216e-05
0.000165974
2.45027e-05
0.000173027
2.68746e-05
0.000178509
2.98998e-05
0.000182211
3.3762e-05
0.000183952
3.85578e-05
0.000183888
4.43787e-05
0.000181967
5.19418e-05
0.000177912
6.02295e-05
0.000175035
0.000167247
7.02211e-05
8.13001e-06
2.74625e-05
1.65514e-05
9.27752e-05
2.14816e-05
0.000127683
2.43814e-05
0.000144689
2.67594e-05
0.00015526
2.92592e-05
0.000163474
3.21247e-05
0.000170161
3.55153e-05
0.000175118
3.95827e-05
0.000178144
4.45515e-05
0.000178983
5.05634e-05
0.000177877
5.7428e-05
0.000175103
6.64421e-05
0.000168898
7.62092e-05
0.000165268
0.000155852
8.76039e-05
7.81834e-06
1.96441e-05
1.79701e-05
8.26235e-05
2.45801e-05
0.000121073
2.87529e-05
0.000140517
3.2149e-05
0.000151864
3.55848e-05
0.000160038
3.93926e-05
0.000166353
4.37589e-05
0.000170752
4.88248e-05
0.000173078
5.48197e-05
0.000172988
6.21229e-05
0.000170573
7.00072e-05
0.000167218
8.03842e-05
0.000158521
9.17323e-05
0.00015392
0.000142779
0.000104806
7.00524e-06
1.26389e-05
1.87641e-05
7.08646e-05
2.71413e-05
0.000112696
3.27205e-05
0.000134937
3.71864e-05
0.000147398
4.15426e-05
0.000155682
4.62288e-05
0.000161667
5.15228e-05
0.000165458
5.75741e-05
0.000167026
6.44619e-05
0.000166101
7.3121e-05
0.000161914
8.20191e-05
0.00015832
9.36435e-05
0.000146897
0.000106541
0.000141023
0.000127412
0.000121908
5.83252e-06
6.80638e-06
1.8785e-05
5.79121e-05
2.89984e-05
0.000102483
3.61595e-05
0.000127776
4.17835e-05
0.000141774
4.70504e-05
0.000150415
5.25775e-05
0.00015614
5.87084e-05
0.000159327
6.57509e-05
0.000159984
7.33873e-05
0.000158464
8.34261e-05
0.000151875
9.35067e-05
0.00014824
0.000106186
0.000134217
0.000120139
0.00012707
0.000109155
0.000138395
4.48669e-06
2.31969e-06
1.78907e-05
4.4508e-05
2.99794e-05
9.03941e-05
3.8915e-05
0.000118841
4.5819e-05
0.00013487
5.20284e-05
0.000144206
5.83416e-05
0.000149827
6.51991e-05
0.000152469
7.32886e-05
0.000151895
8.15491e-05
0.000150204
9.26897e-05
0.000140735
0.000104216
0.000136714
0.000118442
0.000119991
0.000132538
0.000112974
8.80475e-05
0.000153646
3.12679e-06
-8.07097e-07
1.60309e-05
3.16039e-05
2.99209e-05
7.65041e-05
4.07887e-05
0.000107973
4.91309e-05
0.000126527
5.63379e-05
0.000136999
6.34947e-05
0.00014267
7.08687e-05
0.000145095
7.99668e-05
0.000142796
8.896e-05
0.000141211
0.00010086
0.000128834
0.000113511
0.000124063
0.000130113
0.000103389
0.00014455
9.85378e-05
6.49172e-05
0.00016768
1.91379e-06
-2.72088e-06
1.33775e-05
2.01402e-05
2.86856e-05
6.1196e-05
4.15228e-05
9.51357e-05
5.1509e-05
0.000116541
5.98161e-05
0.000128692
6.78553e-05
0.000134631
7.57466e-05
0.000137204
8.56019e-05
0.000132941
9.54375e-05
0.000131375
0.000107827
0.000116445
0.000121259
0.000110631
0.0001398
8.48478e-05
0.000155865
8.24734e-05
4.03605e-05
0.000180421
1.0011e-06
-3.72198e-06
1.02943e-05
1.08471e-05
2.61503e-05
4.53399e-05
4.08324e-05
8.04536e-05
5.26742e-05
0.000104699
6.22279e-05
0.000119138
7.13045e-05
0.000125554
7.95741e-05
0.000128934
8.99651e-05
0.00012255
0.000101026
0.000120314
0.000113646
0.000103824
0.000127564
9.6713e-05
0.000146824
6.55882e-05
0.000165633
6.36644e-05
1.47884e-05
0.000191205
4.42449e-07
-4.16443e-06
7.36795e-06
3.92158e-06
2.23126e-05
3.03953e-05
3.84493e-05
6.43168e-05
5.2306e-05
9.08428e-05
6.32466e-05
0.000108198
7.34685e-05
0.000115332
8.26569e-05
0.000119746
9.24191e-05
0.000112788
0.000104898
0.000107835
0.000117825
9.0898e-05
0.000133377
8.11611e-05
0.000149059
4.9906e-05
0.000174192
3.85309e-05
-5.89247e-06
0.000194873
1.65616e-07
-4.33005e-06
4.93036e-06
-8.43166e-07
1.76343e-05
1.76913e-05
3.42764e-05
4.76747e-05
5.00094e-05
7.51098e-05
6.26067e-05
9.56002e-05
7.37616e-05
0.000104177
8.43501e-05
0.000109158
9.40977e-05
0.00010304
0.000106242
9.56903e-05
0.00011999
7.71499e-05
0.000136786
6.43658e-05
0.000151779
3.49129e-05
0.000177732
1.25778e-05
-2.08593e-05
0.000192699
9.35959e-08
-4.42364e-06
3.29237e-06
-4.04195e-06
1.30375e-05
7.94622e-06
2.8635e-05
3.20772e-05
4.5472e-05
5.82728e-05
5.98457e-05
8.12265e-05
7.20241e-05
9.19991e-05
8.35828e-05
9.75989e-05
9.4314e-05
9.23091e-05
0.00010701
8.29941e-05
0.000118223
6.59367e-05
0.000138733
4.38564e-05
0.000151706
2.19402e-05
0.000174576
-1.02928e-05
-4.11361e-05
0.000194853
1.87201e-07
-4.61084e-06
2.49184e-06
-6.34659e-06
9.40141e-06
1.03665e-06
2.24461e-05
1.90325e-05
3.88743e-05
4.18445e-05
5.44876e-05
6.56132e-05
6.77146e-05
7.8772e-05
8.05324e-05
8.47811e-05
9.06812e-05
8.21603e-05
0.000106785
6.68899e-05
0.000114241
5.84814e-05
0.0001372
2.08974e-05
0.000146801
1.23383e-05
0.00017171
-3.52018e-05
-6.03517e-05
0.000190926
3.98519e-07
-5.00936e-06
2.28895e-06
-8.23702e-06
7.07128e-06
-3.74568e-06
1.68819e-05
9.22189e-06
3.10918e-05
2.76347e-05
4.66875e-05
5.00175e-05
6.03594e-05
6.51001e-05
7.45367e-05
7.06038e-05
8.39381e-05
7.27589e-05
0.000100903
4.99255e-05
0.000110082
4.93024e-05
0.000132054
-1.07503e-06
0.000140324
4.06785e-06
0.000170864
-6.5741e-05
-6.60982e-05
0.00017661
6.34463e-07
-5.64382e-06
2.32741e-06
-9.92996e-06
5.72573e-06
-7.144e-06
1.2536e-05
2.41157e-06
2.33695e-05
1.68012e-05
3.71846e-05
3.62024e-05
5.03779e-05
5.19068e-05
6.43663e-05
5.66153e-05
7.49966e-05
6.21286e-05
8.88932e-05
3.6029e-05
0.000102049
3.61468e-05
0.000118471
-1.74968e-05
0.000130185
-7.64639e-06
0.000157811
-9.33672e-05
-6.95666e-05
0.000161279
7.76491e-07
-6.42032e-06
2.23385e-06
-1.13873e-05
4.64132e-06
-9.55148e-06
9.08021e-06
-2.02731e-06
1.64182e-05
9.46319e-06
2.70282e-05
2.55924e-05
3.86252e-05
4.03098e-05
5.05205e-05
4.47201e-05
6.18562e-05
5.0793e-05
7.28615e-05
2.50236e-05
8.62715e-05
2.27368e-05
9.52936e-05
-2.65189e-05
0.000113609
-2.5962e-05
0.000131778
-0.000111535
-0.000106451
0.000168662
7.21861e-07
-7.14218e-06
1.71509e-06
-1.23805e-05
3.15347e-06
-1.09899e-05
5.70131e-06
-4.57515e-06
1.00023e-05
5.16215e-06
1.7021e-05
1.85738e-05
2.59025e-05
3.14283e-05
3.48298e-05
3.57928e-05
4.47309e-05
4.08918e-05
5.37096e-05
1.60448e-05
6.60066e-05
1.04399e-05
7.63933e-05
-3.69057e-05
0.000108708
-5.82767e-05
0.000141556
-0.000144383
-0.000174089
0.000209194
4.15696e-07
-7.55787e-06
6.36353e-07
-1.26012e-05
9.03081e-07
-1.12566e-05
1.72191e-06
-5.39398e-06
3.44591e-06
3.43816e-06
7.17371e-06
1.4846e-05
1.26195e-05
2.59825e-05
1.84841e-05
2.99282e-05
2.56062e-05
3.37697e-05
3.25266e-05
9.12445e-06
5.02981e-05
-7.33163e-06
7.72618e-05
-6.38694e-05
0.000129018
-0.000110033
0.000179614
-0.000194979
-0.000236007
0.000241531
-1.31878e-07
-7.42599e-06
-9.39645e-07
-1.17934e-05
-2.024e-06
-1.01722e-05
-2.96312e-06
-4.45487e-06
-3.54324e-06
4.01828e-06
-2.94018e-06
1.4243e-05
-1.27584e-06
2.43181e-05
2.083e-06
2.65694e-05
7.89358e-06
2.79591e-05
2.02187e-05
-3.20064e-06
5.50311e-05
-4.2144e-05
0.000102028
-0.000110867
0.000162689
-0.000170694
0.000207685
-0.000239976
-0.000278894
0.000250572
-8.43352e-07
-6.58264e-06
-2.82098e-06
-9.81581e-06
-5.35066e-06
-7.64254e-06
-8.06492e-06
-1.74061e-06
-1.07672e-05
6.72052e-06
-1.31831e-05
1.66589e-05
-1.43954e-05
2.55305e-05
-1.19252e-05
2.40992e-05
1.33385e-06
1.47001e-05
3.08062e-05
-3.2673e-05
8.18015e-05
-9.31394e-05
0.000134955
-0.00016402
0.000186387
-0.000222126
0.000221024
-0.000274613
-0.00031248
0.000254611
-1.58308e-06
-4.99957e-06
-4.68316e-06
-6.71573e-06
-8.54017e-06
-3.78552e-06
-1.27703e-05
2.4895e-06
-1.71115e-05
1.10617e-05
-2.10297e-05
2.05771e-05
-2.25571e-05
2.70578e-05
-1.53577e-05
1.68998e-05
1.23185e-05
-1.29761e-05
5.86017e-05
-7.89562e-05
0.000113055
-0.000147593
0.000159457
-0.000210422
0.00019832
-0.000260988
0.000227748
-0.000304041
-0.000337293
0.000252561
-2.18228e-06
-2.81729e-06
-6.11745e-06
-2.78056e-06
-1.08476e-05
9.44579e-07
-1.5851e-05
7.49294e-06
-2.05396e-05
1.57503e-05
-2.34554e-05
2.34929e-05
-2.13435e-05
2.4946e-05
-3.45237e-06
-9.914e-07
3.7558e-05
-5.39865e-05
8.83057e-05
-0.000129704
0.000135787
-0.000195074
0.00017387
-0.000248506
0.000204643
-0.000291762
0.000227716
-0.000327114
-0.000356994
0.000247417
-2.50156e-06
-3.15723e-07
-6.80266e-06
1.52054e-06
-1.17079e-05
5.84979e-06
-1.6454e-05
1.2239e-05
-1.99597e-05
1.92561e-05
-1.97685e-05
2.33017e-05
-1.09417e-05
1.61192e-05
1.87092e-05
-3.06424e-05
6.60828e-05
-0.00010136
0.000111829
-0.00017545
0.000150867
-0.000234112
0.000181911
-0.00027955
0.000205652
-0.000315503
0.0002246
-0.000346062
-0.000374148
0.000241754
-2.48892e-06
2.17319e-06
-6.65128e-06
5.68291e-06
-1.10805e-05
1.0279e-05
-1.46836e-05
1.58421e-05
-1.59972e-05
2.05697e-05
-1.22548e-05
1.95593e-05
5.28928e-06
-1.42488e-06
4.37608e-05
-6.91139e-05
8.93228e-05
-0.000146922
0.000128689
-0.000214816
0.000160168
-0.00026559
0.000184603
-0.000303986
0.000203903
-0.000334802
0.000219862
-0.000362021
-0.000388366
0.00023408
-2.1925e-06
4.36569e-06
-5.81848e-06
9.30888e-06
-9.32955e-06
1.37901e-05
-1.13856e-05
1.78982e-05
-1.01977e-05
1.93818e-05
-2.74659e-06
1.21082e-05
2.40181e-05
-2.81895e-05
6.62844e-05
-0.00011138
0.000106816
-0.000187454
0.000139666
-0.000247666
0.000164707
-0.000290632
0.000184373
-0.000323652
0.000200112
-0.00035054
0.000213546
-0.000375455
-0.000401651
0.00022683
-1.71927e-06
6.08496e-06
-4.5811e-06
1.21707e-05
-6.99669e-06
1.62057e-05
-7.53798e-06
1.84395e-05
-4.55684e-06
1.64006e-05
8.82439e-06
-1.27304e-06
4.39488e-05
-6.33139e-05
8.44029e-05
-0.000151834
0.000119212
-0.000222263
0.000145949
-0.000274402
0.000166015
-0.000310698
0.000181773
-0.000339409
0.000194929
-0.000363696
0.000207176
-0.000387702
-0.000413379
0.000218904
-1.19119e-06
7.27614e-06
-3.22785e-06
1.42074e-05
-4.59008e-06
1.75679e-05
-3.76178e-06
1.76112e-05
6.96711e-07
1.19421e-05
2.18608e-05
-2.24371e-05
6.21881e-05
-0.000103641
9.83969e-05
-0.000188043
0.000127232
-0.000251098
0.000148694
-0.000295864
0.000164729
-0.000326733
0.000177806
-0.000352486
0.000189269
-0.000375159
0.000200055
-0.000398488
-0.000424193
0.000210868
-7.12175e-07
7.98832e-06
-1.98867e-06
1.54839e-05
-2.43127e-06
1.80105e-05
-8.65347e-07
1.60452e-05
7.40011e-06
3.67667e-06
3.70415e-05
-5.20786e-05
7.64199e-05
-0.00014302
0.000108179
-0.000219802
0.000131702
-0.000274621
0.000148775
-0.000312937
0.000161873
-0.000339831
0.000172949
-0.000363563
0.000182911
-0.00038512
0.000192962
-0.00040854
-0.000434242
0.000203012
-3.52041e-07
8.34036e-06
-1.0139e-06
1.61457e-05
-6.69318e-07
1.76659e-05
1.32866e-06
1.40473e-05
1.60062e-05
-1.10008e-05
5.23186e-05
-8.8391e-05
8.75028e-05
-0.000178204
0.000114341
-0.000246641
0.000133366
-0.000293645
0.00014705
-0.000326621
0.000157855
-0.000350637
0.000167414
-0.000373121
0.000176502
-0.000394209
0.000185692
-0.000417729
-0.000443277
0.000194726
-1.46028e-07
8.48639e-06
-3.14897e-07
1.63146e-05
4.75509e-07
1.68755e-05
4.10551e-06
1.04173e-05
2.67492e-05
-3.36446e-05
6.46009e-05
-0.000126243
9.54127e-05
-0.000209016
0.000117526
-0.000268754
0.000132874
-0.000308993
0.000143955
-0.000337702
0.000153119
-0.000359801
0.000161607
-0.000381609
0.000169781
-0.000402383
0.000178266
-0.000426214
-0.000451806
0.000186795
-9.10261e-08
8.57742e-06
1.23653e-07
1.60999e-05
9.00012e-07
1.60992e-05
9.03356e-06
2.28372e-06
3.92598e-05
-6.38708e-05
7.38283e-05
-0.000160811
0.000100325
-0.000235512
0.000118429
-0.000286858
0.000130814
-0.000321378
0.000139984
-0.000346872
0.000147921
-0.000367737
0.000155461
-0.000389149
0.000163019
-0.000409942
0.000170917
-0.000434112
-0.000459436
0.000178547
-1.41004e-07
8.71842e-06
2.38112e-07
1.57208e-05
1.12502e-06
1.52123e-05
1.54823e-05
-1.20736e-05
5.0619e-05
-9.90075e-05
8.08212e-05
-0.000191013
0.000102805
-0.000257496
0.000117519
-0.000301572
0.000127628
-0.000331488
0.000135365
-0.00035461
0.000142366
-0.000374738
0.00014923
-0.000396013
0.000156159
-0.000416871
0.000163354
-0.000441307
-0.000466556
0.000170474
-2.04164e-07
8.92258e-06
1.9809e-07
1.53186e-05
2.56436e-06
1.2846e-05
2.40641e-05
-3.35733e-05
5.87761e-05
-0.000133719
8.53534e-05
-0.000217591
0.000103417
-0.000275559
0.000115322
-0.000313477
0.000123661
-0.000339827
0.000130341
-0.000361289
0.000136634
-0.000381031
0.000142837
-0.000402216
0.000149218
-0.000423251
0.000155894
-0.000447983
-0.000472982
0.00016232
-2.30711e-07
9.15329e-06
-1.39879e-07
1.52277e-05
6.16538e-06
6.54073e-06
3.39619e-05
-6.13698e-05
6.48164e-05
-0.000164574
8.76653e-05
-0.00024044
0.00010252
-0.000290414
0.000112177
-0.000323135
0.000119164
-0.000346814
0.000125032
-0.000367157
0.000130713
-0.000386712
0.000136398
-0.000407901
0.000142273
-0.000429127
0.000148285
-0.000453995
-0.000478843
0.000154146
-2.83453e-07
9.43675e-06
-4.19541e-07
1.53638e-05
1.08034e-05
-4.68224e-06
4.26146e-05
-9.3181e-05
6.92814e-05
-0.000191241
8.82372e-05
-0.000259395
0.000100413
-0.000302589
0.000108365
-0.000331087
0.00011432
-0.000352769
0.000119541
-0.000372378
0.000124723
-0.000391894
0.000129893
-0.000413071
0.000135248
-0.000434482
0.000140742
-0.000459488
-0.000484155
0.000146053
-2.60788e-07
9.69754e-06
5.22291e-08
1.50508e-05
1.63915e-05
-2.10215e-05
4.83688e-05
-0.000125158
7.20416e-05
-0.000214914
8.76242e-05
-0.000274978
9.74924e-05
-0.000312458
0.000104082
-0.000337676
0.000109238
-0.000357925
0.000113932
-0.000377072
0.000118634
-0.000396596
0.000123346
-0.000417783
0.000128248
-0.000439384
0.000133146
-0.000464387
-0.000488882
0.000137873
-2.01632e-07
9.89917e-06
1.82605e-06
1.30231e-05
2.34555e-05
-4.2651e-05
5.21656e-05
-0.000153868
7.30506e-05
-0.000235799
8.59882e-05
-0.000287916
9.39767e-05
-0.000320446
9.94878e-05
-0.000343187
0.00010401
-0.000362447
0.00010824
-0.000381303
0.000112516
-0.000400872
0.000116781
-0.000422048
0.000121188
-0.000443791
0.000125572
-0.000468771
-0.00049314
0.00012983
-2.28859e-07
1.0128e-05
4.62614e-06
8.16812e-06
3.01556e-05
-6.81805e-05
5.50763e-05
-0.000178789
7.27012e-05
-0.000253423
8.34535e-05
-0.000298668
9.00332e-05
-0.000327026
9.46992e-05
-0.000347853
9.86863e-05
-0.000366434
0.000102503
-0.00038512
0.000106354
-0.000404723
0.000110183
-0.000425877
0.000114146
-0.000447754
0.000118005
-0.00047263
-0.000496861
0.000121726
-2.70298e-07
1.03983e-05
7.72471e-06
1.7311e-07
3.5277e-05
-9.57328e-05
5.69024e-05
-0.000200414
7.14561e-05
-0.000267977
8.02811e-05
-0.000307493
8.57591e-05
-0.000332504
8.97766e-05
-0.000351871
9.33137e-05
-0.000369971
9.67352e-05
-0.000388541
0.000100183
-0.00040817
0.000103592
-0.000429287
0.000107078
-0.000451239
0.000110438
-0.00047599
-0.000500171
0.000113748
-2.50967e-07
1.06493e-05
1.10118e-05
-1.10896e-05
3.83806e-05
-0.000123102
5.76658e-05
-0.0002197
6.95836e-05
-0.000279895
7.67138e-05
-0.000314623
8.12835e-05
-0.000337074
8.4774e-05
-0.000355361
8.791e-05
-0.000373107
9.09575e-05
-0.000391589
9.40013e-05
-0.000411214
9.69867e-05
-0.000432272
0.000100029
-0.000454281
0.000102913
-0.000478873
-0.000503011
0.000105752
-2.47266e-07
1.08966e-05
1.49763e-05
-2.63132e-05
3.97849e-05
-0.00014791
5.71822e-05
-0.000237097
6.7175e-05
-0.000289888
7.29142e-05
-0.000320362
7.67011e-05
-0.00034086
7.9728e-05
-0.000358388
8.24972e-05
-0.000375876
8.51768e-05
-0.000394268
8.78263e-05
-0.000413864
9.04023e-05
-0.000434848
9.29863e-05
-0.000456865
9.53969e-05
-0.000481284
-0.00050544
9.7826e-05
1.59035e-07
1.07375e-05
1.85736e-05
-4.47277e-05
4.07314e-05
-0.000170068
5.57905e-05
-0.000252156
6.42442e-05
-0.000298341
6.89423e-05
-0.00032506
7.20824e-05
-0.000344001
7.46815e-05
-0.000360987
7.70883e-05
-0.000378283
7.94057e-05
-0.000396586
8.16624e-05
-0.000416121
8.38224e-05
-0.000437008
8.59687e-05
-0.000459012
8.7936e-05
-0.000483251
-0.000507403
8.98992e-05
8.09786e-07
9.92774e-06
2.15701e-05
-6.54881e-05
4.10756e-05
-0.000189573
5.38635e-05
-0.000264944
6.09302e-05
-0.000305408
6.48289e-05
-0.000328959
6.7451e-05
-0.000346623
6.9653e-05
-0.000363189
7.17014e-05
-0.000380332
7.36525e-05
-0.000398537
7.55187e-05
-0.000417987
7.7274e-05
-0.000438763
7.89774e-05
-0.000460715
8.04923e-05
-0.000484766
-0.000508941
8.20304e-05
1.85663e-06
8.07111e-06
2.37665e-05
-8.7398e-05
4.09091e-05
-0.000206716
5.15886e-05
-0.000275624
5.73876e-05
-0.000311207
6.06216e-05
-0.000332193
6.28186e-05
-0.00034882
6.46568e-05
-0.000365027
6.63452e-05
-0.00038202
6.7927e-05
-0.000400119
6.9403e-05
-0.000419463
7.07479e-05
-0.000440108
7.20167e-05
-0.000461984
7.30929e-05
-0.000485842
-0.00051
7.41514e-05
3.35117e-06
4.71994e-06
2.51164e-05
-0.000109163
4.03177e-05
-0.000221917
4.91e-05
-0.000284406
5.37485e-05
-0.000315856
5.63799e-05
-0.000334824
5.81956e-05
-0.000350635
5.96914e-05
-0.000366523
6.10271e-05
-0.000383356
6.22373e-05
-0.000401329
6.33215e-05
-0.000420547
6.42625e-05
-0.000441049
6.50956e-05
-0.000462817
6.57162e-05
-0.000486463
-0.000510584
6.63003e-05
5.20735e-06
-4.87412e-07
2.5677e-05
-0.000129633
3.9289e-05
-0.000235529
4.64594e-05
-0.000291576
5.00827e-05
-0.000319479
5.215e-05
-0.000336892
5.35996e-05
-0.000352085
5.47636e-05
-0.000367687
5.57498e-05
-0.000384342
5.65886e-05
-0.000402168
5.72816e-05
-0.00042124
5.78137e-05
-0.000441581
5.82135e-05
-0.000463217
5.83914e-05
-0.000486641
-0.000510685
5.84927e-05
7.20683e-06
-7.69424e-06
2.55402e-05
-0.000147966
3.77362e-05
-0.000247725
4.36721e-05
-0.000297512
4.64266e-05
-0.000322234
4.79665e-05
-0.000338432
4.90468e-05
-0.000353165
4.98771e-05
-0.000368517
5.05175e-05
-0.000384982
5.09872e-05
-0.000402638
5.12882e-05
-0.000421541
5.14132e-05
-0.000441706
5.13807e-05
-0.000463184
5.11105e-05
-0.000486371
-0.000510305
5.07305e-05
9.22414e-06
-1.69184e-05
2.54348e-05
-0.000164177
3.58464e-05
-0.000258137
4.07114e-05
-0.000302377
4.2773e-05
-0.000324295
4.38392e-05
-0.000339498
4.4551e-05
-0.000353877
4.50425e-05
-0.000369009
4.53354e-05
-0.000385275
4.54372e-05
-0.000402739
4.5348e-05
-0.000421452
4.50613e-05
-0.00044142
4.45951e-05
-0.000462718
4.38905e-05
-0.000485666
-0.000509444
4.30297e-05
1.06419e-05
-2.75603e-05
2.50563e-05
-0.000178591
3.37544e-05
-0.000266835
3.76101e-05
-0.000306233
3.91047e-05
-0.00032579
3.9765e-05
-0.000340158
4.01192e-05
-0.000354231
4.02662e-05
-0.000369156
4.021e-05
-0.000385219
3.99457e-05
-0.000402475
3.94676e-05
-0.000420974
3.87698e-05
-0.000440722
3.78674e-05
-0.000461816
3.67243e-05
-0.000484523
-0.000508107
3.53865e-05
1.1473e-05
-3.90333e-05
2.43065e-05
-0.000191425
3.14994e-05
-0.000274028
3.44408e-05
-0.000309174
3.54397e-05
-0.000326788
3.57401e-05
-0.000340458
3.57532e-05
-0.000354244
3.55561e-05
-0.000368959
3.51476e-05
-0.00038481
3.45172e-05
-0.000401845
3.36546e-05
-0.000420111
3.25481e-05
-0.000439615
3.12058e-05
-0.000460473
2.96167e-05
-0.000482934
-0.000506302
2.78118e-05
1.1783e-05
-5.08163e-05
2.3236e-05
-0.000202878
2.91231e-05
-0.000279915
3.12563e-05
-0.000311308
3.18041e-05
-0.000327336
3.17694e-05
-0.000340424
3.14537e-05
-0.000353929
3.0915e-05
-0.00036842
3.01541e-05
-0.000384049
2.91585e-05
-0.000400849
2.79147e-05
-0.000418867
2.64108e-05
-0.000438111
2.46388e-05
-0.000458701
2.25666e-05
-0.000480862
-0.00050403
2.02953e-05
1.16903e-05
-6.25066e-05
2.18915e-05
-0.000213079
2.66545e-05
-0.000284678
2.80889e-05
-0.000312742
2.82197e-05
-0.000327467
2.78603e-05
-0.000340064
2.72231e-05
-0.000353291
2.63471e-05
-0.000367544
2.52345e-05
-0.000382937
2.38737e-05
-0.000399488
2.22513e-05
-0.000417245
2.03595e-05
-0.00043622
1.81856e-05
-0.000456527
1.5607e-05
-0.000478283
-0.00050126
1.28371e-05
1.13168e-05
-7.38233e-05
2.03502e-05
-0.000222112
2.41322e-05
-0.00028846
2.49584e-05
-0.000313568
2.47016e-05
-0.00032721
2.40222e-05
-0.000339385
2.30653e-05
-0.000352334
2.18547e-05
-0.000366334
2.0393e-05
-0.000381475
1.86688e-05
-0.000397764
1.66682e-05
-0.000415244
1.43894e-05
-0.000433941
1.18382e-05
-0.000453976
8.81623e-06
-0.000475261
-0.000497837
5.39292e-06
1.07471e-05
-8.45704e-05
1.86697e-05
-0.000230035
2.15866e-05
-0.000291377
2.18809e-05
-0.000313862
2.12607e-05
-0.00032659
2.02623e-05
-0.000338387
1.89852e-05
-0.000351057
1.7442e-05
-0.00036479
1.56331e-05
-0.000379666
1.35468e-05
-0.000395678
1.11713e-05
-0.000412869
8.50175e-06
-0.000431271
5.53927e-06
-0.000451014
2.33505e-06
-0.000472057
-0.000493568
-1.9344e-06
1.00359e-05
-9.46063e-05
1.69042e-05
-0.000236903
1.90525e-05
-0.000293525
1.88712e-05
-0.000313681
1.79045e-05
-0.000325623
1.65869e-05
-0.000337069
1.49875e-05
-0.000349458
1.31116e-05
-0.000362914
1.09563e-05
-0.000377511
8.51003e-06
-0.000393232
5.76655e-06
-0.000410125
2.69906e-06
-0.000428204
-7.57386e-07
-0.000447557
-4.27899e-06
-0.000468536
-0.000489187
-8.65948e-06
9.17175e-06
-0.000103778
1.50962e-05
-0.000242828
1.65587e-05
-0.000294988
1.59432e-05
-0.000313065
1.46386e-05
-0.000324319
1.3e-05
-0.00033543
1.10759e-05
-0.000347534
8.86581e-06
-0.000360704
6.3613e-06
-0.000375006
3.55573e-06
-0.000390426
4.39747e-07
-0.000407009
-2.97343e-06
-0.000424791
-6.62968e-06
-0.000443901
-1.08659e-05
-0.000464299
-0.000484664
-1.53886e-05
8.30644e-06
-0.000112085
1.32928e-05
-0.000247814
1.41247e-05
-0.00029582
1.31037e-05
-0.000312044
1.14653e-05
-0.00032268
9.50362e-06
-0.000333469
7.25175e-06
-0.000345282
4.70117e-06
-0.000358154
1.83782e-06
-0.000372143
-1.30544e-06
-0.000387283
-4.74435e-06
-0.00040357
-8.48991e-06
-0.000421045
-1.25388e-05
-0.000439852
-1.72301e-05
-0.000459608
-0.000479844
-2.20501e-05
7.47057e-06
-0.000119555
1.15287e-05
-0.000251872
1.17623e-05
-0.000296053
1.03522e-05
-0.000310634
8.38587e-06
-0.000320714
6.09716e-06
-0.00033118
3.51062e-06
-0.000342696
5.93634e-07
-0.000355237
-2.56254e-06
-0.000368987
-6.03657e-06
-0.000383809
-9.82997e-06
-0.000399777
-1.39281e-05
-0.000416947
-1.83999e-05
-0.00043538
-2.34367e-05
-0.000454571
-0.000474666
-2.86147e-05
6.64584e-06
-0.000126201
9.82113e-06
-0.000255048
9.48188e-06
-0.000295714
7.69175e-06
-0.000308844
5.3995e-06
-0.000318422
2.77378e-06
-0.000328554
-1.82833e-07
-0.000339739
-3.34638e-06
-0.000352073
-6.85109e-06
-0.000365482
-1.06771e-05
-0.000379983
-1.48162e-05
-0.000395638
-1.92834e-05
-0.00041248
-2.41881e-05
-0.000430475
-2.95156e-05
-0.000449244