/*--------------------------------*- C++ -*----------------------------------*\
  =========                 |
  \\      /  F ield         | OpenFOAM: The Open Source CFD Toolbox
   \\    /   O peration     | Website:  https://openfoam.org
    \\  /    A nd           | Version:  7
     \\/     M anipulation  |
\*---------------------------------------------------------------------------*/
FoamFile
{
    version     2.0;
    format      ascii;
    class       volVectorField;
    location    "33.9999";
    object      U;
}
// * * * * * * * * * * * * * * * * * * * * * * * * * * * * * * * * * * * * * //

dimensions      [0 1 -1 0 0 0 0];

internalField   nonuniform List<vector> 
18750
(
(-0.0312642 -0.0704926 -7.10798e-21)
(-0.115388 -0.0833839 2.28835e-21)
(-0.208256 -0.0746539 2.51516e-20)
(-0.289642 -0.0652715 5.84819e-21)
(-0.370501 -0.0553313 -1.42663e-20)
(-0.446576 -0.0446889 -3.38469e-20)
(-0.520815 -0.0334868 3.5744e-20)
(-0.591512 -0.0218315 2.41028e-20)
(-0.660037 -0.00995311 -1.86791e-20)
(-0.725532 0.00194907 -4.88803e-20)
(-0.788799 0.0136898 1.89502e-19)
(-0.849255 0.0251991 -1.5797e-19)
(-0.907255 0.036145 9.47634e-20)
(-0.962141 0.0463258 -1.88166e-19)
(-1.01418 0.0553846 4.3651e-20)
(-0.0313807 -0.0287897 5.24157e-21)
(-0.115628 -0.0312827 5.03289e-21)
(-0.208779 -0.0254893 -9.44015e-22)
(-0.290555 -0.0185187 3.51927e-20)
(-0.371842 -0.0106876 7.39753e-20)
(-0.448398 -0.00192386 1.06413e-19)
(-0.523136 0.00751526 -9.15804e-20)
(-0.594343 0.0174884 1.48892e-19)
(-0.663347 0.0277266 1.39969e-19)
(-0.729236 0.0380481 -4.48344e-20)
(-0.792751 0.0482192 -2.0105e-19)
(-0.853213 0.0580512 1.09356e-20)
(-0.910958 0.0673895 4.41245e-20)
(-0.965289 0.0760298 1.22802e-19)
(-1.01634 0.0838388 -1.87926e-19)
(-0.0329421 0.0126792 8.77499e-21)
(-0.117075 0.0206116 1.11217e-20)
(-0.209595 0.0235498 -4.78911e-20)
(-0.290888 0.0281596 3.5567e-21)
(-0.371723 0.0339223 -1.35766e-19)
(-0.447864 0.0408304 4.11186e-20)
(-0.522147 0.0485069 -1.2662e-19)
(-0.592815 0.0567575 -2.00048e-20)
(-0.661112 0.0652896 -1.11707e-19)
(-0.726064 0.0739166 3.26924e-19)
(-0.788348 0.0823887 4.41227e-19)
(-0.847185 0.090477 3.94185e-19)
(-0.902805 0.0980028 2.33776e-19)
(-0.954411 0.104856 1.61335e-19)
(-1.002 0.111071 -3.04016e-19)
(-0.0358773 0.0532641 -3.29389e-20)
(-0.119655 0.0717412 4.40395e-20)
(-0.210651 0.072021 -3.70621e-20)
(-0.290614 0.0743649 -9.66841e-20)
(-0.370131 0.0781327 1.85401e-19)
(-0.444976 0.0832285 -1.85069e-19)
(-0.517859 0.0891587 2.88363e-19)
(-0.586963 0.0956947 -2.47763e-19)
(-0.653415 0.102492 1.74243e-19)
(-0.716166 0.109361 -4.48186e-19)
(-0.77582 0.116041 -6.58123e-19)
(-0.831523 0.122313 3.10617e-20)
(-0.883377 0.127956 -1.32048e-19)
(-0.930429 0.132926 -2.86246e-19)
(-0.972548 0.137393 1.11239e-18)
(-0.040073 0.0923591 -2.34577e-20)
(-0.123282 0.121586 6.23556e-20)
(-0.2119 0.119497 1.69436e-20)
(-0.289712 0.119711 7.40942e-20)
(-0.367083 0.121593 -1.11118e-19)
(-0.439792 0.124943 4.56241e-20)
(-0.510387 0.129165 6.38808e-19)
(-0.576976 0.133989 1.08998e-19)
(-0.640551 0.139021 1.83921e-19)
(-0.699989 0.144073 -6.69727e-20)
(-0.755819 0.148878 6.271e-20)
(-0.807149 0.153241 -3.2633e-20)
(-0.85398 0.156935 -7.27484e-19)
(-0.895198 0.159951 -4.12021e-19)
(-0.930564 0.162522 -1.24985e-18)
(-0.0453661 0.129348 5.54506e-20)
(-0.12783 0.16961 2.24668e-20)
(-0.213281 0.165562 -3.29351e-20)
(-0.28817 0.163828 -2.26163e-20)
(-0.362625 0.163968 4.24211e-20)
(-0.43243 0.165662 -5.05702e-19)
(-0.499937 0.168224 -8.08745e-20)
(-0.563182 0.171345 3.15625e-20)
(-0.623008 0.174587 -2.86203e-19)
(-0.678222 0.177761 -3.85195e-19)
(-0.729303 0.180612 2.96747e-19)
(-0.77536 0.182984 -3.02558e-19)
(-0.816351 0.184677 9.56528e-19)
(-0.851049 0.185706 -7.54274e-19)
(-0.879125 0.186315 1.69067e-18)
(-0.0515467 0.163649 -5.35376e-20)
(-0.133134 0.215303 -9.38444e-20)
(-0.214715 0.209824 5.15747e-20)
(-0.285977 0.206377 3.84135e-19)
(-0.35683 0.204953 4.20479e-19)
(-0.423053 0.205105 -1.55339e-19)
(-0.486782 0.206072 7.76706e-20)
(-0.545993 0.207514 5.75844e-20)
(-0.60138 0.208957 5.92733e-19)
(-0.651693 0.210213 8.54826e-19)
(-0.697378 0.21105 -4.21902e-19)
(-0.737605 0.211375 -8.31427e-19)
(-0.772358 0.211047 -1.58133e-18)
(-0.800363 0.210115 2.86608e-19)
(-0.821231 0.208797 -2.05984e-18)
(-0.0583853 0.194761 -5.30152e-20)
(-0.139009 0.258181 -6.37673e-20)
(-0.216109 0.251923 -5.06519e-19)
(-0.283123 0.247053 1.91578e-19)
(-0.349781 0.244279 -2.48434e-19)
(-0.411851 0.243028 1.89213e-19)
(-0.471237 0.24249 2.07577e-19)
(-0.525874 0.242299 -9.39508e-19)
(-0.576317 0.241962 -6.58662e-19)
(-0.621282 0.241297 -1.14087e-18)
(-0.661196 0.240102 -1.88467e-19)
(-0.695331 0.238369 8.8108e-19)
(-0.723778 0.236045 3.53415e-18)
(-0.745297 0.233234 -5.49948e-19)
(-0.759453 0.230103 9.99107e-19)
(-0.0656308 0.222212 2.92155e-19)
(-0.145231 0.297781 1.24638e-19)
(-0.217339 0.291549 5.59575e-19)
(-0.279592 0.285598 -4.44691e-19)
(-0.341572 0.281715 2.28346e-19)
(-0.399027 0.279232 -4.09781e-19)
(-0.453629 0.277306 -9.96887e-19)
(-0.503295 0.275559 9.20382e-19)
(-0.548463 0.273492 1.17783e-19)
(-0.587831 0.270943 1.71291e-18)
(-0.621819 0.267746 -5.71132e-19)
(-0.649832 0.263984 -2.67744e-18)
(-0.672131 0.259723 -1.67535e-18)
(-0.687596 0.255149 1.83003e-19)
(-0.695758 0.250384 -8.48863e-19)
(-0.0729982 0.245511 -2.50791e-19)
(-0.15155 0.333694 -1.43655e-19)
(-0.218259 0.328452 2.08417e-19)
(-0.275365 0.321801 3.17955e-20)
(-0.332292 0.317074 -9.11421e-20)
(-0.384782 0.313557 -1.07813e-19)
(-0.434282 0.310389 4.50492e-19)
(-0.478714 0.307194 -5.6486e-19)
(-0.51842 0.303485 5.75868e-19)
(-0.552109 0.29913 7.50131e-19)
(-0.580198 0.294009 -1.36396e-18)
(-0.602229 0.288298 2.66326e-18)
(-0.618666 0.282201 3.22899e-19)
(-0.628593 0.276026 4.5589e-19)
(-0.631516 0.269856 1.05024e-18)
(-0.0801525 0.264216 5.0407e-19)
(-0.1577 0.365617 -1.69729e-19)
(-0.218728 0.362437 -7.74008e-19)
(-0.270421 0.355498 3.30086e-19)
(-0.32203 0.35021 -1.95229e-19)
(-0.369311 0.345884 2.38379e-19)
(-0.4135 0.34165 1.91414e-18)
(-0.452549 0.337147 9.75118e-19)
(-0.486726 0.331917 6.71051e-19)
(-0.514776 0.325876 -2.31328e-18)
(-0.537114 0.318955 2.61504e-18)
(-0.553399 0.311421 9.94106e-19)
(-0.564296 0.30361 -1.62861e-18)
(-0.569154 0.295984 2.00446e-18)
(-0.567522 0.288618 -8.04454e-20)
(-0.0866967 0.277901 1.25174e-19)
(-0.163368 0.393228 2.32628e-20)
(-0.218597 0.39336 -6.36529e-20)
(-0.264743 0.386569 -5.94804e-19)
(-0.310866 0.381017 1.23469e-18)
(-0.352789 0.376131 -6.56993e-19)
(-0.391558 0.371035 -2.02651e-18)
(-0.425172 0.365393 6.61431e-19)
(-0.453842 0.358796 -1.08457e-18)
(-0.476377 0.35122 1.74012e-18)
(-0.493188 0.342661 -3.2312e-18)
(-0.504027 0.333463 2.60743e-19)
(-0.50971 0.324082 1.4557e-18)
(-0.509893 0.315163 -3.11599e-18)
(-0.504269 0.306848 -7.45953e-19)
(-0.0922336 0.286357 -3.49666e-19)
(-0.168249 0.416412 1.01306e-19)
(-0.217748 0.421112 3.28829e-19)
(-0.258315 0.414932 -1.94499e-20)
(-0.298869 0.409422 -1.70941e-18)
(-0.335376 0.404246 1.64937e-19)
(-0.3687 0.398516 6.62974e-19)
(-0.396904 0.391936 -1.86894e-18)
(-0.420157 0.384153 1.47837e-18)
(-0.437345 0.375218 -1.4025e-18)
(-0.44889 0.365211 3.95869e-18)
(-0.454602 0.354548 -1.67631e-18)
(-0.455362 0.343764 2.11283e-18)
(-0.451078 0.333668 4.37645e-18)
(-0.441779 0.324529 1.9297e-18)
(-0.0961847 0.288997 -1.48114e-19)
(-0.171961 0.434835 -8.90972e-21)
(-0.216022 0.445596 -7.3599e-21)
(-0.251119 0.440526 -3.82394e-20)
(-0.286106 0.435391 -8.59774e-19)
(-0.317208 0.430206 -4.00682e-19)
(-0.345134 0.424087 6.57553e-19)
(-0.368015 0.416791 4.2359e-19)
(-0.385981 0.408026 -2.47427e-18)
(-0.398015 0.397933 -1.37648e-19)
(-0.404548 0.38668 -7.76301e-19)
(-0.405455 0.374763 1.62328e-18)
(-0.401586 0.362766 -2.33503e-18)
(-0.392961 0.351582 -3.46432e-19)
(-0.380222 0.341681 -2.18458e-18)
(-0.0981038 0.286216 6.80818e-19)
(-0.174273 0.448696 -6.17545e-19)
(-0.213396 0.466658 -8.36722e-19)
(-0.243143 0.463334 1.53174e-18)
(-0.272625 0.458911 1.3815e-18)
(-0.298412 0.454002 1.83452e-18)
(-0.321038 0.447752 8.72237e-20)
(-0.338729 0.439989 1.36108e-18)
(-0.35158 0.430469 1.87815e-18)
(-0.358651 0.419424 2.90991e-18)
(-0.360402 0.407134 -1.39843e-18)
(-0.356777 0.394188 3.01356e-18)
(-0.348587 0.381207 -6.69255e-21)
(-0.335679 0.369039 -1.58758e-18)
(-0.318976 0.358233 -4.04102e-18)
(-0.0977209 0.278194 -4.4461e-19)
(-0.174755 0.457509 6.78189e-19)
(-0.209722 0.484169 4.63919e-19)
(-0.23435 0.483344 -1.46021e-18)
(-0.258485 0.48 -6.93797e-19)
(-0.279094 0.47565 -1.33102e-19)
(-0.296566 0.469532 -1.01694e-18)
(-0.309229 0.461551 -1.79507e-18)
(-0.317137 0.451506 -3.18404e-18)
(-0.319449 0.439746 -1.43369e-18)
(-0.316605 0.426629 2.07412e-18)
(-0.308648 0.412849 -4.4338e-18)
(-0.296449 0.399125 1.5633e-19)
(-0.279534 0.386138 2.95697e-18)
(-0.258144 0.374263 4.33981e-18)
(-0.0949149 0.264968 -1.09852e-18)
(-0.173169 0.461017 8.42995e-19)
(-0.204868 0.498061 -1.46233e-18)
(-0.22472 0.500581 -7.2602e-19)
(-0.24373 0.498686 -4.34764e-20)
(-0.259357 0.495159 1.03774e-18)
(-0.271846 0.489433 1.74735e-18)
(-0.279677 0.481526 6.09464e-19)
(-0.282839 0.471192 9.11129e-19)
(-0.280564 0.458931 -2.59306e-18)
(-0.273309 0.445206 7.94239e-20)
(-0.261108 0.430786 -2.13987e-18)
(-0.245058 0.416501 -1.61258e-18)
(-0.22475 0.402968 -4.72275e-18)
(-0.197211 0.390216 -5.78905e-20)
(-0.0895869 0.2466 9.64543e-19)
(-0.169375 0.459096 1.57663e-19)
(-0.198725 0.508228 2.16606e-19)
(-0.214287 0.515092 1.7868e-18)
(-0.228418 0.514995 7.75161e-19)
(-0.239311 0.512563 -9.77282e-19)
(-0.247015 0.507528 7.86771e-19)
(-0.250172 0.499849 -4.77324e-19)
(-0.248795 0.489493 -9.94537e-19)
(-0.242112 0.476999 1.13731e-18)
(-0.230588 0.462901 -4.0027e-18)
(-0.214216 0.447981 -1.72493e-19)
(-0.194268 0.433292 -2.40455e-18)
(-0.171154 0.419364 3.77083e-18)
(-0.1377 0.406513 3.42489e-19)
(-0.0817893 0.223368 -3.78513e-19)
(-0.163314 0.451585 -1.05635e-18)
(-0.191226 0.514465 2.73982e-19)
(-0.203062 0.526835 -2.08824e-18)
(-0.212638 0.528977 -1.44572e-18)
(-0.219022 0.527911 -8.37491e-19)
(-0.222244 0.523796 -1.51483e-18)
(-0.220891 0.516568 1.49387e-18)
(-0.215119 0.506458 2.18838e-18)
(-0.204178 0.493951 4.40959e-18)
(-0.188538 0.479645 -2.17628e-19)
(-0.168066 0.464488 5.26277e-18)
(-0.144039 0.449545 2.12349e-18)
(-0.118491 0.435318 1.70779e-18)
(-0.0786493 0.423629 -3.81691e-18)
(-0.0718571 0.195788 6.57471e-19)
(-0.155019 0.438224 1.61501e-18)
(-0.182368 0.516458 1.11253e-18)
(-0.191069 0.535691 1.46118e-18)
(-0.196463 0.540626 7.04985e-21)
(-0.198609 0.541168 6.02198e-19)
(-0.197555 0.538165 6.85223e-21)
(-0.192 0.531698 -1.18003e-18)
(-0.181937 0.522021 1.88124e-18)
(-0.166886 0.509731 -6.74025e-18)
(-0.14722 0.495488 2.04164e-18)
(-0.122723 0.480262 -1.37237e-18)
(-0.0943111 0.465234 2.80239e-19)
(-0.0669166 0.450793 -2.15713e-18)
(-0.0194346 0.441094 -2.48242e-18)
(-0.0605148 0.164614 -1.07498e-18)
(-0.144633 0.41864 1.43257e-18)
(-0.172182 0.513755 -3.52366e-19)
(-0.178367 0.54147 -6.29008e-19)
(-0.179985 0.549902 1.32761e-18)
(-0.178178 0.552315 1.51946e-19)
(-0.173109 0.550611 -4.06904e-19)
(-0.163515 0.545143 -4.81149e-20)
(-0.149433 0.536136 -1.22099e-18)
(-0.130277 0.524237 3.23964e-18)
(-0.106731 0.510286 2.04599e-18)
(-0.0783938 0.495329 1.10052e-18)
(-0.0448191 0.480331 -1.10115e-19)
(-0.0168347 0.465628 2.7711e-18)
(0.0404127 0.459236 -2.59144e-19)
(-0.0489068 0.130948 3.15693e-19)
(-0.132403 0.392341 -3.38452e-19)
(-0.160691 0.505744 2.72988e-19)
(-0.165035 0.543862 1.16315e-18)
(-0.163316 0.556706 -7.51768e-19)
(-0.157877 0.561313 -5.00962e-19)
(-0.149006 0.56113 -9.68747e-19)
(-0.135663 0.556794 7.80533e-19)
(-0.117638 0.548663 -8.3594e-19)
(-0.0945635 0.537423 -9.87605e-19)
(-0.0670045 0.523986 -1.76309e-18)
(-0.0353511 0.509429 -1.04486e-18)
(0.00460884 0.494739 3.93836e-18)
(0.0315213 0.479103 -5.50742e-18)
(0.100897 0.478527 -1.58572e-19)
(-0.0382734 0.0965094 1.35447e-18)
(-0.118641 0.358774 -5.21816e-19)
(-0.147896 0.491689 -1.36696e-18)
(-0.151139 0.542376 -3.70742e-19)
(-0.14659 0.560841 1.9842e-18)
(-0.137828 0.568103 -3.82484e-20)
(-0.12548 0.569619 1.01e-18)
(-0.108472 0.56663 -5.5741e-19)
(-0.0868876 0.559523 -2.27544e-18)
(-0.0598003 0.549008 5.40587e-18)
(-0.0280769 0.536179 -4.08159e-18)
(0.00597832 0.522582 1.24673e-18)
(0.0543733 0.508605 -5.59723e-18)
(0.0776827 0.490361 1.98974e-18)
(0.162347 0.498752 1.66509e-18)
(-0.0291792 0.0637485 -4.82462e-19)
(-0.103636 0.31753 -1.55009e-18)
(-0.133781 0.470788 7.00841e-19)
(-0.136732 0.536294 1.2388e-19)
(-0.129927 0.56194 -1.78592e-18)
(-0.11822 0.572539 1.12269e-18)
(-0.102609 0.576046 6.49984e-20)
(-0.082334 0.574417 -2.76843e-19)
(-0.0570984 0.568498 -2.3031e-18)
(-0.0266068 0.559021 -2.63588e-19)
(0.0104446 0.54672 3.26507e-18)
(0.0449957 0.53386 2.77041e-19)
(0.104499 0.522411 8.05828e-19)
(0.121321 0.49818 2.3652e-18)
(0.224222 0.51917 -6.15346e-18)
(-0.0210835 0.0353546 -7.33278e-19)
(-0.0876599 0.268801 2.51393e-20)
(-0.118347 0.442235 -8.93226e-19)
(-0.121856 0.524633 7.28683e-19)
(-0.113445 0.559434 1.01131e-18)
(-0.0991782 0.574379 -7.7075e-19)
(-0.0807427 0.5802 -1.37802e-19)
(-0.0571625 0.580193 -6.79116e-19)
(-0.0288008 0.575329 1.71938e-18)
(0.00482809 0.566915 3.24743e-19)
(0.0483312 0.555287 -4.71604e-18)
(0.0813873 0.543045 1.29737e-18)
(0.155548 0.536798 8.39793e-19)
(0.161785 0.502233 -3.81008e-18)
(0.285592 0.535792 8.99978e-19)
(-0.0130779 0.0133559 1.65448e-19)
(-0.0712877 0.214102 4.46733e-19)
(-0.101718 0.405229 8.28613e-19)
(-0.106544 0.506148 -7.12257e-19)
(-0.0972568 0.552463 -3.52911e-20)
(-0.0809137 0.573231 1.85086e-18)
(-0.0599182 0.581952 -9.56987e-20)
(-0.0337779 0.583486 -1.31282e-20)
(-0.00127392 0.579887 2.79437e-18)
(0.0330828 0.572879 -1.63193e-18)
(0.0863751 0.561639 1.21935e-18)
(0.113538 0.547206 -3.48379e-18)
(0.207509 0.553153 3.09239e-19)
(0.200997 0.505648 -9.66067e-19)
(0.344363 0.545858 1.67719e-18)
(-0.00512087 -0.00152188 -1.25767e-19)
(-0.055385 0.157116 5.50241e-19)
(-0.0843105 0.35908 -7.41523e-19)
(-0.090865 0.479384 1.56222e-18)
(-0.0814751 0.539901 -1.34088e-18)
(-0.0636195 0.5684 -1.21826e-18)
(-0.0405405 0.580886 -7.62319e-19)
(-0.0120498 0.584564 -1.69503e-18)
(0.024445 0.581316 -3.38888e-18)
(0.0586468 0.575671 5.39357e-19)
(0.123439 0.567766 2.80541e-18)
(0.142395 0.54521 2.30341e-18)
(0.2575 0.565214 4.16681e-19)
(0.240674 0.514294 -2.00268e-18)
(0.401149 0.549841 -1.04847e-18)
(0.00172469 -0.00995067 2.95063e-19)
(-0.0402251 0.10375 5.13285e-19)
(-0.0667037 0.30365 -2.20687e-18)
(-0.0749743 0.442875 -1.54086e-18)
(-0.0662717 0.520212 -4.58508e-20)
(-0.0475817 0.558959 1.26696e-18)
(-0.0225437 0.576349 -4.8282e-19)
(0.00645035 0.582532 3.77477e-18)
(0.0501609 0.580746 3.3871e-19)
(0.0787462 0.573912 -2.22323e-18)
(0.160943 0.572678 -2.15388e-18)
(0.166166 0.539378 -3.5367e-18)
(0.305754 0.568821 3.94002e-18)
(0.277755 0.520281 2.6962e-18)
(0.455619 0.554198 -3.27618e-21)
(0.00658409 -0.0138567 -8.22841e-19)
(-0.0254864 0.0599668 -1.51325e-18)
(-0.0494724 0.240239 1.09592e-18)
(-0.0591874 0.395501 1.34916e-18)
(-0.0517942 0.491576 8.49816e-19)
(-0.033338 0.543275 -8.88551e-19)
(-0.00609355 0.567625 2.28576e-18)
(0.0220128 0.577118 -3.35445e-18)
(0.0726764 0.57632 3.81909e-18)
(0.0973642 0.5673 2.5147e-18)
(0.193283 0.577697 -8.00621e-19)
(0.191382 0.53078 -1.15773e-18)
(0.342915 0.56435 -1.57368e-18)
(0.321052 0.52115 -3.22911e-18)
(0.497577 0.54618 3.9417e-18)
(0.00957777 -0.0152283 2.30442e-18)
(-0.0113478 0.0282614 1.75856e-18)
(-0.033415 0.173176 3.98687e-19)
(-0.0440623 0.336916 -2.44071e-20)
(-0.038297 0.451926 -2.96849e-19)
(-0.0213206 0.519469 -3.4598e-19)
(0.00826811 0.55263 -1.78462e-18)
(0.0336349 0.567164 3.16925e-18)
(0.0945406 0.571809 -2.53889e-18)
(0.10751 0.549189 -3.50887e-20)
(0.224414 0.577513 2.5704e-18)
(0.21459 0.528844 1.86621e-18)
(0.369434 0.542855 1.88905e-18)
(0.358851 0.528756 -2.83409e-20)
(0.538437 0.516998 -2.33974e-18)
(0.0112426 -0.0153025 -1.38163e-18)
(0.00106986 0.0076466 -1.42716e-18)
(-0.0187324 0.111751 4.38061e-19)
(-0.0302999 0.269017 -7.14215e-19)
(-0.0260213 0.399467 -3.46067e-19)
(-0.0123427 0.485025 1.25639e-18)
(0.0204748 0.530412 -3.30562e-19)
(0.040459 0.547669 -3.23273e-19)
(0.110599 0.565829 -1.0045e-18)
(0.12484 0.534791 -2.40337e-18)
(0.225432 0.548938 1.13047e-18)
(0.268054 0.540102 -1.37406e-18)
(0.347983 0.506082 -2.17427e-18)
(0.451369 0.539111 -1.01037e-18)
(0.487397 0.475948 4.14913e-18)
(0.0123879 -0.0147411 1.55076e-18)
(0.0112149 -0.00453528 -1.21406e-18)
(-0.00449783 0.0646346 -1.99117e-18)
(-0.0179262 0.197782 2.07312e-19)
(-0.0151756 0.334442 4.78115e-19)
(-0.00664881 0.436882 -3.53318e-19)
(0.0282207 0.498711 9.49286e-19)
(0.046046 0.519902 1.92985e-19)
(0.112977 0.544024 -1.26013e-19)
(0.147991 0.529291 1.08153e-19)
(0.221336 0.516919 -1.16566e-18)
(0.294839 0.521718 1.61278e-19)
(0.36512 0.497622 7.07103e-19)
(0.463632 0.503242 -5.65914e-19)
(0.521532 0.467537 3.78132e-18)
(0.0137855 -0.0139428 3.23889e-19)
(0.019789 -0.011079 -6.95408e-19)
(0.0094615 0.0338101 1.93507e-18)
(-0.00593238 0.133561 1.49721e-18)
(-0.00597938 0.261484 -1.51211e-18)
(-0.00360877 0.374536 -1.09856e-19)
(0.0294416 0.452667 -7.14714e-19)
(0.049015 0.483845 -2.9094e-19)
(0.108246 0.510017 2.05807e-18)
(0.156152 0.500247 1.08494e-18)
(0.229121 0.509648 1.49515e-18)
(0.294068 0.463604 -1.216e-18)
(0.394177 0.507218 8.42288e-19)
(0.437955 0.431582 -4.90962e-19)
(0.586082 0.489085 -4.82481e-18)
(0.0159138 -0.0133189 2.5868e-19)
(0.0277133 -0.0144209 4.15032e-19)
(0.0222181 0.0156989 -1.0653e-18)
(0.00635461 0.0851368 -1.2142e-18)
(0.00156348 0.190425 -1.11797e-18)
(-0.0026503 0.301881 9.44249e-20)
(0.0243633 0.391792 8.28944e-19)
(0.0461435 0.431384 -1.51617e-18)
(0.0963127 0.470643 -8.01318e-19)
(0.15911 0.446894 4.50451e-19)
(0.213931 0.483534 -1.36297e-18)
(0.322728 0.425203 1.5323e-19)
(0.368735 0.472385 9.83483e-19)
(0.474965 0.397524 -1.34076e-18)
(0.5869 0.475134 1.10397e-18)
(0.0188918 -0.0132221 -5.83471e-19)
(0.0351736 -0.0165169 1.32119e-18)
(0.0327569 0.00498179 8.72059e-19)
(0.0175887 0.0531208 5.83869e-19)
(0.00725191 0.13109 9.55459e-19)
(-0.00335443 0.227362 -9.59785e-20)
(0.0134109 0.320033 -7.57875e-19)
(0.0384169 0.362859 1.7009e-19)
(0.0717087 0.412977 1.06692e-18)
(0.16188 0.394295 -1.64369e-18)
(0.172251 0.410312 -7.82808e-19)
(0.35631 0.405321 8.7055e-20)
(0.290923 0.371498 -2.72774e-19)
(0.55494 0.397704 1.55151e-18)
(0.47314 0.366339 -1.57044e-18)
(0.0224246 -0.0137911 6.37027e-19)
(0.0415201 -0.0187652 4.25479e-19)
(0.0400298 -0.0030532 -4.9672e-20)
(0.0250896 0.0314058 -3.79066e-19)
(0.00989494 0.086082 8.45541e-20)
(-0.00705545 0.159623 -1.12029e-18)
(-0.000936528 0.244198 2.47011e-19)
(0.0216912 0.284221 -4.83625e-19)
(0.0444712 0.337559 -4.71973e-19)
(0.138818 0.325389 1.10985e-18)
(0.144531 0.326601 1.65138e-18)
(0.322441 0.337341 7.6671e-19)
(0.238602 0.263984 8.63577e-19)
(0.562213 0.357222 -1.13244e-18)
(0.376936 0.243571 -1.24173e-18)
(0.0258182 -0.0148854 5.2702e-19)
(0.045554 -0.02185 -1.00026e-18)
(0.0427727 -0.0114409 -4.82908e-19)
(0.026552 0.0131764 -1.08359e-18)
(0.00711152 0.0507998 4.87966e-19)
(-0.0157226 0.101828 1.18202e-18)
(-0.0178281 0.170668 -1.34314e-18)
(-0.00558392 0.200931 4.69857e-19)
(0.0168485 0.254568 8.94746e-19)
(0.0948891 0.231826 2.19977e-19)
(0.121571 0.245636 -9.98862e-19)
(0.255892 0.235416 -4.45982e-19)
(0.262388 0.217656 -7.86207e-21)
(0.560693 0.309853 6.81189e-19)
(0.577335 0.303662 2.8271e-18)
(0.0281243 -0.0161364 -8.53701e-19)
(0.0459929 -0.0257421 -8.55014e-19)
(0.0398593 -0.0212988 4.79182e-19)
(0.0206937 -0.00546269 1.92633e-18)
(-0.00317264 0.0191837 -1.25352e-18)
(-0.0305321 0.0514902 3.49482e-19)
(-0.0401629 0.10133 5.18237e-19)
(-0.0393275 0.118365 -4.46957e-20)
(-0.0169917 0.166626 1.15593e-19)
(0.0459648 0.132898 4.38956e-19)
(0.0886547 0.154371 -3.8035e-19)
(0.251827 0.170764 -8.71436e-19)
(0.388526 0.235552 -8.85126e-19)
(0.681245 0.333795 7.53916e-19)
(0.842962 0.420713 2.66863e-19)
(0.0283863 -0.0170534 -2.10275e-19)
(0.0419598 -0.029868 1.6942e-18)
(0.0308916 -0.0322736 3.56846e-19)
(0.00748193 -0.0253703 5.10061e-19)
(-0.0213512 -0.0121563 4.65044e-19)
(-0.0525624 0.00497374 4.44253e-19)
(-0.07069 0.0356154 -1.56602e-19)
(-0.0764778 0.039349 2.79891e-19)
(-0.0584132 0.0771993 1.25762e-19)
(0.0121448 0.0515264 5.32865e-19)
(0.122677 0.0999559 4.30185e-20)
(0.367642 0.18493 6.08009e-19)
(0.590195 0.294092 -5.59287e-19)
(0.847151 0.397004 -6.23614e-19)
(0.964459 0.460271 4.53823e-19)
(0.0259003 -0.0171413 7.57323e-19)
(0.0332409 -0.0333042 -6.9598e-19)
(0.016409 -0.0429577 7.10933e-20)
(-0.0118952 -0.0450668 -1.0392e-18)
(-0.0461119 -0.0425631 -8.63887e-19)
(-0.0819952 -0.0376852 1.48692e-18)
(-0.108044 -0.0246859 4.14327e-19)
(-0.111936 -0.0291517 -5.81986e-19)
(-0.0804157 0.00505079 1.61906e-19)
(0.0590035 0.0287842 -1.45291e-18)
(0.279251 0.128565 5.07043e-19)
(0.552771 0.247845 -6.37324e-19)
(0.776556 0.358793 8.69841e-19)
(0.943196 0.427636 -6.92792e-20)
(1.03638 0.475588 -6.43675e-19)
(0.0204561 -0.0159973 -1.181e-18)
(0.0204089 -0.0349237 -1.20391e-18)
(-0.00211373 -0.051191 -1.24097e-18)
(-0.035064 -0.0611827 -9.34772e-19)
(-0.0737536 -0.0672705 6.30091e-19)
(-0.112806 -0.0708194 -2.53891e-18)
(-0.138539 -0.0688795 2.30197e-19)
(-0.118818 -0.0702253 2.16601e-19)
(-0.0295729 -0.0226978 1.089e-19)
(0.213197 0.0734579 6.74902e-19)
(0.484677 0.199986 -5.62407e-19)
(0.725415 0.312404 1.42435e-18)
(0.891021 0.393013 -3.28209e-19)
(1.01146 0.444949 -7.20002e-19)
(1.08662 0.484281 4.20266e-19)
(0.0124806 -0.0134301 2.08009e-19)
(0.00486794 -0.0336889 9.74975e-19)
(-0.0221287 -0.0545484 1.39329e-18)
(-0.0578613 -0.0694913 2.32684e-19)
(-0.0970731 -0.079767 1.1188e-18)
(-0.131631 -0.0850553 6.22101e-19)
(-0.142175 -0.0828787 1.93807e-19)
(-0.0717637 -0.0677124 -9.26739e-19)
(0.111851 0.0156315 -5.14712e-20)
(0.410418 0.147714 3.77292e-19)
(0.662541 0.265474 1.40526e-18)
(0.846132 0.353103 -1.79237e-19)
(0.973361 0.415469 5.71158e-19)
(1.05822 0.454691 5.79137e-19)
(1.10453 0.477939 1.02716e-18)
(0.00296036 -0.00958093 3.81363e-19)
(-0.0114615 -0.0291395 -1.27836e-18)
(-0.0406352 -0.051631 -2.7931e-19)
(-0.0754471 -0.0676842 1.63153e-20)
(-0.109108 -0.0768101 -2.0842e-18)
(-0.129187 -0.076677 5.43086e-19)
(-0.111332 -0.0667853 -2.70885e-19)
(0.0331406 -0.0238153 3.1593e-19)
(0.303625 0.0969814 9.94467e-19)
(0.58695 0.218018 -3.23589e-19)
(0.794425 0.313488 -1.12837e-18)
(0.937201 0.383126 -1.6295e-19)
(1.02742 0.428493 -1.95352e-19)
(1.0817 0.454056 -4.33658e-19)
(1.12143 0.473653 -1.0974e-18)
(-0.00685921 -0.00493171 7.9616e-20)
(-0.0267353 -0.0217349 3.46316e-19)
(-0.0553811 -0.0430239 -8.96466e-19)
(-0.0851769 -0.05688 3.77633e-19)
(-0.107896 -0.0611679 8.64276e-19)
(-0.106746 -0.0528295 -3.70078e-19)
(-0.0495088 -0.0373645 -8.47466e-20)
(0.186974 0.0480568 -8.63009e-19)
(0.484939 0.173156 1.74473e-19)
(0.729495 0.272955 -5.75047e-19)
(0.895782 0.350435 5.57714e-19)
(0.999067 0.401839 -4.84507e-19)
(1.06032 0.433076 9.12004e-19)
(1.10101 0.453605 -3.78386e-19)
(1.12741 0.465613 -8.31045e-19)
(-0.0158487 -0.000170561 4.05979e-19)
(-0.0397042 -0.0126946 2.5452e-19)
(-0.0654672 -0.030729 2.30548e-19)
(-0.0871831 -0.0405138 5.59263e-20)
(-0.0957623 -0.038984 3.97171e-19)
(-0.0719095 -0.0252917 -9.67883e-19)
(0.0434385 0.00322151 5.38669e-19)
(0.355971 0.123122 1.24887e-18)
(0.637869 0.234826 -1.11289e-19)
(0.841831 0.316619 8.93852e-19)
(0.966926 0.376559 5.57039e-19)
(1.04049 0.413108 8.55487e-20)
(1.08373 0.43598 2.0584e-19)
(1.1089 0.448998 4.04133e-19)
(1.13012 0.456982 9.72771e-19)
(-0.0232318 0.00404967 6.1971e-19)
(-0.0498108 -0.00346531 8.86055e-19)
(-0.0711522 -0.0172302 -8.01716e-19)
(-0.0831166 -0.0225722 7.30601e-19)
(-0.0764852 -0.0161335 -1.70443e-18)
(-0.0264275 -0.0050037 4.1393e-19)
(0.17709 0.0641483 -1.49522e-19)
(0.511472 0.187843 -7.84291e-19)
(0.7631 0.2855 -1.3607e-18)
(0.925398 0.349476 -5.05678e-19)
(1.0175 0.394947 -1.26879e-18)
(1.06877 0.419913 8.19381e-19)
(1.09571 0.434636 -1.16741e-18)
(1.11519 0.444585 8.50426e-19)
(1.13351 0.450345 6.1839e-19)
(-0.0286688 0.00726792 -1.46993e-18)
(-0.0570352 0.00467319 5.24647e-20)
(-0.0732365 -0.0046711 1.04888e-19)
(-0.0749491 -0.00589396 2.04857e-19)
(-0.0545831 0.00194665 1.12048e-19)
(0.0388371 0.0133085 8.24653e-19)
(0.337044 0.130455 4.53126e-19)
(0.649419 0.243618 -1.27247e-19)
(0.860921 0.325108 6.18624e-19)
(0.986523 0.373869 3.98216e-19)
(1.05153 0.40736 1.89774e-19)
(1.0854 0.422465 -4.70059e-19)
(1.10464 0.433595 1.61986e-18)
(1.11853 0.44007 2.99488e-19)
(1.13182 0.441992 -6.47756e-19)
(-0.0322206 0.00928064 1.35516e-18)
(-0.0617221 0.0108448 -9.7222e-19)
(-0.0726534 0.00546603 3.10275e-19)
(-0.0646299 0.00817523 -3.29581e-20)
(-0.029083 0.0106544 1.63868e-18)
(0.141507 0.0540293 -1.33673e-19)
(0.487623 0.189565 -5.45403e-19)
(0.763387 0.289246 1.33912e-18)
(0.934959 0.355435 1.23616e-19)
(1.02894 0.391272 5.40127e-19)
(1.07357 0.415097 -1.07196e-18)
(1.09707 0.423804 2.12434e-20)
(1.10883 0.431311 -5.19033e-19)
(1.11944 0.434748 -1.16984e-19)
(1.13291 0.436173 -3.91062e-19)
(-0.0342508 0.0101181 -3.62212e-19)
(-0.0643997 0.0146174 1.01773e-18)
(-0.0700896 0.0126602 6.17088e-19)
(-0.0543774 0.0176386 4.94307e-19)
(0.0106781 0.0117631 -2.69718e-19)
(0.283793 0.114239 -1.07175e-19)
(0.620563 0.241241 7.15163e-19)
(0.854846 0.326074 -5.67012e-19)
(0.989317 0.378008 1.7447e-19)
(1.05789 0.403377 -9.02628e-19)
(1.08798 0.420089 5.96787e-20)
(1.10294 0.423256 1.45562e-19)
(1.11128 0.429161 -2.17907e-19)
(1.12084 0.430655 -1.33948e-18)
(1.13069 0.429761 5.84876e-19)
(-0.0353061 0.00995681 -6.41044e-19)
(-0.0655506 0.0159162 -8.03788e-19)
(-0.0662397 0.0173671 4.23534e-19)
(-0.0438702 0.0195143 -5.40563e-20)
(0.0796356 0.0283428 -6.72259e-19)
(0.430611 0.17208 -2.91735e-20)
(0.733557 0.284432 -5.02654e-19)
(0.925385 0.35461 -9.96719e-19)
(1.02802 0.394335 -4.05062e-19)
(1.07673 0.411631 3.7459e-19)
(1.09607 0.422561 3.48663e-19)
(1.10688 0.422563 -3.48084e-20)
(1.11248 0.427193 -5.82776e-19)
(1.11984 0.425709 1.09695e-18)
(1.12945 0.424561 3.56764e-19)
(-0.0359948 0.00898346 6.32361e-19)
(-0.0654881 0.0151444 1.43818e-21)
(-0.062481 0.0199082 -1.03855e-18)
(-0.0255573 0.0124549 -2.23485e-20)
(0.190635 0.0762255 1.58671e-19)
(0.560495 0.222771 2.94394e-19)
(0.824719 0.320064 -5.32172e-19)
(0.978402 0.376688 2.76095e-19)
(1.0548 0.406014 -1.2373e-20)
(1.08846 0.416985 3.08635e-19)
(1.10112 0.423983 -2.80144e-19)
(1.10832 0.421367 -8.02118e-19)
(1.11208 0.424973 -4.05746e-20)
(1.11968 0.42184 -5.33104e-19)
(1.12735 0.420079 -4.79558e-19)
(-0.0368134 0.0073656 2.58637e-19)
(-0.0645222 0.0134966 -5.2731e-19)
(-0.0595664 0.0188188 5.27884e-19)
(0.0132397 0.00478858 -1.70089e-19)
(0.331252 0.134734 -9.13869e-20)
(0.674999 0.266057 -2.65564e-19)
(0.897474 0.348497 4.18609e-19)
(1.01734 0.393154 2.72826e-19)
(1.07269 0.414031 -1.63256e-19)
(1.09547 0.420515 -4.66575e-19)
(1.10311 0.424246 -1.70855e-19)
(1.10866 0.420194 8.23119e-19)
(1.11171 0.423273 5.13178e-19)
(1.11799 0.417672 5.20194e-19)
(1.12448 0.415772 -1.66431e-19)
(-0.037916 0.00535105 -1.61802e-19)
(-0.0631382 0.0123717 5.81973e-20)
(-0.0551075 0.013191 -2.19337e-19)
(0.0812617 0.0207288 -9.76322e-22)
(0.464496 0.186596 -1.69681e-19)
(0.770378 0.302464 -2.57558e-19)
(0.953029 0.371058 9.08558e-20)
(1.04481 0.405446 -5.41551e-19)
(1.08413 0.419652 4.84581e-19)
(1.09901 0.422666 6.22041e-19)
(1.10394 0.42421 8.19138e-20)
(1.10811 0.419143 -7.17418e-19)
(1.11001 0.421239 -7.13446e-19)
(1.11646 0.4141 -5.53085e-19)
(1.12209 0.41268 2.3193e-19)
(-0.0391687 0.00335603 -5.24858e-19)
(-0.0623727 0.0118091 1.43835e-19)
(-0.0416789 0.00263755 -1.06672e-19)
(0.184023 0.0688123 2.30831e-21)
(0.579777 0.232241 -4.20518e-20)
(0.848175 0.333088 -9.83772e-20)
(0.995518 0.388793 1.83428e-19)
(1.06404 0.414393 -1.06101e-19)
(1.09103 0.423372 -1.3914e-19)
(1.10056 0.424082 -2.70157e-19)
(1.10337 0.423783 -2.40812e-19)
(1.10668 0.418078 -1.11845e-19)
(1.1085 0.419616 4.42677e-19)
(1.11429 0.410768 -1.77743e-20)
(1.11835 0.409428 3.66746e-19)
(-0.0404298 0.00234551 2.1797e-19)
(-0.0628912 0.00968792 3.60828e-19)
(-0.00960518 -0.00757408 6.35803e-20)
(0.313064 0.126225 2.22163e-19)
(0.681864 0.270803 4.93959e-19)
(0.910433 0.357714 1.84673e-19)
(1.02663 0.402459 6.81595e-19)
(1.0766 0.420948 3.61035e-19)
(1.09471 0.426052 2.30011e-19)
(1.10046 0.424958 5.30476e-19)
(1.10223 0.423341 1.65677e-19)
(1.10501 0.417317 3.06233e-19)
(1.1061 0.417804 1.53407e-19)
(1.11169 0.407716 7.48573e-20)
(1.1153 0.407215 2.51424e-19)
(-0.0415206 0.00340319 3.05421e-19)
(-0.0631934 0.00510566 -5.15181e-19)
(0.0445102 -0.00222231 -1.01526e-19)
(0.439724 0.176102 2.34649e-19)
(0.768615 0.303957 -4.98633e-19)
(0.958825 0.377924 -2.05946e-19)
(1.04909 0.413109 -4.21133e-19)
(1.08473 0.425809 -1.43069e-20)
(1.09626 0.427904 -1.14353e-19)
(1.09956 0.425608 -4.46875e-19)
(1.10047 0.42288 3.41794e-19)
(1.1026 0.416521 2.59496e-20)
(1.10371 0.416236 -1.49402e-20)
(1.10895 0.405182 1.31065e-19)
(1.11112 0.404898 -3.09251e-19)
(-0.042344 0.00660199 -2.17175e-20)
(-0.0596316 -0.0018385 2.27672e-19)
(0.120116 0.0283564 6.49107e-20)
(0.547008 0.219262 -3.32889e-19)
(0.840498 0.333246 2.2174e-19)
(0.996503 0.394505 7.1509e-20)
(1.06481 0.421295 -1.87545e-19)
(1.08928 0.429443 -8.91217e-20)
(1.09626 0.429411 -2.71685e-19)
(1.09782 0.426131 4.8759e-20)
(1.09827 0.422499 -3.30933e-19)
(1.10012 0.416018 -2.36856e-19)
(1.10078 0.414671 6.41623e-20)
(1.10557 0.402811 6.81813e-20)
(1.10735 0.403204 -1.19444e-19)
(-0.0432174 0.010073 -1.1354e-19)
(-0.0468231 -0.0101806 -7.229e-20)
(0.218576 0.0775342 1.53646e-19)
(0.640555 0.257102 2.88098e-19)
(0.898927 0.357883 5.61446e-20)
(1.02484 0.408059 -1.5397e-19)
(1.0754 0.427808 1.94228e-19)
(1.0916 0.432374 1.69611e-19)
(1.09528 0.430661 8.85867e-20)
(1.09571 0.426648 1.70889e-20)
(1.09575 0.422253 1.06452e-19)
(1.09705 0.415503 4.76951e-20)
(1.09766 0.413252 -3.42828e-20)
(1.1022 0.400984 -4.33213e-20)
(1.10294 0.401518 3.95771e-20)
(-0.0444786 0.0107515 -5.29173e-20)
(-0.020832 -0.015197 -6.21393e-20)
(0.33005 0.128914 5.09094e-20)
(0.722092 0.289282 -6.7822e-20)
(0.945265 0.378374 -1.46097e-19)
(1.04579 0.419116 1.10169e-20)
(1.08225 0.433073 8.97445e-20)