/*--------------------------------*- C++ -*----------------------------------*\
  =========                 |
  \\      /  F ield         | OpenFOAM: The Open Source CFD Toolbox
   \\    /   O peration     | Website:  https://openfoam.org
    \\  /    A nd           | Version:  7
     \\/     M anipulation  |
\*---------------------------------------------------------------------------*/
FoamFile
{
    version     2.0;
    format      ascii;
    class       volScalarField;
    location    "5";
    object      p;
}
// * * * * * * * * * * * * * * * * * * * * * * * * * * * * * * * * * * * * * //

dimensions      [0 2 -2 0 0 0 0];

internalField   nonuniform List<scalar> 
8500
(
-0.336104
-0.342818
-0.346384
-0.350723
-0.356596
-0.364352
-0.374204
-0.386181
-0.400129
-0.416243
-0.33721
-0.343692
-0.34719
-0.351494
-0.357349
-0.365102
-0.374966
-0.38698
-0.400954
-0.417079
-0.339347
-0.345377
-0.348741
-0.352969
-0.35878
-0.366517
-0.376392
-0.388461
-0.402475
-0.418575
-0.342374
-0.347755
-0.350918
-0.355023
-0.360753
-0.368442
-0.3783
-0.390408
-0.404453
-0.420409
-0.346096
-0.350668
-0.353563
-0.357487
-0.36308
-0.370668
-0.380447
-0.392534
-0.406581
-0.422168
-0.350288
-0.353934
-0.356496
-0.360172
-0.365553
-0.372958
-0.382565
-0.394517
-0.408531
-0.423406
-0.354715
-0.357369
-0.359536
-0.362887
-0.367962
-0.375078
-0.384388
-0.396042
-0.409997
-0.423692
-0.359153
-0.360801
-0.362521
-0.365461
-0.370121
-0.376819
-0.385688
-0.396833
-0.41072
-0.422738
-0.36341
-0.364089
-0.365318
-0.367762
-0.371887
-0.378024
-0.386298
-0.396694
-0.410387
-0.420918
-0.367328
-0.367131
-0.367841
-0.369705
-0.373173
-0.378599
-0.386131
-0.395711
-0.408674
-0.417986
-0.370811
-0.369868
-0.370042
-0.371257
-0.373956
-0.378531
-0.385174
-0.393752
-0.406008
-0.413734
-0.373814
-0.372279
-0.371921
-0.372433
-0.37427
-0.377877
-0.383515
-0.390948
-0.40255
-0.408405
-0.376343
-0.374385
-0.373513
-0.37329
-0.374202
-0.376759
-0.381317
-0.387532
-0.398522
-0.402342
-0.378456
-0.376237
-0.374881
-0.373917
-0.373874
-0.375344
-0.378797
-0.383792
-0.394236
-0.395917
-0.38025
-0.377912
-0.37611
-0.374421
-0.373435
-0.373831
-0.376193
-0.380052
-0.389992
-0.389586
-0.381862
-0.37951
-0.3773
-0.374924
-0.373042
-0.372423
-0.373745
-0.376638
-0.385967
-0.383824
-0.383452
-0.381145
-0.378562
-0.375552
-0.372851
-0.371314
-0.371665
-0.373846
-0.382145
-0.378978
-0.385193
-0.38294
-0.380012
-0.37643
-0.373007
-0.370672
-0.370131
-0.371894
-0.3784
-0.375127
-0.387261
-0.385017
-0.381764
-0.377675
-0.373633
-0.370623
-0.369279
-0.370843
-0.37474
-0.372754
-0.389819
-0.387493
-0.383922
-0.379383
-0.374817
-0.37124
-0.369175
-0.370492
-0.371504
-0.37399
-0.392997
-0.390469
-0.38657
-0.381626
-0.37661
-0.372533
-0.36981
-0.370463
-0.36915
-0.379082
-0.396889
-0.394029
-0.38977
-0.384444
-0.379021
-0.374466
-0.371094
-0.370581
-0.367898
-0.37386
-0.401568
-0.39822
-0.393559
-0.387849
-0.382031
-0.37697
-0.372868
-0.37089
-0.366655
-0.367792
-0.407072
-0.403073
-0.397957
-0.391839
-0.385602
-0.379963
-0.37498
-0.371343
-0.365232
-0.362273
-0.413411
-0.408605
-0.402974
-0.396407
-0.389693
-0.383364
-0.377311
-0.371804
-0.363606
-0.35693
-0.42058
-0.414827
-0.408621
-0.401547
-0.394263
-0.387096
-0.379749
-0.372153
-0.361676
-0.351817
-0.428565
-0.421746
-0.41491
-0.407258
-0.399279
-0.391083
-0.382175
-0.37227
-0.359422
-0.346772
-0.43735
-0.429368
-0.421854
-0.413537
-0.404702
-0.395239
-0.384462
-0.37206
-0.356821
-0.341722
-0.446911
-0.437694
-0.429459
-0.420369
-0.410481
-0.399454
-0.386485
-0.371449
-0.353863
-0.336586
-0.457212
-0.446711
-0.437715
-0.427717
-0.416535
-0.40359
-0.388125
-0.370379
-0.350536
-0.331301
-0.468201
-0.456389
-0.446582
-0.435515
-0.422741
-0.407492
-0.389275
-0.368803
-0.346822
-0.325809
-0.479798
-0.46667
-0.455988
-0.443655
-0.428935
-0.410997
-0.389841
-0.366681
-0.342696
-0.320053
-0.491892
-0.477461
-0.465821
-0.451985
-0.434916
-0.413943
-0.389733
-0.363968
-0.338121
-0.313976
-0.504333
-0.488628
-0.475926
-0.460301
-0.440459
-0.416171
-0.388872
-0.360619
-0.333052
-0.30752
-0.516933
-0.499997
-0.486103
-0.468356
-0.445333
-0.417534
-0.387175
-0.35658
-0.327438
-0.300626
-0.529464
-0.511352
-0.496108
-0.47587
-0.449306
-0.417892
-0.384563
-0.351794
-0.321221
-0.293237
-0.541658
-0.522434
-0.505655
-0.48254
-0.452156
-0.417111
-0.380956
-0.346197
-0.31434
-0.285296
-0.553216
-0.532952
-0.514425
-0.488061
-0.453673
-0.415068
-0.376273
-0.339724
-0.306732
-0.276749
-0.563808
-0.542585
-0.522073
-0.492136
-0.453662
-0.411646
-0.370435
-0.332308
-0.298336
-0.267549
-0.573088
-0.550989
-0.528246
-0.494481
-0.451949
-0.40674
-0.363366
-0.323884
-0.289094
-0.257656
-0.580697
-0.557807
-0.532591
-0.49484
-0.448378
-0.40025
-0.354993
-0.314389
-0.278956
-0.247037
-0.586277
-0.562682
-0.534778
-0.492984
-0.442813
-0.392091
-0.345248
-0.303764
-0.26788
-0.235669
-0.589481
-0.565261
-0.534502
-0.488716
-0.435141
-0.382186
-0.334069
-0.291957
-0.255829
-0.223533
-0.58998
-0.565214
-0.531499
-0.481875
-0.425271
-0.370476
-0.321406
-0.278919
-0.242758
-0.210568
-0.587477
-0.562242
-0.525548
-0.47234
-0.413139
-0.356917
-0.307224
-0.264617
-0.228605
-0.196603
-0.58171
-0.556084
-0.516477
-0.460024
-0.398703
-0.341483
-0.291505
-0.249039
-0.213331
-0.181399
-0.572465
-0.546532
-0.50416
-0.44488
-0.381946
-0.324164
-0.274239
-0.232191
-0.196987
-0.164985
-0.559576
-0.533435
-0.488518
-0.426895
-0.362875
-0.304961
-0.255423
-0.214088
-0.179631
-0.148183
-0.542932
-0.516696
-0.469524
-0.406091
-0.341521
-0.283898
-0.235099
-0.194808
-0.161134
-0.130838
-0.522479
-0.496275
-0.447195
-0.382527
-0.317941
-0.261033
-0.213381
-0.17432
-0.141634
-0.112771
-0.498216
-0.472193
-0.421602
-0.356299
-0.292215
-0.236477
-0.190268
-0.152667
-0.121223
-0.0939617
-0.470199
-0.444527
-0.392891
-0.327518
-0.26443
-0.210288
-0.165828
-0.129929
-0.0999616
-0.0744667
-0.438535
-0.413422
-0.361268
-0.296257
-0.2347
-0.182559
-0.140154
-0.106192
-0.0779167
-0.0543747
-0.403393
-0.37909
-0.326843
-0.262602
-0.203213
-0.153423
-0.113357
-0.081551
-0.0551684
-0.033784
-0.365001
-0.341816
-0.289366
-0.227039
-0.170126
-0.123023
-0.0855605
-0.0561061
-0.0317971
-0.0127724
-0.32358
-0.301842
-0.249223
-0.189675
-0.135643
-0.0915237
-0.0568988
-0.0299577
-0.00787454
0.00858108
-0.279317
-0.258864
-0.207535
-0.150728
-0.0999554
-0.0590957
-0.0275082
-0.00319744
0.016495
0.030022
-0.232559
-0.213679
-0.164306
-0.110477
-0.0632708
-0.0259147
0.00248354
0.0240837
0.0410774
0.0509484
-0.183927
-0.166482
-0.119662
-0.0691885
-0.0258152
0.00783862
0.0329487
0.0517481
0.065509
0.0708297
-0.133571
-0.117794
-0.0738775
-0.0271313
0.012176
0.0419759
0.0637185
0.0795211
0.0894872
0.0905736
-0.0819014
-0.0680324
-0.0272899
0.015416
0.0504648
0.0762968
0.0945609
0.107011
0.11276
0.114147
-0.029352
-0.0175846
0.019744
0.0581651
0.0888102
0.110588
0.125233
0.134138
0.136546
0.137861
0.0236452
0.033156
0.0668654
0.100822
0.126966
0.144631
0.155571
0.160965
0.160519
0.160547
0.0766561
0.0837909
0.113717
0.14309
0.164682
0.178207
0.185414
0.187397
0.184304
0.18244
0.129247
0.13392
0.159948
0.184674
0.201709
0.211106
0.214602
0.213269
0.207572
0.203485
0.180989
0.183148
0.20521
0.225283
0.237801
0.243121
0.242967
0.238414
0.230139
0.223672
0.23146
0.231085
0.249169
0.264633
0.272717
0.274047
0.270335
0.262663
0.251848
0.242938
0.28025
0.277354
0.291496
0.302448
0.306224
0.303689
0.296539
0.285863
0.272572
0.261213
0.326963
0.321592
0.331879
0.338465
0.338098
0.331856
0.321413
0.307868
0.29219
0.278419
0.371221
0.363452
0.37002
0.372432
0.368126
0.358365
0.344803
0.328545
0.310592
0.294482
0.41267
0.40261
0.405641
0.404113
0.396107
0.383046
0.366563
0.347767
0.327673
0.309328
0.450975
0.438762
0.438479
0.433286
0.421852
0.405739
0.386555
0.365417
0.343338
0.322889
0.485831
0.471629
0.468297
0.45975
0.445191
0.426297
0.404654
0.38139
0.357495
0.335103
0.516959
0.500959
0.494877
0.483321
0.465965
0.444586
0.420748
0.395586
0.370066
0.345914
0.544113
0.526526
0.518026
0.503835
0.484037
0.460488
0.434736
0.407919
0.380977
0.355272
0.567077
0.548136
0.537578
0.521151
0.499286
0.473901
0.446529
0.418315
0.390166
0.363135
0.585669
0.565624
0.553391
0.535149
0.511609
0.484737
0.456053
0.426709
0.397582
0.369467
0.599742
0.578857
0.565352
0.545733
0.520923
0.492926
0.46325
0.43305
0.403181
0.374241
0.609187
0.587735
0.573373
0.55283
0.527168
0.498415
0.468072
0.437299
0.406931
0.377435
0.613928
0.592191
0.577399
0.55639
0.530301
0.501168
0.470491
0.43943
0.408812
0.379036
0.613928
0.592191
0.577399
0.55639
0.530301
0.501168
0.470491
0.43943
0.408812
0.379036
0.609187
0.587735
0.573373
0.55283
0.527168
0.498415
0.468072
0.437299
0.406931
0.377435
0.599742
0.578857
0.565352
0.545733
0.520923
0.492926
0.46325
0.43305
0.403181
0.374241
0.585669
0.565624
0.553391
0.535149
0.511609
0.484737
0.456053
0.426709
0.397582
0.369467
0.567077
0.548136
0.537578
0.521151
0.499286
0.473901
0.446529
0.418315
0.390166
0.363135
0.544113
0.526526
0.518026
0.503835
0.484037
0.460489
0.434736
0.407919
0.380977
0.355272
0.516959
0.500959
0.494877
0.483321
0.465965
0.444586
0.420748
0.395586
0.370066
0.345914
0.485831
0.47163
0.468297
0.45975
0.445191
0.426297
0.404654
0.38139
0.357495
0.335103
0.450975
0.438763
0.438479
0.433286
0.421852
0.405739
0.386555
0.365418
0.343338
0.322889
0.41267
0.40261
0.405641
0.404113
0.396107
0.383046
0.366563
0.347767
0.327674
0.309328
0.371221
0.363452
0.37002
0.372432
0.368126
0.358365
0.344803
0.328545
0.310592
0.294482
0.326963
0.321592
0.331879
0.338465
0.338098
0.331856
0.321413
0.307868
0.29219
0.278419
0.28025
0.277354
0.291496
0.302448
0.306224
0.303689
0.296539
0.285863
0.272572
0.261213
0.23146
0.231085
0.249169
0.264633
0.272717
0.274048
0.270336
0.262663
0.251848
0.242938
0.180989
0.183148
0.205211
0.225283
0.237801
0.243121
0.242967
0.238414
0.230139
0.223672
0.129247
0.13392
0.159948
0.184674
0.201709
0.211106
0.214602
0.213269
0.207572
0.203485
0.0766562
0.083791
0.113717
0.14309
0.164682
0.178207
0.185414
0.187397
0.184304
0.18244
0.0236452
0.0331561
0.0668654
0.100822
0.126966
0.144631
0.155571
0.160965
0.160519
0.160547
-0.0293519
-0.0175845
0.0197441
0.0581652
0.0888103
0.110588
0.125233
0.134138
0.136546
0.137861
-0.0819013
-0.0680323
-0.0272898
0.0154161
0.0504649
0.0762969
0.094561
0.107011
0.11276
0.114147
-0.133571
-0.117794
-0.0738774
-0.0271312
0.0121761
0.041976
0.0637185
0.0795212
0.0894872
0.0905737
-0.183927
-0.166482
-0.119662
-0.0691884
-0.0258152
0.00783869
0.0329487
0.0517482
0.0655091
0.0708298
-0.232559
-0.213679
-0.164306
-0.110477
-0.0632707
-0.0259147
0.00248361
0.0240838
0.0410775
0.0509484
-0.279317
-0.258864
-0.207535
-0.150728
-0.0999553
-0.0590956
-0.0275082
-0.00319737
0.0164951
0.0300221
-0.323579
-0.301842
-0.249223
-0.189675
-0.135643
-0.0915236
-0.0568987
-0.0299576
-0.00787447
0.00858115
-0.365001
-0.341816
-0.289366
-0.227038
-0.170126
-0.123023
-0.0855604
-0.0561061
-0.031797
-0.0127724
-0.403393
-0.37909
-0.326843
-0.262602
-0.203213
-0.153423
-0.113357
-0.0815509
-0.0551683
-0.0337839
-0.438534
-0.413422
-0.361268
-0.296257
-0.2347
-0.182559
-0.140154
-0.106192
-0.0779166
-0.0543746
-0.470198
-0.444527
-0.392891
-0.327518
-0.264429
-0.210288
-0.165828
-0.129929
-0.0999616
-0.0744666
-0.498216
-0.472192
-0.421602
-0.356298
-0.292215
-0.236476
-0.190268
-0.152667
-0.121223
-0.0939616
-0.522479
-0.496275
-0.447194
-0.382527
-0.317941
-0.261033
-0.213381
-0.17432
-0.141634
-0.112771
-0.542932
-0.516696
-0.469524
-0.406091
-0.341521
-0.283898
-0.235099
-0.194807
-0.161134
-0.130838
-0.559576
-0.533435
-0.488518
-0.426895
-0.362875
-0.304961
-0.255423
-0.214087
-0.179631
-0.148183
-0.572465
-0.546532
-0.504159
-0.44488
-0.381946
-0.324163
-0.274239
-0.232191
-0.196987
-0.164985
-0.58171
-0.556083
-0.516476
-0.460024
-0.398703
-0.341483
-0.291505
-0.249039
-0.213331
-0.181398
-0.587476
-0.562241
-0.525548
-0.47234
-0.413139
-0.356917
-0.307224
-0.264616
-0.228605
-0.196603
-0.58998
-0.565214
-0.531499
-0.481875
-0.425271
-0.370476
-0.321406
-0.278919
-0.242758
-0.210567
-0.589481
-0.565261
-0.534502
-0.488716
-0.435141
-0.382186
-0.334069
-0.291957
-0.255829
-0.223533
-0.586277
-0.562681
-0.534778
-0.492984
-0.442813
-0.39209
-0.345247
-0.303764
-0.26788
-0.235668
-0.580697
-0.557807
-0.532591
-0.49484
-0.448378
-0.40025
-0.354993
-0.314389
-0.278956
-0.247036
-0.573088
-0.550989
-0.528245
-0.494481
-0.451949
-0.40674
-0.363366
-0.323884
-0.289094
-0.257656
-0.563808
-0.542585
-0.522073
-0.492135
-0.453662
-0.411646
-0.370435
-0.332308
-0.298336
-0.267549
-0.553216
-0.532952
-0.514425
-0.488061
-0.453673
-0.415067
-0.376272
-0.339724
-0.306732
-0.276749
-0.541658
-0.522434
-0.505655
-0.48254
-0.452156
-0.417111
-0.380955
-0.346197
-0.31434
-0.285296
-0.529464
-0.511351
-0.496108
-0.475869
-0.449306
-0.417891
-0.384563
-0.351793
-0.321221
-0.293237
-0.516933
-0.499997
-0.486103
-0.468356
-0.445333
-0.417534
-0.387175
-0.35658
-0.327438
-0.300626
-0.504333
-0.488628
-0.475926
-0.460301
-0.440459
-0.416171
-0.388871
-0.360619
-0.333052
-0.30752
-0.491891
-0.477461
-0.465821
-0.451984
-0.434915
-0.413942
-0.389733
-0.363968
-0.338121
-0.313976
-0.479798
-0.46667
-0.455988
-0.443655
-0.428935
-0.410997
-0.38984
-0.36668
-0.342696
-0.320053
-0.468201
-0.456389
-0.446581
-0.435514
-0.422741
-0.407492
-0.389275
-0.368803
-0.346822
-0.325809
-0.457212
-0.446711
-0.437714
-0.427717
-0.416535
-0.40359
-0.388125
-0.370378
-0.350536
-0.331301
-0.44691
-0.437693
-0.429459
-0.420369
-0.410481
-0.399453
-0.386485
-0.371449
-0.353862
-0.336585
-0.43735
-0.429368
-0.421854
-0.413537
-0.404702
-0.395239
-0.384462
-0.37206
-0.356821
-0.341721
-0.428565
-0.421746
-0.41491
-0.407258
-0.399279
-0.391083
-0.382175
-0.37227
-0.359422
-0.346772
-0.420579
-0.414827
-0.408621
-0.401547
-0.394263
-0.387096
-0.379749
-0.372153
-0.361676
-0.351817
-0.41341
-0.408605
-0.402974
-0.396407
-0.389693
-0.383364
-0.377311
-0.371804
-0.363605
-0.356929
-0.407071
-0.403073
-0.397957
-0.391839
-0.385602
-0.379963
-0.37498
-0.371342
-0.365232
-0.362273
-0.401568
-0.39822
-0.393559
-0.387848
-0.382031
-0.37697
-0.372868
-0.37089
-0.366655
-0.367792
-0.396889
-0.394028
-0.38977
-0.384443
-0.379021
-0.374466
-0.371094
-0.370581
-0.367898
-0.37386
-0.392997
-0.390469
-0.38657
-0.381626
-0.376609
-0.372533
-0.36981
-0.370463
-0.36915
-0.379082
-0.389818
-0.387493
-0.383922
-0.379383
-0.374817
-0.371239
-0.369175
-0.370492
-0.371504
-0.37399
-0.387261
-0.385017
-0.381764
-0.377675
-0.373632
-0.370623
-0.369279
-0.370842
-0.37474
-0.372754
-0.385192
-0.382939
-0.380012
-0.37643
-0.373007
-0.370672
-0.370131
-0.371894
-0.3784
-0.375127
-0.383452
-0.381145
-0.378562
-0.375552
-0.372851
-0.371314
-0.371665
-0.373846
-0.382145
-0.378978
-0.381862
-0.37951
-0.3773
-0.374924
-0.373042
-0.372423
-0.373745
-0.376638
-0.385967
-0.383823
-0.38025
-0.377912
-0.37611
-0.374421
-0.373435
-0.373831
-0.376193
-0.380052
-0.389992
-0.389586
-0.378455
-0.376236
-0.374881
-0.373917
-0.373874
-0.375344
-0.378797
-0.383792
-0.394236
-0.395917
-0.376343
-0.374385
-0.373513
-0.37329
-0.374202
-0.376758
-0.381317
-0.387531
-0.398522
-0.402341
-0.373814
-0.372279
-0.371921
-0.372433
-0.37427
-0.377877
-0.383514
-0.390947
-0.40255
-0.408405
-0.370811
-0.369868
-0.370042
-0.371257
-0.373956
-0.378531
-0.385174
-0.393752
-0.406008
-0.413734
-0.367328
-0.367131
-0.367841
-0.369705
-0.373173
-0.378599
-0.386131
-0.395711
-0.408674
-0.417986
-0.36341
-0.364089
-0.365317
-0.367762
-0.371887
-0.378023
-0.386298
-0.396693
-0.410387
-0.420918
-0.359153
-0.360801
-0.36252
-0.365461
-0.370121
-0.376819
-0.385687
-0.396832
-0.41072
-0.422738
-0.354715
-0.357369
-0.359536
-0.362887
-0.367962
-0.375078
-0.384388
-0.396042
-0.409996
-0.423692
-0.350288
-0.353934
-0.356496
-0.360172
-0.365553
-0.372958
-0.382565
-0.394517
-0.408531
-0.423406
-0.346096
-0.350668
-0.353563
-0.357487
-0.36308
-0.370668
-0.380447
-0.392534
-0.406581
-0.422168
-0.342374
-0.347755
-0.350918
-0.355022
-0.360752
-0.368442
-0.3783
-0.390408
-0.404453
-0.420409
-0.339347
-0.345377
-0.348741
-0.352969
-0.35878
-0.366517
-0.376392
-0.388461
-0.402475
-0.418575
-0.33721
-0.343692
-0.34719
-0.351494
-0.357349
-0.365102
-0.374966
-0.38698
-0.400954
-0.417079
-0.336104
-0.342818
-0.346384
-0.350723
-0.356596
-0.364352
-0.374204
-0.386181
-0.400129
-0.416243
-0.434737
-0.451749
-0.466803
-0.476452
-0.478624
-0.46971
-0.447315
-0.408337
-0.350803
-0.275832
-0.190134
-0.104882
-0.0312627
0.0240076
0.0598776
0.0789846
0.0856501
0.0841491
0.0778556
0.0692794
0.0599178
0.0507929
0.0421878
0.0344893
0.0274331
0.0213939
0.0157461
0.0111287
0.00632699
0.00258667
-0.436107
-0.453158
-0.468376
-0.478203
-0.480585
-0.471811
-0.449959
-0.411375
-0.354121
-0.279152
-0.193141
-0.107367
-0.0332146
0.022536
0.0587648
0.0781468
0.0850228
0.0836825
0.0775099
0.0690232
0.0597278
0.0506528
0.0420857
0.0344163
0.027382
0.0213589
0.0157231
0.0111139
0.00631929
0.0025825
-0.438611
-0.45573
-0.471264
-0.481445
-0.484264
-0.476133
-0.454965
-0.417133
-0.360457
-0.285537
-0.198966
-0.112245
-0.0370403
0.0196065
0.0565425
0.0764695
0.0837655
0.0827478
0.0768183
0.0685117
0.0593492
0.050374
0.0418827
0.0342711
0.0272804
0.0212893
0.0156773
0.0110843
0.00630395
0.00257422
-0.441817
-0.459022
-0.475003
-0.485702
-0.489167
-0.4821
-0.461768
-0.425038
-0.369267
-0.294517
-0.207274
-0.119345
-0.0426084
0.0152703
0.0532228
0.0739529
0.0818761
0.0813436
0.0757814
0.0677469
0.0587849
0.0499593
0.041581
0.0340554
0.0271292
0.0211856
0.015609
0.0110403
0.00628107
0.00256191
-0.445169
-0.462474
-0.479004
-0.490372
-0.494647
-0.488751
-0.469643
-0.434359
-0.379848
-0.305493
-0.217677
-0.12828
-0.0497984
0.00959866
0.0488336
0.0706053
0.0793569
0.0794714
0.0744017
0.0667327
0.0580391
0.0494127
0.0411839
0.0337713
0.02693
0.0210488
0.0155188
0.010982
0.00625076
0.00254568
-0.448081
-0.465499
-0.482654
-0.494824
-0.50005
-0.495462
-0.477852
-0.444322
-0.391452
-0.317865
-0.229696
-0.138552
-0.058462
0.00268509
0.0434221
0.0664494
0.0762193
0.0771385
0.0726853
0.0654749
0.0571176
0.0487393
0.0406954
0.0334217
0.0266847
0.0208799
0.0154073
0.0109097
0.00621321
0.00252569
-0.450068
-0.467569
-0.485404
-0.498487
-0.504805
-0.501628
-0.485728
-0.454224
-0.403405
-0.330983
-0.242365
-0.150116
-0.0683243
-0.00534628
0.0370567
0.0615245
0.0724868
0.0743599
0.0706431
0.0639824
0.0560279
0.0479452
0.0401202
0.03301
0.0263954
0.0206803
0.0152752
0.010824
0.00616862
0.00250213
-0.450807
-0.468286
-0.48683
-0.500916
-0.508445
-0.506774
-0.492742
-0.46349
-0.415066
-0.343742
-0.255641
-0.162517
-0.0791508
-0.014349
0.0298276
0.0558868
0.0681951
0.0711588
0.0682909
0.0622665
0.0547788
0.0470372
0.0394634
0.0325397
0.0260645
0.0204513
0.0151235
0.0107251
0.00611721
0.00247518
-0.449289
-0.46762
-0.48669
-0.501811
-0.510623
-0.510522
-0.498445
-0.471508
-0.425459
-0.35643
-0.268977
-0.175383
-0.0907006
-0.0241589
0.021842
0.0496071
0.063391
0.0675659
0.0656489
0.0603415
0.0533804
0.0460229
0.0387306
0.0320146
0.0256945
0.0201946
0.014953
0.0106137
0.00605923
0.00244508
-0.446133
-0.46536
-0.484884
-0.501043
-0.511153
-0.512659
-0.502635
-0.478127
-0.434709
-0.368125
-0.281917
-0.188381
-0.102727
-0.0346025
0.0132186
0.0427663
0.0581293
0.0636176
0.0627411
0.0582233
0.051844
0.0449101
0.0379273
0.0314386
0.025288
0.0199117
0.0147648
0.0104903
0.00599493
0.00241203
-0.44162
-0.461542
-0.481485
-0.498641
-0.510054
-0.513179
-0.505195
-0.483111
-0.442428
-0.378547
-0.294134
-0.201205
-0.114993
-0.0455048
0.00408181
0.0354513
0.0524698
0.0593545
0.0595941
0.0559296
0.0501813
0.0437071
0.0370592
0.0308157
0.0248477
0.0196044
0.0145596
0.0103554
0.00592458
0.00237626
-0.435982
-0.456452
-0.476687
-0.494723
-0.507381
-0.512095
-0.506117
-0.486387
-0.448449
-0.387482
-0.305354
-0.213596
-0.127282
-0.0566955
-0.00544317
0.0277506
0.0464739
0.054818
0.0562352
0.0534785
0.0484044
0.0424219
0.036132
0.0301497
0.024376
0.0192741
0.0143387
0.0102096
0.00584842
0.002338
-0.429664
-0.450412
-0.470741
-0.489497
-0.503287
-0.509498
-0.505446
-0.48798
-0.452707
-0.394777
-0.315375
-0.225341
-0.139401
-0.0680182
-0.0152389
0.0197483
0.0402002
0.0500482
0.0526912
0.0508877
0.046525
0.0410625
0.0351511
0.0294442
0.0238755
0.0189226
0.0141028
0.0100534
0.00576672
0.00229747
-0.423143
-0.44374
-0.46393
-0.483204
-0.497963
-0.505529
-0.503266
-0.487924
-0.455219
-0.400359
-0.32406
-0.236284
-0.151198
-0.0793398
-0.0252013
0.0115207
0.0337033
0.0450828
0.0489878
0.0481741
0.0445544
0.0396365
0.0341216
0.028703
0.0233485
0.0185514
0.013853
0.00988745
0.00567974
0.00225487
-0.416776
-0.436726
-0.456527
-0.476075
-0.491599
-0.500329
-0.499667
-0.486281
-0.456019
-0.404235
-0.331335
-0.246305
-0.162532
-0.0905254
-0.0352174
0.00315349
0.0270446
0.0399645
0.0451533
0.0453553
0.0425037
0.0381508
0.0330481
0.027929
0.0227972
0.0181618
0.0135901
0.00971221
0.0055877
0.00221038
-0.410778
-0.429585
-0.448755
-0.468298
-0.484345
-0.494025
-0.494735
-0.483115
-0.455153
-0.406453
-0.337135
-0.255252
-0.173208
-0.101383
-0.0451286
-0.00523757
0.0203027
0.0347445
0.0412208
0.0424521
0.0403856
0.0366134
0.0319356
0.0271254
0.0222236
0.0177553
0.0133148
0.00952814
0.00549078
0.00216418
-0.405218
-0.422425
-0.440778
-0.460007
-0.476371
-0.486734
-0.48859
-0.478532
-0.452725
-0.407081
-0.341474
-0.263041
-0.18312
-0.111822
-0.0548736
-0.0136143
0.0135014
0.0294397
0.0372035
0.0394767
0.0382106
0.035032
0.0307896
0.0262961
0.0216302
0.0173333
0.0130282
0.00933589
0.00538927
0.00211644
-0.399949
-0.415203
-0.43268
-0.451303
-0.468025
-0.47842
-0.481278
-0.472663
-0.448983
-0.4065
-0.344865
-0.270246
-0.192851
-0.122374
-0.0648721
-0.0222708
0.00645467
0.023943
0.0330447
0.0364014
0.0359693
0.0334063
0.029613
0.0254447
0.0210204
0.0168988
0.0127322
0.0091369
0.00528396
0.00206755
-0.395282
-0.407818
-0.424252
-0.441918
-0.456988
-0.468596
-0.472361
-0.465272
-0.443974
-0.405062
-0.34788
-0.277445
-0.202883
-0.13339
-0.0753601
-0.0313552
-0.000925673
0.018203
0.0287135
0.0331996
0.0336397
0.0317222
0.0283982
0.024568
0.020393
0.0164517
0.0124272
0.00893161
0.00517527
0.00201781
-0.39168
-0.400392
-0.4156
-0.431715
-0.446297
-0.458253
-0.462092
-0.45598
-0.43649
-0.400457
-0.347048
-0.280405
-0.208743
-0.14086
-0.083214
-0.0386855
-0.00724401
0.0130444
0.0246623
0.0301008
0.0313145
0.0300022
0.0271385
0.0236485
0.0197311
0.0159767
0.0121024
0.00871124
0.00505852
0.00196539
-0.376567
-0.391727
-0.409623
-0.425065
-0.438628
-0.448927
-0.452217
-0.445522
-0.425705
-0.390128
-0.338419
-0.274628
-0.206355
-0.141608
-0.0862449
-0.0429801
-0.0119185
0.00858485
0.0207494
0.0268594
0.0287368
0.0279963
0.0256098
0.0224951
0.018884
0.0153565
0.0116749
0.0084159
0.00490136
0.00189551
-0.371915
-0.384955
-0.400183
-0.412876
-0.423581
-0.431338
-0.432678
-0.424518
-0.404298
-0.370108
-0.321969
-0.263419
-0.200886
-0.141194
-0.0894708
-0.048294
-0.0180017
0.00263136
0.0154314
0.0223792
0.0251186
0.025154
0.0234297
0.0208454
0.0176665
0.0144676
0.0110614
0.00799969
0.00467781
0.00179971
-0.363922
-0.375423
-0.387043
-0.397015
-0.405293
-0.410679
-0.410143
-0.400942
-0.380981
-0.348887
-0.304855
-0.251806
-0.195036
-0.140327
-0.0922094
-0.0531623
-0.0237551
-0.003139
0.0101602
0.0178452
0.0213881
0.0221763
0.0211136
0.0190726
0.0163443
0.0134953
0.0103848
0.00754058
0.0044284
0.00169619
-0.352464
-0.362877
-0.37107
-0.378453
-0.384689
-0.388103
-0.386101
-0.376352
-0.357134
-0.32745
-0.287579
-0.239895
-0.188714
-0.138885
-0.0943778
-0.0575495
-0.0291583
-0.00869209
0.00499452
0.0133359
0.0176303
0.019143
0.0187308
0.0172331
0.0149619
0.0124722
0.00966818
0.00705271
0.00416168
0.00158763
-0.337675
-0.34772
-0.353383
-0.358327
-0.362725
-0.364571
-0.361518
-0.351601
-0.333437
-0.306304
-0.270508
-0.227955
-0.182102
-0.136969
-0.0960094
-0.0614484
-0.0341873
-0.0140024
-4.52111e-05
0.00886421
0.0138516
0.0160559
0.0162805
0.0153249
0.0135167
0.0113958
0.00890943
0.00653445
0.00387647
0.00147332
-0.320513
-0.330604
-0.334645
-0.337584
-0.34034
-0.340968
-0.337235
-0.327453
-0.310532
-0.28596
-0.254034
-0.216254
-0.17536
-0.134654
-0.097124
-0.0648427
-0.0388064
-0.0190282
-0.00492079
0.00446007
0.0100723
0.0129272
0.0137685
0.0133496
0.0120077
0.010264
0.00810629
0.00598415
0.00357143
0.00135292
-0.302222
-0.312255
-0.315366
-0.316865
-0.318253
-0.317942
-0.313828
-0.304412
-0.288829
-0.266725
-0.238372
-0.204942
-0.168586
-0.131999
-0.0977446
-0.0677273
-0.0429909
-0.023735
-0.00959596
0.000156097
0.00631877
0.00977636
0.011208
0.0113154
0.0104396
0.00907945
0.00725966
0.00540214
0.00324645
0.0012266
-0.283538
-0.293309
-0.295948
-0.296518
-0.296876
-0.295875
-0.291609
-0.282721
-0.268501
-0.248714
-0.223604
-0.194087
-0.161843
-0.129054
-0.0979001
-0.0701073
-0.0467264
-0.028096
-0.0140394
-0.00401737
0.00261703
0.00662368
0.00861362
0.00923231
0.00881856
0.00784565
0.0063714
0.00478942
0.00290184
0.00109459
-0.26493
-0.274288
-0.276711
-0.276753
-0.276418
-0.274948
-0.270697
-0.262435
-0.249562
-0.23192
-0.209731
-0.183712
-0.15517
-0.125861
-0.0976214
-0.071995
-0.0500065
-0.0320912
-0.0182239
-0.00803216
-0.00100753
0.00348982
0.0060008
0.00711107
0.00715161
0.00656702
0.00544392
0.00414737
0.00253812
0.000957161
-0.246734
-0.255563
-0.257893
-0.257698
-0.256952
-0.255207
-0.251093
-0.243515
-0.231949
-0.216282
-0.196714
-0.173812
-0.148592
-0.122456
-0.0969414
-0.0734086
-0.0528316
-0.0357063
-0.0221267
-0.0118623
-0.00453012
0.000395898
0.00338601
0.00496368
0.00544693
0.00524887
0.0044804
0.00347786
0.00215612
0.000814642
-0.229137
-0.237375
-0.239668
-0.239423
-0.238487
-0.236634
-0.23275
-0.225884
-0.215567
-0.201713
-0.184498
-0.16437
-0.142123
-0.118874
-0.0958947
-0.0743709
-0.055208
-0.0389329
-0.0257288
-0.0154841
-0.0079268
-0.0026367
0.000786667
0.00280335
0.00371391
0.00389761
0.00348486
0.00278337
0.00175709
0.000667481
-0.212256
-0.219884
-0.22216
-0.221978
-0.221013
-0.219187
-0.215606
-0.209457
-0.200323
-0.188128
-0.173022
-0.155366
-0.135779
-0.115147
-0.0945173
-0.0749087
-0.0571476
-0.0417677
-0.0290159
-0.0188769
-0.0111749
-0.00558667
-0.00177916
0.000644331
0.00196308
0.00252068
0.00246222
0.00206702
0.00134267
0.000516222
-0.196181
-0.203203
-0.205464
-0.205407
-0.204523
-0.202824
-0.199598
-0.194154
-0.186127
-0.175445
-0.162233
-0.146779
-0.12957
-0.111308
-0.0928463
-0.0750519
-0.0586666
-0.0442126
-0.0319778
-0.022023
-0.0142535
-0.00843328
-0.00429306
-0.00149829
0.000206019
0.0011265
0.00141826
0.00133251
0.000914934
0.000361516
-0.180974
-0.187405
-0.189647
-0.189747
-0.189013
-0.187509
-0.184666
-0.179905
-0.172905
-0.163599
-0.152085
-0.138594
-0.12351
-0.107389
-0.0909196
-0.0748334
-0.059786
-0.0462745
-0.0346092
-0.0249082
-0.017144
-0.0111568
-0.00673666
-0.00360886
-0.00154484
-0.000275553
0.000359601
0.000584216
0.000476353
0.000204122
-0.166678
-0.17254
-0.174754
-0.175024
-0.174477
-0.173206
-0.170758
-0.166647
-0.160594
-0.152533
-0.142541
-0.1308
-0.117614
-0.103421
-0.088776
-0.0742884
-0.0605305
-0.0479651
-0.0369094
-0.0275225
-0.0198304
-0.0137389
-0.00909207
-0.0056715
-0.00327639
-0.00167535
-0.000706364
-0.000172929
2.98202e-05
4.49146e-05
-0.153317
-0.158638
-0.160815
-0.161251
-0.160907
-0.159889
-0.157831
-0.154329
-0.149142
-0.142203
-0.133571
-0.12339
-0.111897
-0.0994365
-0.0864544
-0.073454
-0.0609286
-0.0493007
-0.0388826
-0.02986
-0.0222999
-0.0161635
-0.0113423
-0.00767043
-0.00497513
-0.00306209
-0.00177154
-0.000933407
-0.000421391
-0.000115115
-0.1409
-0.145713
-0.147842
-0.148434
-0.148294
-0.147528
-0.145846
-0.142908
-0.138505
-0.132574
-0.125154
-0.116359
-0.106373
-0.0954664
-0.083994
-0.0723691
-0.061012
-0.0503022
-0.0405377
-0.0319192
-0.0245434
-0.0184166
-0.0134718
-0.00959037
-0.00662742
-0.00442454
-0.00282726
-0.0016912
-0.000873655
-0.000274856
-0.129425
-0.133764
-0.135837
-0.136567
-0.136621
-0.1361
-0.134769
-0.132345
-0.128648
-0.123615
-0.117274
-0.109708
-0.10106
-0.0915417
-0.081434
-0.0710737
-0.0608153
-0.0509941
-0.0418882
-0.0337029
-0.0265553
-0.0204873
-0.0154665
-0.0114169
-0.0082198
-0.00575122
-0.00386443
-0.00243987
-0.00132304
-0.000433084
-0.118879
-0.122782
-0.124792
-0.125641
-0.125874
-0.12558
-0.12457
-0.12261
-0.119542
-0.115307
-0.109919
-0.103439
-0.0959758
-0.0876937
-0.0788138
-0.0696091
-0.0603752
-0.0514048
-0.0429516
-0.0352186
-0.0283342
-0.0223677
-0.0173149
-0.0131368
-0.00973934
-0.00703068
-0.00487371
-0.00317266
-0.00176537
-0.000588473
-0.109244
-0.11275
-0.11469
-0.115639
-0.116032
-0.115944
-0.115224
-0.113676
-0.111164
-0.107632
-0.103082
-0.0975576
-0.0911396
-0.0839536
-0.076173
-0.0680172
-0.0597306
-0.0515658
-0.0437499
-0.0364777
-0.0298826
-0.0240531
-0.0190077
-0.0147384
-0.0111739
-0.00825171
-0.00584566
-0.00388258
-0.00219627
-0.000739612
-0.100499
-0.103645
-0.105513
-0.106543
-0.107077
-0.107172
-0.106708
-0.105522
-0.103498
-0.10058
-0.0967622
-0.0920738
-0.0865724
-0.0803535
-0.073551
-0.0663406
-0.0589222
-0.0515114
-0.0443084
-0.0374961
-0.031207
-0.0255426
-0.0205383
-0.0162121
-0.0125125
-0.00940362
-0.00677098
-0.00456258
-0.00261126
-0.000885025
-0.0926198
-0.0954457
-0.0972405
-0.098334
-0.0989881
-0.099244
-0.0990027
-0.0981313
-0.0965286
-0.0941429
-0.0909612
-0.0869993
-0.0822973
-0.0769259
-0.0709878
-0.0646223
-0.0579918
-0.0512782
-0.0446559
-0.0382931
-0.0323177
-0.0268385
-0.021903
-0.0175501
-0.0137453
-0.0104764
-0.00764063
-0.00520563
-0.00300581
-0.0010232
-0.0855869
-0.0881291
-0.0898512
-0.0909916
-0.0917492
-0.0921433
-0.0920935
-0.0914911
-0.0902498
-0.0883207
-0.0856855
-0.0823498
-0.0783392
-0.0737047
-0.0685238
-0.0629062
-0.0569823
-0.050905
-0.0448238
-0.0388916
-0.0332285
-0.0279465
-0.0231009
-0.0187469
-0.0148641
-0.011461
-0.00844603
-0.00580483
-0.00337539
-0.00115258
-0.079385
-0.0816803
-0.0833312
-0.0844921
-0.0853489
-0.0858607
-0.0859714
-0.0855954
-0.0846592
-0.0831169
-0.0809462
-0.0781445
-0.0747256
-0.0707251
-0.0662
-0.0612362
-0.0559377
-0.050432
-0.044846
-0.0393173
-0.0339565
-0.0288755
-0.0241339
-0.019799
-0.0158622
-0.0123491
-0.00917905
-0.00635348
-0.00371552
-0.00127163
-0.074005
-0.0760978
-0.077706
-0.078941
-0.079812
-0.0803983
-0.0806347
-0.080444
-0.0797608
-0.0785412
-0.0767595
-0.0744067
-0.0714872