/*--------------------------------*- C++ -*----------------------------------*\
  =========                 |
  \\      /  F ield         | OpenFOAM: The Open Source CFD Toolbox
   \\    /   O peration     | Website:  https://openfoam.org
    \\  /    A nd           | Version:  7
     \\/     M anipulation  |
\*---------------------------------------------------------------------------*/
FoamFile
{
    version     2.0;
    format      ascii;
    class       surfaceScalarField;
    location    "5";
    object      phi;
}
// * * * * * * * * * * * * * * * * * * * * * * * * * * * * * * * * * * * * * //

dimensions      [0 3 -1 0 0 0 0];

internalField   nonuniform List<scalar> 
16735
(
-2.87102e-06
2.87104e-06
-2.47811e-11
-9.64644e-06
6.77548e-06
-5.32141e-11
-1.95285e-05
9.88211e-06
-6.77339e-11
-3.20056e-05
1.24772e-05
-7.15449e-11
-4.68264e-05
1.48208e-05
-6.79718e-11
-6.39624e-05
1.71361e-05
-5.9085e-11
-8.3543e-05
1.95806e-05
-4.54567e-11
-0.000105782
2.22393e-05
-2.65504e-11
-0.000130891
2.51088e-05
-1.45296e-12
2.82891e-05
3.11105e-11
-0.00015918
-2.74455e-06
5.61559e-06
-9.26409e-06
1.3295e-05
-1.88055e-05
1.94235e-05
-3.08673e-05
2.45391e-05
-4.5181e-05
2.91344e-05
-6.16802e-05
3.36353e-05
-8.044e-05
3.83404e-05
-0.00010161
4.3409e-05
-0.000125322
4.8821e-05
5.47185e-05
-0.000151751
-2.50099e-06
8.11658e-06
-8.52406e-06
1.93181e-05
-1.74014e-05
2.83009e-05
-2.86522e-05
3.57899e-05
-4.19767e-05
4.24588e-05
-5.72376e-05
4.88962e-05
-7.4408e-05
5.55109e-05
-9.35153e-05
6.25162e-05
-0.000114551
6.98565e-05
7.75947e-05
-0.000137427
-2.15821e-06
1.02748e-05
-7.47392e-06
2.46338e-05
-1.53975e-05
3.62245e-05
-2.54795e-05
4.58719e-05
-3.73807e-05
5.436e-05
-5.0869e-05
6.23845e-05
-6.57796e-05
7.04215e-05
-8.19731e-05
7.87098e-05
-9.92652e-05
8.71485e-05
9.55284e-05
-0.000117199
-1.74101e-06
1.20158e-05
-6.18064e-06
2.90734e-05
-1.29094e-05
4.29533e-05
-2.15195e-05
5.4482e-05
-3.16308e-05
6.44713e-05
-4.29044e-05
7.36582e-05
-5.5017e-05
8.25341e-05
-6.76338e-05
9.13265e-05
-8.03938e-05
9.99085e-05
0.000107527
-9.23925e-05
-1.27885e-06
1.32946e-05
-4.72576e-06
3.25203e-05
-1.00799e-05
4.83075e-05
-1.69837e-05
6.13857e-05
-2.50213e-05
7.25089e-05
-3.37475e-05
8.23844e-05
-4.26775e-05
9.14641e-05
-5.12673e-05
9.99163e-05
-5.901e-05
0.000107651
0.000113041
-6.45237e-05
-8.03337e-07
1.4098e-05
-3.19934e-06
3.49163e-05
-7.07009e-06
5.21782e-05
-1.21129e-05
6.64285e-05
-1.78866e-05
7.82827e-05
-2.38518e-05
8.83495e-05
-2.93765e-05
9.69889e-05
-3.3706e-05
0.000104246
-3.62308e-05
0.000110176
0.000112003
-3.51926e-05
-3.45646e-07
1.44436e-05
-1.69331e-06
3.6264e-05
-4.04881e-06
5.45337e-05
-7.16356e-06
6.95432e-05
-1.0584e-05
8.17031e-05
-1.36969e-05
9.14624e-05
-1.5755e-05
9.9047e-05
-1.58059e-05
0.000104297
-1.30339e-05
0.000107404
0.000105255
-6.28671e-06
6.84129e-08
1.43752e-05
-2.93652e-07
3.66261e-05
-1.18147e-06
5.54215e-05
-2.39246e-06
7.07542e-05
-3.47352e-06
8.27842e-05
-3.76275e-06
9.17516e-05
-2.43666e-06
9.77209e-05
1.46177e-06
0.000100398
9.3839e-06
9.94819e-05
9.23687e-05
2.22707e-05
4.11192e-07
1.3964e-05
9.19984e-07
3.61173e-05
1.38121e-06
5.49603e-05
1.96076e-06
7.01746e-05
3.10458e-06
8.16404e-05
5.49705e-06
8.93592e-05
1.00146e-05
9.32033e-05
1.7774e-05
9.26388e-05
2.98035e-05
8.74524e-05
7.36597e-05
4.85125e-05
6.7062e-07
1.32934e-05
1.894e-06
3.48939e-05
3.51672e-06
5.33376e-05
5.69174e-06
6.79996e-05
8.85339e-06
7.84787e-05
1.36874e-05
8.45251e-05
2.10822e-05
8.58085e-05
3.21598e-05
8.15613e-05
4.80016e-05
7.16106e-05
4.98603e-05
7.18009e-05
8.3664e-07
1.24568e-05
2.58915e-06
3.31414e-05
5.13992e-06
5.07868e-05
8.65088e-06
6.44887e-05
1.35491e-05
7.35805e-05
2.051e-05
7.75643e-05
3.04131e-05
7.59054e-05
4.43577e-05
6.76167e-05
6.34923e-05
5.2476e-05
2.13785e-05
9.19741e-05
9.08152e-07
1.15486e-05
2.99326e-06
3.10563e-05
6.21258e-06
4.75675e-05
1.07618e-05
5.99394e-05
1.70729e-05
6.72694e-05
2.58143e-05
6.88228e-05
3.78652e-05
6.38545e-05
5.42934e-05
5.11884e-05
7.64335e-05
3.0336e-05
-1.16313e-05
0.000109443
8.91743e-07
1.06569e-05
3.12e-06
2.8828e-05
6.74984e-06
4.39377e-05
1.20367e-05
5.46525e-05
1.94394e-05
5.98668e-05
2.9644e-05
5.86182e-05
4.35731e-05
4.99254e-05
6.23019e-05
3.24596e-05
8.76345e-05
5.00341e-06
-4.92994e-05
0.000125303
8.01165e-07
9.85571e-06
3.00873e-06
2.66204e-05
6.82228e-06
4.01241e-05
1.25848e-05
4.889e-05
2.08163e-05
5.16353e-05
3.227e-05
4.71644e-05
4.79957e-05
3.41997e-05
6.91704e-05
1.1285e-05
9.84864e-05
-2.43126e-05
-9.18873e-05
0.000141074
6.56495e-07
9.19921e-06
2.72209e-06
2.45548e-05
6.55277e-06
3.62934e-05
1.26105e-05
4.28323e-05
2.15251e-05
4.27207e-05
3.41921e-05
3.44974e-05
5.18998e-05
1.6492e-05
7.60708e-05
-1.2886e-05
0.000110611
-5.88523e-05
-0.000139416
0.000158139
4.82743e-07
8.71647e-06
2.34104e-06
2.26965e-05
6.10651e-06
3.2528e-05
1.23966e-05
3.65422e-05
2.20139e-05
3.31034e-05
3.60878e-05
2.04235e-05
5.6254e-05
-3.67425e-06
8.43465e-05
-4.09785e-05
0.000125301
-9.98067e-05
-0.000191198
0.000177083
3.07735e-07
8.40873e-06
1.95703e-06
2.10472e-05
5.67352e-06
2.88115e-05
1.22719e-05
2.99438e-05
2.27981e-05
2.25773e-05
3.87059e-05
4.51568e-06
6.20383e-05
-2.70066e-05
9.51791e-05
-7.41193e-05
0.000143
-0.000147627
-0.000245597
0.000197398
1.59371e-07
8.24936e-06
1.66182e-06
1.95448e-05
5.44498e-06
2.50283e-05
1.25647e-05
2.2824e-05
2.43764e-05
1.07656e-05
4.27211e-05
-1.3829e-05
7.00141e-05
-5.42996e-05
0.000109182
-0.000113287
0.000163121
-0.000201566
-0.000300462
0.000217986
6.26978e-08
8.18666e-06
1.53553e-06
1.8072e-05
5.58726e-06
2.09766e-05
1.35532e-05
1.48581e-05
2.71434e-05
-2.82458e-06
4.85912e-05
-3.52768e-05
8.05187e-05
-8.62271e-05
0.000126003
-0.000158772
0.000184301
-0.000259864
-0.000355599
0.000239438
3.4196e-08
8.15247e-06
1.63647e-06
1.64697e-05
6.2202e-06
1.63929e-05
1.54256e-05
5.65273e-06
3.13266e-05
-1.87256e-05
5.64721e-05
-6.04223e-05
9.34044e-05
-0.000123159
0.000144351
-0.000209718
0.000204677
-0.00032019
-0.000430485
0.000279563
7.80915e-08
8.07438e-06
1.9956e-06
1.45522e-05
7.40543e-06
1.0983e-05
1.82618e-05
-5.20366e-06
3.69653e-05
-3.74291e-05
6.6208e-05
-8.96651e-05
0.000108069
-0.000165021
0.000162858
-0.000264507
0.000224728
-0.00038206
-0.00050031
0.000294553
1.98437e-07
7.87594e-06
2.61782e-06
1.21328e-05
9.14733e-06
4.45352e-06
2.20383e-05
-1.80946e-05
4.39285e-05
-5.93194e-05
7.73842e-05
-0.000123121
0.000123539
-0.000211176
0.000180387
-0.000321355
0.000241433
-0.000443106
-0.000562513
0.000303636
3.89944e-07
7.486e-06
3.48616e-06
9.03659e-06
1.14047e-05
-3.465e-06
2.66508e-05
-3.33407e-05
5.19556e-05
-8.46242e-05
8.94102e-05
-0.000160575
0.000138723
-0.000260488
0.000195753
-0.000378384
0.000253491
-0.000500844
-0.000617208
0.000308186
6.41978e-07
6.84402e-06
4.57031e-06
5.10826e-06
1.41078e-05
-1.30025e-05
3.19435e-05
-5.11764e-05
6.07002e-05
-0.000113381
0.000101599
-0.000201474
0.000152605
-0.000311495
0.000207944
-0.000433723
0.000260884
-0.000553784
-0.00066441
0.000308086
9.43638e-07
5.90038e-06
5.83548e-06
2.16422e-07
1.71748e-05
-2.43419e-05
3.77329e-05
-7.17345e-05
6.9766e-05
-0.000145414
0.000113244
-0.000244952
0.00016436
-0.000362611
0.00021647
-0.000485832
0.000263769
-0.000601083
-0.000704563
0.000303921
1.28591e-06
4.61447e-06
7.24881e-06
-5.74648e-06
2.05216e-05
-3.76147e-05
4.38205e-05
-9.50334e-05
7.87334e-05
-0.000180327
0.000123702
-0.000289921
0.000173436
-0.000412345
0.000221239
-0.000533635
0.000262651
-0.000642495
-0.000738435
0.000296522
1.66249e-06
2.95198e-06
8.78184e-06
-1.28658e-05
2.40647e-05
-5.28976e-05
4.99965e-05
-0.000120965
8.71837e-05
-0.000217514
0.000132451
-0.000335188
0.000179565
-0.000459459
0.00022246
-0.00057653
0.000258159
-0.000678194
-0.000766852
0.000286576
2.06939e-06
8.82593e-07
1.04092e-05
-2.12056e-05
2.77185e-05
-7.02069e-05
5.60397e-05
-0.000149286
9.47294e-05
-0.000256204
0.00013914
-0.000379599
0.000182735
-0.000503054
0.000220523
-0.000614318
0.000250933
-0.000708604
-0.00079065
0.000274731
2.50377e-06
-1.62117e-06
1.21055e-05
-3.08073e-05
3.13901e-05
-8.94915e-05
6.17222e-05
-0.000179618
0.000101045
-0.000295527
0.000143593
-0.000422146
0.000183114
-0.000542575
0.000215894
-0.000647098
0.000241569
-0.000734279
-0.000810576
0.000261495
2.96255e-06
-4.58372e-06
1.38419e-05
-4.16867e-05
3.49765e-05
-0.000110626
6.6822e-05
-0.000211464
0.000105897
-0.000334602
0.000145793
-0.000462042
0.000180989
-0.000577771
0.000209056
-0.000675164
0.000230581
-0.000755803
-0.000827268
0.000247272
3.44126e-06
-8.02498e-06
1.5584e-05
-5.38294e-05
3.83657e-05
-0.000133408
7.11405e-05
-0.000244239
0.000109151
-0.000372612
0.000145848
-0.00049874
0.000176702
-0.000608626
0.000200458
-0.00069892
0.000218393
-0.000773738
-0.000841242
0.000232367
3.93338e-06
-1.19584e-05
1.72909e-05
-6.71869e-05
4.14427e-05
-0.00015756
7.45206e-05
-0.000277317
0.000110774
-0.000408865
0.000143949
-0.000531915
0.00017061
-0.000635287
0.000190497
-0.000718807
0.000205343
-0.000788584
-0.000852905
0.000217005
4.43024e-06
-1.63886e-05
1.89171e-05
-8.16738e-05
4.40982e-05
-0.000182741
7.68587e-05
-0.000310077
0.000110815
-0.000442821
0.000140331
-0.000561431
0.000163052
-0.000658008
0.000179511
-0.000735266
0.000191694
-0.000800767
-0.00086256
0.00020135
4.92135e-06
-2.13099e-05
2.04141e-05
-9.71665e-05
4.62381e-05
-0.000208565
7.81081e-05
-0.000341947
0.000109384
-0.000474097
0.000135249
-0.000587296
0.000154338
-0.000677096
0.000167777
-0.000748706
0.000177646
-0.000810636
-0.000870432
0.000185518
5.39489e-06
-2.67048e-05
2.17343e-05
-0.000113506
4.77907e-05
-0.000234621
7.82748e-05
-0.000372431
0.000106632
-0.000502454
0.000128954
-0.000609618
0.000144735
-0.000692878
0.000155517
-0.000759487
0.000163348
-0.000818467
-0.00087668
0.000169596
5.83845e-06
-3.25433e-05
2.28341e-05
-0.000130501
4.87118e-05
-0.000260499
7.74077e-05
-0.000401127
0.000102726
-0.000527772
0.000121679
-0.000628572
0.000134473
-0.000705672
0.000142905
-0.00076792
0.000148912
-0.000824473
-0.000881415
0.000153646
6.23963e-06
-3.87829e-05
2.36769e-05
-0.000147939
4.89849e-05
-0.000285807
7.55866e-05
-0.000427729
9.7841e-05
-0.000550027
0.000113635
-0.000644366
0.000123739
-0.000715775
0.000130077
-0.000774258
0.000134419
-0.000828816
-0.00088471
0.000137714
6.58677e-06
-4.53697e-05
2.42354e-05
-0.000165587
4.86193e-05
-0.000310191
7.29113e-05
-0.000452021
9.2147e-05
-0.000569262
0.000105008
-0.000657227
0.000112687
-0.000723454
0.000117136
-0.000778707
0.000119932
-0.000831611
-0.000886616
0.000121838
6.86943e-06
-5.22391e-05
2.44924e-05
-0.00018321
4.76455e-05
-0.000333344
6.94913e-05
-0.000473867
8.58018e-05
-0.000585573
9.59536e-05
-0.000667379
0.00010144
-0.00072894
0.000104164
-0.000781431
0.000105497
-0.000832944
-0.000887167
0.000106048
7.07889e-06
-5.9318e-05
2.44415e-05
-0.000200573
4.61096e-05
-0.000355012
6.54386e-05
-0.000493195
7.89485e-05
-0.000599083
8.66056e-05
-0.000675036
9.0096e-05
-0.000732431
9.12206e-05
-0.000782556
9.11507e-05
-0.000832874
-0.000886386
9.03697e-05
7.20843e-06
-6.65264e-05
2.40864e-05
-0.000217451
4.40684e-05
-0.000374994
6.08622e-05
-0.000509989
7.17134e-05
-0.000609934
7.70733e-05
-0.000680395
7.87322e-05
-0.00073409
7.83531e-05
-0.000782177
7.69214e-05
-0.000831442
-0.000884281
7.48158e-05
7.25353e-06
-7.378e-05
2.34391e-05
-0.000233637
4.15843e-05
-0.000393139
5.58646e-05
-0.00052427
6.42063e-05
-0.000618276
6.74469e-05
-0.000683636
6.74087e-05
-0.000734051
6.55975e-05
-0.000780366
6.28314e-05
-0.000828676
-0.00088085
5.94008e-05
7.21184e-06
-8.09918e-05
2.25187e-05
-0.000248943
3.87215e-05
-0.000409342
5.05396e-05
-0.000536088
5.65211e-05
-0.000624257
5.77999e-05
-0.000684915
5.61735e-05
-0.000732425
5.29814e-05
-0.000777174
4.88984e-05
-0.000824593
-0.000876087
4.41347e-05
7.08317e-06
-8.8075e-05
2.1349e-05
-0.000263209
3.55433e-05
-0.000423536
4.49713e-05
-0.000545516
4.87371e-05
-0.000628023
4.81923e-05
-0.00068437
4.50668e-05
-0.000729299
4.05309e-05
-0.000772638
3.51333e-05
-0.000819195
-0.000869979
2.90253e-05
6.86931e-06
-9.49443e-05
1.9957e-05
-0.000276297
3.21098e-05
-0.000435689
3.92336e-05
-0.000552639
4.0921e-05
-0.00062971
3.86729e-05
-0.000682122
3.41234e-05
-0.00072475
2.82795e-05
-0.000766794
2.15419e-05
-0.000812458
-0.000862487
1.40504e-05
6.57406e-06
-0.000101518
1.83727e-05
-0.000288096
2.84773e-05
-0.000445794
3.3391e-05
-0.000557553
3.31276e-05
-0.000629447
2.92799e-05
-0.000678274
2.33697e-05
-0.00071884
1.62604e-05
-0.000759685
8.2061e-06
-0.000804404
-0.000853153
-1.12834e-06
6.20297e-06
-0.000107721
1.66278e-05
-0.00029852
2.46975e-05
-0.000453863
2.74991e-05
-0.000560355
2.54022e-05
-0.00062735
2.00438e-05
-0.000672916
1.28221e-05
-0.000711618
4.42925e-06
-0.000751292
-4.78989e-06
-0.000795185
-0.000842895
-1.50479e-05
5.7628e-06
-0.000113484
1.47513e-05
-0.000307509
2.08171e-05
-0.000459929
2.16054e-05
-0.000561143
1.77817e-05
-0.000623526
1.09894e-05
-0.000666123
2.47036e-06
-0.000703099
-7.10164e-06
-0.00074172
-1.76876e-05
-0.000784599
-0.000831508
-2.90744e-05
5.26134e-06
-0.000118745
1.27712e-05
-0.000315019
1.68779e-05
-0.000464036
1.57497e-05
-0.000560015
1.02956e-05
-0.000618072
2.12622e-06
-0.000657954
-7.57491e-06
-0.000693398
-1.83697e-05
-0.000730925
-3.02169e-05
-0.000772751
-0.000818841
-4.28835e-05
4.70724e-06
-0.000123453
1.07147e-05
-0.000321026
1.29167e-05
-0.000466238
9.96484e-06
-0.000557063
2.97239e-06
-0.00061108
-6.48187e-06
-0.0006485
-1.73831e-05
-0.000682497
-2.93825e-05
-0.000718926
-4.24519e-05
-0.000759682
-0.000804891
-5.64023e-05
4.10951e-06
-0.000127562
8.60859e-06
-0.000325525
8.96497e-06
-0.000466594
4.28578e-06
-0.000552384
-4.16763e-06
-0.000602626
-1.48681e-05
-0.000637799
-2.69374e-05
-0.000670427
-4.01093e-05
-0.000705754
-5.4392e-05
-0.000745399
-0.000789673
-6.96095e-05
3.47654e-06
-0.000131039
6.479e-06
-0.000328528
5.05466e-06
-0.00046517
-1.25304e-06
-0.000546076
-1.11101e-05
-0.000592769
-2.30183e-05
-0.000625891
-3.62209e-05
-0.000657225
-5.05385e-05
-0.000691436
-6.60222e-05
-0.000729915
-0.000773209
-8.24862e-05
2.81809e-06
-0.000133857
4.34404e-06
-0.000330054
1.28166e-06
-0.000462108
-6.69543e-06
-0.000538099
-1.78579e-05
-0.000581607
-3.09204e-05
-0.000612829
-4.5224e-05
-0.000642921
-6.06608e-05
-0.000675999
-7.73278e-05
-0.000713248
-0.000755527
-9.50103e-05
2.15201e-06
-0.000136009
2.22242e-06
-0.000330124
-2.58397e-06
-0.000457301
-1.19744e-05
-0.000528709
-2.43913e-05
-0.00056919
-3.85662e-05
-0.000598654
-5.39393e-05
-0.000627548
-7.04678e-05
-0.000659471
-8.82929e-05
-0.000695423
-0.000736666
-0.000107154
1.47657e-06
-0.000137485
2.89657e-07
-0.000328937
-6.3236e-06
-0.000450688
-1.71061e-05
-0.000517926
-3.07044e-05
-0.000555592
-4.59489e-05
-0.000583409
-6.236e-05
-0.000611137
-7.9951e-05
-0.00064188
-9.89051e-05
-0.000676469
-0.000716648
-0.000118923
7.50788e-07
-0.000138236
-2.01675e-06
-0.00032617
-9.95237e-06
-0.000442752
-2.20609e-05
-0.000505818
-3.67898e-05
-0.000540863
-5.3063e-05
-0.000567136
-7.04806e-05
-0.000593719
-8.91033e-05
-0.000623257
-0.000109161
-0.000656411
-0.00069545
-0.000130359
-4.64105e-08
-0.00013819
-4.15804e-06
-0.000322058
-1.34722e-05
-0.000433438
-2.68289e-05
-0.000492461
-4.26387e-05
-0.000525053
-5.99041e-05
-0.000549871
-7.83001e-05
-0.000575323
-9.79222e-05
-0.000603635
-0.000119024
-0.000635309
-0.000673076
-0.000141398
-7.08058e-07
-0.000137482
-6.19626e-06
-0.00031657
-1.6867e-05
-0.000422767
-3.1407e-05
-0.000477921
-4.82461e-05
-0.000508214
-6.64677e-05
-0.000531649
-8.58203e-05
-0.000555971
-0.000106418
-0.000583038
-0.000128399
-0.000613328
-0.0006495
-0.000151974
-1.41043e-06
-0.000136071
-8.16095e-06
-0.000309819
-2.01281e-05
-0.0004108
-3.57904e-05
-0.000462259
-5.36079e-05
-0.000490397
-7.27493e-05
-0.000512508
-9.30306e-05
-0.000535689
-0.000114583
-0.000561485
-0.000137663
-0.000590248
-0.00062633
-0.000160833
-2.10316e-06
-0.000133968
-1.00566e-05
-0.000301866
-2.32503e-05
-0.000397606
-3.99747e-05
-0.000445534
-5.87226e-05
-0.000471649
-7.8747e-05
-0.000492483
-9.99128e-05
-0.000514524
-0.000122205
-0.000539193
-0.000145141
-0.000567312
-0.000599545
-0.000171926
-2.77819e-06
-0.00013119
-1.188e-05
-0.000292764
-2.62303e-05
-0.000383256
-4.39572e-05
-0.000427807
-6.35898e-05
-0.000452016
-8.44581e-05
-0.000471615
-0.000106442
-0.00049254
-0.000129493
-0.000516142
-0.000153715
-0.000543089
-0.000572688
-0.000180572
-3.43172e-06
-0.000127758
-1.36264e-05
-0.000282569
-2.90648e-05
-0.000367818
-4.77358e-05
-0.000409136
-6.82076e-05
-0.000431544
-8.98794e-05
-0.000449943
-0.000112659
-0.00046976
-0.000136578
-0.000492223
-0.000161924
-0.000517743
-0.000545402
-0.000189211
-4.06093e-06
-0.000123697
-1.52915e-05
-0.000271339
-3.17511e-05
-0.000351358
-5.13087e-05
-0.000389579
-7.2573e-05
-0.00041028
-9.50063e-05
-0.00042751
-0.000118548
-0.000446218
-0.000143287
-0.000467484
-0.000169499
-0.000491532
-0.000517519
-0.000197382
-4.66339e-06
-0.000119034
-1.68713e-05
-0.000259131
-3.42867e-05
-0.000333943
-5.46744e-05
-0.000369191
-7.66851e-05
-0.000388269
-9.98397e-05
-0.000404355
-0.000124112
-0.000421946
-0.000149623
-0.000441973
-0.000176606
-0.000464548
-0.000488973
-0.000205152
-5.23688e-06
-0.000113797
-1.83628e-05
-0.000246005
-3.66695e-05
-0.000315636
-5.78317e-05
-0.000348029
-8.05428e-05
-0.000365558
-0.000104378
-0.000380521
-0.00012934
-0.000396984
-0.000155567
-0.000415745
-0.000183259
-0.000436856
-0.000459753
-0.00021248
-5.77942e-06
-0.000108018
-1.97631e-05
-0.000232021
-3.88977e-05
-0.000296502
-6.07799e-05
-0.000326146
-8.41452e-05
-0.000342193
-0.000108618
-0.000356047
-0.000134229
-0.000371374
-0.000161121
-0.000388853
-0.000189476
-0.000408501
-0.000429872
-0.000219356
-6.28926e-06
-0.000101728
-2.10701e-05
-0.00021724
-4.097e-05
-0.000276602
-6.35183e-05
-0.000303598
-8.74918e-05
-0.000318219
-0.000112561
-0.000330979
-0.000138775
-0.00034516
-0.000166285
-0.000361343
-0.00019526
-0.000379526
-0.00039936
-0.000225772
-6.76484e-06
-9.49635e-05
-2.22818e-05
-0.000201723
-4.28853e-05
-0.000255998
-6.60466e-05
-0.000280437
-9.05822e-05
-0.000293684
-0.000116203
-0.000305358
-0.000142977
-0.000318385
-0.000171058
-0.000333263
-0.000200611
-0.000349972
-0.000368252
-0.000231719
-7.20481e-06
-8.77587e-05
-2.33967e-05
-0.000185531
-4.46427e-05
-0.000234752
-6.83643e-05
-0.000256715
-9.34158e-05
-0.000268632
-0.000119545
-0.000279229
-0.000146834
-0.000291096
-0.00017544
-0.000304657
-0.000205528
-0.000319884
-0.000336589
-0.000237191
-7.60799e-06
-8.01507e-05
-2.44134e-05
-0.000168726
-4.62416e-05
-0.000212924
-7.04714e-05
-0.000232485
-9.59925e-05
-0.000243111
-0.000122585
-0.000252636
-0.000150344
-0.000263337
-0.00017943
-0.000275571
-0.000210007
-0.000289307
-0.000304415
-0.000242181
-7.97337e-06
-7.21773e-05
-2.5331e-05
-0.000151368
-4.76814e-05
-0.000190574
-7.23678e-05
-0.000207799
-9.83119e-05
-0.000217167
-0.000125323
-0.000225625
-0.000153506
-0.000235154
-0.000183025
-0.000246052
-0.000214045
-0.000258288
-0.000271776
-0.000246684
-8.30011e-06
-6.38772e-05
-2.61484e-05
-0.00013352
-4.89619e-05
-0.00016776
-7.40533e-05
-0.000182708
-0.000100374
-0.000190847
-0.000127758
-0.000198242
-0.000156319
-0.000206592
-0.000186225
-0.000216146
-0.000217641
-0.000226872
-0.000238721
-0.000250695
-8.58747e-06
-5.52898e-05
-2.6865e-05
-0.000115243
-5.00827e-05
-0.000144542
-7.55281e-05
-0.000157262
-0.000102178
-0.000164196
-0.000129889
-0.000170531
-0.000158783
-0.000177698
-0.000189028
-0.000185901
-0.000220791
-0.000195109
-0.000205301
-0.000254211
-8.83484e-06
-4.64549e-05
-2.74802e-05
-9.65973e-05
-5.10438e-05
-0.000120979
-7.6792e-05
-0.000131514
-0.000103725
-0.000137263
-0.000131717
-0.00014254
-0.000160896
-0.000148519
-0.000191433
-0.000155364
-0.000223494
-0.000163048
-0.000171566
-0.000257229
-9.04171e-06
-3.74132e-05
-2.79935e-05
-7.76455e-05
-5.18448e-05
-9.71276e-05
-7.78453e-05
-0.000105513
-0.000105014
-0.000110094
-0.00013324
-0.000114314
-0.000162658
-0.000119101
-0.000193438
-0.000124584
-0.000225748
-0.000130738
-0.000137569
-0.000259746
-9.20768e-06
-2.82055e-05
-2.84046e-05
-5.84485e-05
-5.24857e-05
-7.30465e-05
-7.86878e-05
-7.93114e-05
-0.000106046
-8.27356e-05
-0.00013446
-8.58998e-05
-0.000164068
-8.94933e-05
-0.000195043
-9.3609e-05
-0.000227553
-9.82283e-05
-0.000103361
-0.00026176
-9.33242e-06
-1.88731e-05
-2.87132e-05
-3.90678e-05
-5.29664e-05
-4.87932e-05
-7.93196e-05
-5.29582e-05
-0.000106819
-5.52358e-05
-0.000135374
-5.7345e-05
-0.000165126
-5.97419e-05
-0.000196247
-6.24874e-05
-0.000228907
-6.55688e-05
-6.89953e-05
-0.000263272
-9.41571e-06
-9.4574e-06
-2.8919e-05
-1.95645e-05
-5.32869e-05
-2.44253e-05
-7.97408e-05
-2.65043e-05
-0.000107335
-2.76416e-05
-0.000135984
-2.8696e-05
-0.000165831
-2.98949e-05
-0.00019705
-3.12681e-05
-0.00022981
-3.28094e-05
-3.45242e-05
-0.000264281
-9.4574e-06
-5.80943e-12
-2.90219e-05
-1.13702e-11
-5.34472e-05
-1.33352e-11
-7.99514e-05
-1.3545e-11
-0.000107593
-1.32129e-11
-0.000136289
-1.27987e-11
-0.000166184
-1.2384e-11
-0.000197452
-1.1962e-11
-0.000230261
-1.15178e-11
-1.10383e-11
-0.000264786
-9.4574e-06
9.45739e-06
-2.90219e-05
1.95645e-05
-5.34472e-05
2.44253e-05
-7.99514e-05
2.65042e-05
-0.000107593
2.76415e-05
-0.000136289
2.8696e-05
-0.000166184
2.98949e-05
-0.000197452
3.12681e-05
-0.000230261
3.28094e-05
3.45242e-05
-0.000264786
-9.41571e-06
1.88731e-05
-2.8919e-05
3.90678e-05
-5.32869e-05
4.87932e-05
-7.97408e-05
5.29581e-05
-0.000107335
5.52358e-05
-0.000135984
5.7345e-05
-0.000165831
5.97419e-05
-0.00019705
6.24874e-05
-0.00022981
6.55688e-05
6.89952e-05
-0.000264281
-9.33242e-06
2.82055e-05
-2.87132e-05
5.84485e-05
-5.29664e-05
7.30465e-05
-7.93196e-05
7.93113e-05
-0.000106819
8.27356e-05
-0.000135374
8.58998e-05
-0.000165126
8.94933e-05
-0.000196247
9.36089e-05
-0.000228907
9.82283e-05
0.000103361
-0.000263272
-9.20768e-06
3.74132e-05
-2.84046e-05
7.76455e-05
-5.24857e-05
9.71275e-05
-7.86878e-05
0.000105513
-0.000106046
0.000110094
-0.00013446
0.000114314
-0.000164068
0.000119101
-0.000195043
0.000124584
-0.000227553
0.000130738
0.000137569
-0.00026176
-9.04171e-06
4.64549e-05
-2.79935e-05
9.65973e-05
-5.18448e-05
0.000120979
-7.78453e-05
0.000131514
-0.000105014
0.000137263
-0.00013324
0.00014254
-0.000162658
0.000148519
-0.000193438
0.000155364
-0.000225748
0.000163048
0.000171566
-0.000259746
-8.83484e-06
5.52897e-05
-2.74802e-05
0.000115243
-5.10438e-05
0.000144542
-7.6792e-05
0.000157262
-0.000103725
0.000164196
-0.000131717
0.000170531
-0.000160896
0.000177698
-0.000191433
0.000185901
-0.000223494
0.000195109
0.000205301
-0.000257229
-8.58747e-06
6.38772e-05
-2.6865e-05
0.00013352
-5.00827e-05
0.00016776
-7.55281e-05
0.000182708
-0.000102178
0.000190847
-0.000129889
0.000198242
-0.000158783
0.000206592
-0.000189028
0.000216146
-0.000220791
0.000226872
0.000238721
-0.000254211
-8.30011e-06
7.21773e-05
-2.61484e-05
0.000151368
-4.89619e-05
0.000190574
-7.40533e-05
0.000207799
-0.000100374
0.000217167
-0.000127758
0.000225625
-0.000156319
0.000235154
-0.000186225
0.000246052
-0.000217641
0.000258288
0.000271776
-0.000250695
-7.97337e-06
8.01507e-05
-2.5331e-05
0.000168726
-4.76814e-05
0.000212924
-7.23678e-05
0.000232485
-9.83119e-05
0.000243111
-0.000125323
0.000252636
-0.000153506
0.000263337
-0.000183025
0.000275571
-0.000214045
0.000289307
0.000304415
-0.000246684
-7.60799e-06
8.77587e-05
-2.44134e-05
0.000185531
-4.62416e-05
0.000234752
-7.04714e-05
0.000256715
-9.59925e-05
0.000268632
-0.000122585
0.000279229
-0.000150344
0.000291096
-0.00017943
0.000304657
-0.000210007
0.000319884
0.000336589
-0.000242181
-7.20481e-06
9.49635e-05
-2.33967e-05
0.000201723
-4.46427e-05
0.000255998
-6.83643e-05
0.000280437
-9.34158e-05
0.000293684
-0.000119545
0.000305358
-0.000146834
0.000318385
-0.00017544
0.000333263
-0.000205528
0.000349972
0.000368252
-0.000237191
-6.76484e-06
0.000101728
-2.22818e-05
0.00021724
-4.28853e-05
0.000276602
-6.60466e-05
0.000303598
-9.05821e-05
0.000318219
-0.000116203
0.000330979
-0.000142977
0.00034516
-0.000171058
0.000361343
-0.000200611
0.000379526
0.00039936
-0.000231719
-6.28926e-06
0.000108018
-2.10701e-05
0.000232021
-4.097e-05
0.000296502
-6.35183e-05
0.000326146
-8.74918e-05
0.000342193
-0.000112561
0.000356047
-0.000138775
0.000371374
-0.000166285
0.000388853
-0.00019526
0.000408501
0.000429872
-0.000225772
-5.77942e-06
0.000113797
-1.97631e-05
0.000246005
-3.88977e-05
0.000315636
-6.07799e-05
0.000348029
-8.41452e-05
0.000365558
-0.000108618
0.000380521
-0.000134229
0.000396984
-0.000161121
0.000415745
-0.000189476
0.000436856
0.000459753
-0.000219356
-5.23688e-06
0.000119034
-1.83628e-05
0.000259131
-3.66695e-05
0.000333943
-5.78317e-05
0.000369191
-8.05428e-05
0.000388269
-0.000104378
0.000404355
-0.00012934
0.000421946
-0.000155567
0.000441972
-0.000183259
0.000464548
0.000488973
-0.00021248
-4.66338e-06
0.000123697
-1.68713e-05
0.000271339
-3.42867e-05
0.000351358
-5.46744e-05
0.000389579
-7.66851e-05
0.00041028
-9.98396e-05
0.00042751
-0.000124112
0.000446218
-0.000149623
0.000467484
-0.000176606
0.000491531
0.000517519
-0.000205152
-4.06093e-06
0.000127758
-1.52915e-05
0.000282569
-3.17511e-05
0.000367818
-5.13087e-05
0.000409136
-7.2573e-05
0.000431544
-9.50063e-05
0.000449943
-0.000118548
0.00046976
-0.000143287
0.000492223
-0.000169499
0.000517743
0.000545402
-0.000197382
-3.43172e-06
0.00013119
-1.36264e-05
0.000292764
-2.90648e-05
0.000383256
-4.77358e-05
0.000427807
-6.82076e-05
0.000452016
-8.98794e-05
0.000471615
-0.000112659
0.00049254
-0.000136578
0.000516142
-0.000161924
0.000543089
0.000572688
-0.000189211
-2.77819e-06
0.000133968
-1.188e-05
0.000301866
-2.62303e-05
0.000397606
-4.39572e-05
0.000445534
-6.35898e-05
0.000471649
-8.44581e-05
0.000492483
-0.000106442
0.000514524
-0.000129493
0.000539193
-0.000153715
0.000567312
0.000599545
-0.000180572
-2.10316e-06
0.000136071
-1.00566e-05
0.000309819
-2.32503e-05
0.0004108
-3.99747e-05
0.000462259
-5.87226e-05
0.000490396
-7.8747e-05
0.000512508
-9.99128e-05
0.000535689
-0.000122205
0.000561485
-0.000145141
0.000590248
0.00062633
-0.000171926
-1.41042e-06
0.000137482
-8.16095e-06
0.00031657
-2.01281e-05
0.000422767
-3.57904e-05
0.000477921
-5.36079e-05
0.000508214
-7.27493e-05
0.000531649
-9.30306e-05
0.000555971
-0.000114583
0.000583038
-0.000137663
0.000613328
0.0006495
-0.000160833
-7.08058e-07
0.00013819
-6.19626e-06
0.000322058
-1.6867e-05
0.000433438
-3.1407e-05
0.000492461
-4.82461e-05
0.000525053
-6.64677e-05
0.000549871
-8.58203e-05
0.000575323
-0.000106418
0.000603635
-0.000128399
0.000635309
0.000673076
-0.000151974
-4.64104e-08
0.000138236
-4.15804e-06
0.00032617
-1.34722e-05
0.000442752
-2.68289e-05
0.000505818
-4.26387e-05
0.000540863
-5.99041e-05
0.000567136
-7.83001e-05
0.000593719
-9.79222e-05
0.000623257
-0.000119024
0.000656411
0.00069545
-0.000141398
7.50788e-07
0.000137485
-2.01675e-06
0.000328937
-9.95237e-06
0.000450688
-2.20609e-05
0.000517926
-3.67898e-05
0.000555592
-5.3063e-05
0.000583409
-7.04806e-05
0.000611137
-8.91033e-05
0.00064188
-0.000109161
0.000676469
0.000716648
-0.000130359
1.47657e-06
0.000136009
2.89658e-07
0.000330124
-6.32359e-06
0.000457301
-1.71061e-05
0.000528709
-3.07044e-05
0.00056919
-4.59489e-05
0.000598654
-6.236e-05
0.000627548
-7.9951e-05
0.000659471
-9.89051e-05
0.000695423
0.000736666
-0.000118923
2.15201e-06
0.000133857
2.22242e-06
0.000330054
-2.58397e-06
0.000462107
-1.19744e-05
0.000538099
-2.43913e-05
0.000581607
-3.85662e-05
0.000612829
-5.39393e-05
0.000642921
-7.04678e-05
0.000675999
-8.82929e-05
0.000713248
0.000755527
-0.000107154
2.81809e-06
0.000131039
4.34404e-06
0.000328528
1.28167e-06
0.00046517
-6.69543e-06
0.000546076
-1.78579e-05
0.000592769
-3.09204e-05
0.000625891
-4.5224e-05
0.000657225
-6.06608e-05
0.000691436
-7.73278e-05
0.000729915
0.000773209
-9.50103e-05
3.47654e-06
0.000127562
6.479e-06
0.000325525
5.05466e-06
0.000466594
-1.25304e-06
0.000552384
-1.11101e-05
0.000602626
-2.30183e-05
0.000637799
-3.62209e-05
0.000670427
-5.05385e-05
0.000705754
-6.60222e-05
0.000745399
0.000789673
-8.24862e-05
4.10951e-06
0.000123453
8.6086e-06
0.000321026
8.96497e-06
0.000466238
4.28579e-06
0.000557063
-4.16762e-06
0.00061108
-1.48681e-05
0.0006485
-2.69374e-05
0.000682497
-4.01093e-05
0.000718926
-5.4392e-05
0.000759682
0.000804891
-6.96095e-05
4.70724e-06
0.000118745
1.07147e-05
0.000315019
1.29167e-05
0.000464036
9.96485e-06
0.000560015
2.97239e-06
0.000618072
-6.48186e-06
0.000657954
-1.73831e-05
0.000693398
-2.93825e-05
0.000730925
-4.24519e-05
0.000772751
0.000818841
-5.64023e-05
5.26134e-06
0.000113484
1.27712e-05
0.000307509
1.68779e-05
0.000459929
1.57497e-05
0.000561143
1.02956e-05
0.000623526
2.12623e-06
0.000666123
-7.5749e-06
0.000703099
-1.83697e-05
0.00074172
-3.02169e-05
0.000784599
0.000831508
-4.28835e-05
5.7628e-06
0.000107721
1.47513e-05
0.00029852
2.08171e-05
0.000453863
2.16054e-05
0.000560355
1.77817e-05
0.00062735
1.09894e-05
0.000672916
2.47036e-06
0.000711618
-7.10163e-06
0.000751292
-1.76876e-05
0.000795184
0.000842894
-2.90743e-05
6.20297e-06
0.000101518
1.66278e-05
0.000288096
2.46975e-05
0.000445794
2.74991e-05
0.000557553
2.54022e-05
0.000629447
2.00438e-05
0.000678274
1.28221e-05
0.00071884
4.42926e-06
0.000759685
-4.78988e-06
0.000804404
0.000853152
-1.50479e-05
6.57406e-06
9.49443e-05
1.83727e-05
0.000276297
2.84773e-05
0.000435689
3.3391e-05
0.000552639
3.31276e-05
0.00062971
2.92799e-05
0.000682122
2.33697e-05
0.00072475
1.62604e-05
0.000766794
8.20611e-06
0.000812458
0.000862487
-1.12833e-06
6.86931e-06
8.8075e-05
1.9957e-05
0.000263209
3.21098e-05
0.000423536
3.92336e-05
0.000545516
4.0921e-05
0.000628023
3.86729e-05
0.00068437
3.41234e-05
0.000729299
2.82795e-05
0.000772638
2.15419e-05
0.000819195
0.000869978
1.40504e-05
7.08317e-06
8.09918e-05
2.1349e-05
0.000248943
3.55433e-05
0.000409342
4.49713e-05
0.000536088
4.87372e-05
0.000624257
4.81923e-05
0.000684915
4.50668e-05
0.000732425
4.05309e-05
0.000777174
3.51334e-05
0.000824593
0.000876087
2.90253e-05
7.21184e-06
7.37799e-05
2.25187e-05
0.000233636
3.87215e-05
0.000393139
5.05396e-05
0.00052427
5.65211e-05
0.000618276
5.77999e-05
0.000683636
5.61735e-05
0.000734051
5.29814e-05
0.000780366
4.88984e-05
0.000828676
0.00088085
4.41347e-05
7.25353e-06
6.65264e-05
2.34391e-05
0.000217451
4.15843e-05
0.000374994