/*--------------------------------*- C++ -*----------------------------------*\
  =========                 |
  \\      /  F ield         | OpenFOAM: The Open Source CFD Toolbox
   \\    /   O peration     | Website:  https://openfoam.org
    \\  /    A nd           | Version:  7
     \\/     M anipulation  |
\*---------------------------------------------------------------------------*/
FoamFile
{
    version     2.0;
    format      ascii;
    class       volVectorField;
    location    "5";
    object      U;
}
// * * * * * * * * * * * * * * * * * * * * * * * * * * * * * * * * * * * * * //

dimensions      [0 1 -1 0 0 0 0];

internalField   nonuniform List<vector> 
8500
(
(-0.00508273 0.00410019 -7.42687e-20)
(-0.0254834 0.00866765 -1.77485e-19)
(-0.0615942 0.0111583 -3.00856e-19)
(-0.103348 0.0124198 3.0201e-19)
(-0.148118 0.0129799 -2.81378e-19)
(-0.194354 0.0131974 -1.53275e-19)
(-0.241275 0.0132738 2.68978e-19)
(-0.288581 0.0132912 3.42476e-19)
(-0.335869 0.0132456 -5.90397e-20)
(-0.383411 0.0131974 1.77301e-19)
(-0.00547461 0.0121103 3.89031e-20)
(-0.0257885 0.0256777 2.49425e-19)
(-0.0610646 0.0331317 -7.21907e-19)
(-0.101709 0.0369342 6.60238e-19)
(-0.145169 0.0386329 2.866e-20)
(-0.189879 0.0392882 5.00618e-19)
(-0.23499 0.0395022 -8.92486e-19)
(-0.280125 0.039526 -1.34782e-18)
(-0.324727 0.0393555 -2.74761e-19)
(-0.368858 0.0391542 6.38066e-19)
(-0.00622265 0.0195644 9.11981e-20)
(-0.0263731 0.0417311 6.72541e-19)
(-0.0600335 0.0540897 1.59033e-18)
(-0.0985153 0.0604829 -1.45608e-18)
(-0.139416 0.0633729 -3.36712e-19)
(-0.181144 0.0644762 -3.11264e-19)
(-0.222729 0.0647853 1.61095e-18)
(-0.263653 0.0647341 1.02765e-18)
(-0.303085 0.0643428 2.64117e-19)
(-0.340628 0.063823 -1.97954e-18)
(-0.00725939 0.0261388 3.236e-19)
(-0.0271886 0.0562498 -3.92884e-19)
(-0.0585549 0.073399 -2.9773e-18)
(-0.0939334 0.0824506 2.62903e-19)
(-0.131141 0.0866141 8.33546e-19)
(-0.168567 0.0881854 -6.64883e-19)
(-0.205085 0.0885288 -3.49511e-20)
(-0.24 0.0882784 -2.85876e-19)
(-0.272159 0.0875244 6.64347e-19)
(-0.300355 0.0864299 1.99278e-18)
(-0.00849316 0.0315756 2.26573e-19)
(-0.0281673 0.0687426 -1.28222e-18)
(-0.0567057 0.0904915 3.08858e-18)
(-0.0881979 0.102265 -1.41815e-18)
(-0.120743 0.107803 -4.76322e-21)
(-0.152738 0.109875 2.0212e-18)
(-0.18289 0.110186 -9.47447e-19)
(-0.210313 0.109586 1.22888e-19)
(-0.233612 0.108302 -4.01966e-19)
(-0.250226 0.106313 1.4683e-19)
(-0.00981833 0.0357 2.72209e-18)
(-0.0292294 0.078832 3.3053e-18)
(-0.05458 0.104888 -8.45191e-19)
(-0.0815997 0.119411 1.6294e-18)
(-0.108718 0.126427 5.21083e-19)
(-0.134383 0.129046 -7.47304e-19)
(-0.157154 0.129267 -2.89084e-19)
(-0.175955 0.128155 -1.34357e-18)
(-0.189401 0.126168 2.89945e-19)
(-0.19276 0.122954 -1.86827e-18)
(-0.0111272 0.0384306 -2.62593e-18)
(-0.0302908 0.0862758 -1.72658e-18)
(-0.0522843 0.116222 1.41907e-18)
(-0.0744683 0.133455 -2.47424e-18)
(-0.0956298 0.142029 2.93551e-19)
(-0.114322 0.145248 2.99298e-18)
(-0.129009 0.145338 -5.40061e-19)
(-0.13841 0.14356 -2.45692e-19)
(-0.141617 0.14069 1.76494e-18)
(-0.13065 0.136083 -4.11093e-19)
(-0.0123219 0.0397804 2.23038e-18)
(-0.0312727 0.0909797 -4.02349e-18)
(-0.0499312 0.124257 -1.60543e-18)
(-0.0671518 0.144053 1.88565e-18)
(-0.0820777 0.154215 6.8959e-20)
(-0.0934244 0.158077 -5.61365e-18)
(-0.0996473 0.158017 1.82869e-18)
(-0.0992076 0.155456 1.23724e-18)
(-0.0922443 0.151414 -3.47985e-18)
(-0.0667403 0.145831 1.91395e-18)
(-0.0133247 0.0398479 -1.24774e-18)
(-0.0321113 0.0930001 5.97096e-19)
(-0.0476335 0.128905 1.48039e-18)
(-0.0599945 0.15098 -1.33892e-18)
(-0.0686626 0.162672 -4.73653e-18)
(-0.0725621 0.167192 1.65942e-18)
(-0.0702541 0.166983 -8.45289e-19)
(-0.059925 0.163637 7.13477e-19)
(-0.0429198 0.157903 5.98559e-18)
(-0.00362324 0.151812 -2.76885e-18)
(-0.0140866 0.0388097 1.98342e-18)
(-0.0327652 0.0925371 1.79835e-18)
(-0.0454977 0.130228 -2.58915e-19)
(-0.0533126 0.154142 6.65585e-18)
(-0.055943 0.167184 2.84345e-18)
(-0.0525476 0.172317 2.16752e-18)
(-0.0418815 0.171955 1.47559e-18)
(-0.0220262 0.167805 -4.18857e-18)
(0.00453457 0.160159 -2.00021e-18)
(0.0573455 0.153161 -3.39052e-18)
(-0.0145957 0.0368957 -1.76219e-19)
(-0.0332259 0.0899093 -2.83672e-18)
(-0.0436183 0.12844 -2.04484e-18)
(-0.0473658 0.153594 -3.2887e-18)
(-0.0443872 0.167666 -2.63801e-18)
(-0.0340787 0.173273 2.67188e-18)
(-0.0154672 0.172703 -2.07224e-18)
(0.0134845 0.167737 1.8708e-18)
(0.0486181 0.158263 2.44643e-19)
(0.114957 0.149473 8.92774e-19)
(-0.0148746 0.0343642 -5.47987e-18)
(-0.0335163 0.0855287 2.60213e-18)
(-0.0420689 0.1239 1.89618e-18)
(-0.0423301 0.149553 2.36796e-18)
(-0.0343155 0.164183 -3.36519e-18)
(-0.0176362 0.170016 -2.00483e-18)
(0.00836418 0.169138 2.93929e-18)
(0.0459224 0.163443 8.51776e-19)
(0.0887235 0.152039 1.99043e-18)
(0.168945 0.140806 -2.69879e-18)
(-0.0149784 0.0314816 4.58902e-18)
(-0.0336877 0.0798636 1.8506e-18)
(-0.0408888 0.117077 1.09472e-19)
(-0.0382648 0.142394 -1.13324e-18)
(-0.0258357 0.156986 -7.96273e-19)
(-0.00337542 0.162689 1.5692e-18)
(0.0294731 0.161345 -1.7314e-18)
(0.07525 0.155066 -2.78053e-18)
(0.125287 0.141593 -5.56982e-18)
(0.220844 0.127643 4.09623e-18)
(-0.0149864 0.0284996 3.09246e-18)
(-0.0338074 0.0733965 -4.99607e-18)
(-0.0400665 0.108519 -3.83848e-18)
(-0.0350778 0.132634 1.65813e-18)
(-0.0187764 0.146516 3.39421e-18)
(0.00898874 0.151658 3.82643e-18)
(0.0483875 0.149651 -2.07241e-18)
(0.102366 0.142989 6.20566e-18)
(0.160179 0.127337 -1.86975e-18)
(0.274149 0.111292 -4.81549e-18)
(-0.01499 0.0256346 -2.08513e-19)
(-0.0339399 0.0665833 2.78941e-18)
(-0.0395177 0.0988102 -1.32077e-18)
(-0.0324936 0.120903 1.37748e-19)
(-0.0126288 0.1334 1.40531e-18)
(0.020283 0.137536 -4.55595e-18)
(0.0664553 0.134691 4.11411e-18)
(0.129278 0.127913 -4.04184e-18)
(0.19701 0.110039 6.73877e-18)
(0.333561 0.0939625 2.52757e-18)
(-0.0150774 0.0230517 -1.41833e-18)
(-0.0341217 0.0598165 5.38665e-18)
(-0.0390626 0.0885206 -1.34414e-18)
(-0.0300293 0.107896 1.36298e-18)
(-0.00651321 0.11842 1.56917e-18)
(0.0319235 0.121177 -4.62704e-19)
(0.0858826 0.117435 3.45704e-18)
(0.159048 0.110849 1.4658e-19)
(0.240919 0.0910131 -4.35266e-18)
(0.403121 0.0783073 5.95441e-18)
(-0.0153166 0.0208545 -2.62164e-18)
(-0.0343357 0.0533968 -5.09477e-18)
(-0.0384071 0.0781634 4.40859e-18)
(-0.0269895 0.0943153 2.19644e-18)
(0.000806572 0.102446 -1.02121e-17)
(0.0458632 0.103613 8.33167e-18)
(0.109569 0.0991297 -7.61437e-18)
(0.195426 0.0930074 8.63039e-20)
(0.29756 0.0723778 -1.81607e-18)
(0.483798 0.0667042 -5.55501e-18)
(-0.0157404 0.01908 2.25111e-18)
(-0.0344907 0.0475147 -2.98487e-19)
(-0.0371385 0.068154 -1.08335e-18)
(-0.0224932 0.0808125 -1.33007e-19)
(0.0108414 0.0863613 -6.21605e-19)
(0.0644051 0.0859607 -2.66969e-18)
(0.140694 0.0811728 1.16871e-18)
(0.24224 0.0756407 -1.82355e-18)
(0.371252 0.057046 5.38206e-19)
(0.572065 0.0605371 1.47186e-19)
(-0.0163349 0.0177007 -4.59166e-18)
(-0.0344128 0.0422443 -3.21799e-19)
(-0.0347407 0.0587814 4.9527e-19)
(-0.015537 0.0679261 1.99878e-19)
(0.0252242 0.0709651 3.33027e-18)
(0.089893 0.0692848 -9.69048e-18)
(0.182121 0.0648991 6.58831e-18)
(0.30265 0.0599981 -4.96403e-18)
(0.462887 0.047988 4.36482e-18)
(0.661472 0.0591055 5.01247e-18)
(-0.0170341 0.0166341 -5.4983e-19)
(-0.0338491 0.0375529 2.54892e-18)
(-0.0306287 0.0501965 -3.18167e-18)
(-0.00508765 0.0560422 -9.9308e-19)
(0.0455139 0.0568992 1.90993e-18)
(0.124345 0.0544827 9.20218e-18)
(0.23578 0.0513819 -1.8656e-18)
(0.378283 0.0474996 9.0925e-19)
(0.568382 0.046569 -4.98639e-18)
(0.747433 0.0576579 2.32792e-18)
(-0.0177251 0.015762 -1.6632e-18)
(-0.032483 0.0333211 -1.29082e-18)
(-0.0241946 0.0424178 3.19916e-19)
(0.00981954 0.0453802 1.25208e-18)
(0.0730096 0.0446092 -3.69485e-18)
(0.169151 0.042221 -1.49487e-18)
(0.302307 0.0413407 -4.72213e-18)
(0.468311 0.0397913 4.95067e-18)
(0.678784 0.0505276 5.34913e-18)
(0.831683 0.049354 -2.36415e-18)
(-0.0182653 0.0149548 -7.89691e-19)
(-0.0299554 0.0293703 3.23686e-18)
(-0.0148498 0.03536 -3.6064e-18)
(0.0300035 0.0360144 -4.19241e-19)
(0.108628 0.0343568 -1.69569e-18)
(0.2249 0.0329428 3.69742e-18)
(0.381024 0.0352105 4.79452e-18)
(0.569087 0.0379747 -4.63896e-18)
(0.784359 0.054567 5.02588e-18)
(0.946762 0.0473069 7.00186e-19)
(-0.0184973 0.0140837 -2.2952e-18)
(-0.0258947 0.0255006 -6.53341e-18)
(-0.00205559 0.0288834 6.3729e-18)
(0.0560981 0.027927 9.16191e-19)
(0.152857 0.0262784 1.33488e-18)
(0.291344 0.0269254 8.14182e-19)
(0.47001 0.0332478 3.67007e-18)
(0.67485 0.0414881 2.72731e-18)
(0.887043 0.0606837 -9.79493e-18)
(1.04815 0.0574865 -4.90272e-18)
(-0.0182538 0.0130376 3.11528e-18)
(-0.0199379 0.0215378 -7.91963e-19)
(0.0146606 0.0228504 -3.60542e-18)
(0.0885475 0.0210791 6.99408e-19)
(0.205777 0.0204693 1.1189e-18)
(0.36745 0.0243519 -8.07247e-18)
(0.566203 0.0355145 3.58166e-18)
(0.780227 0.049216 -2.45132e-18)
(0.982283 0.0700866 2.58877e-18)
(1.12852 0.0697211 -9.22501e-19)
(-0.0173701 0.0117415 3.15109e-18)
(-0.0117381 0.0173663 7.14553e-18)
(0.0357047 0.0171792 1.95838e-19)
(0.12762 0.0154838 -9.8506e-19)
(0.267075 0.0170611 3.44961e-20)
(0.451492 0.0253455 7.68524e-20)
(0.665772 0.0417979 -5.45012e-18)
(0.880595 0.0601674 6.87838e-19)
(1.06589 0.0816092 6.93795e-18)
(1.19322 0.0826709 3.21759e-18)
(-0.0156927 0.0101639 -6.45365e-21)
(-0.00096931 0.0129515 -1.42849e-18)
(0.0614187 0.0118863 5.92084e-18)
(0.173416 0.0112602 1.57507e-19)
(0.336056 0.0162604 -2.5805e-18)
(0.541138 0.0299485 6.93435e-18)
(0.764711 0.0516299 1.53765e-18)
(0.972319 0.0734194 1.05494e-19)
(1.13654 0.0943539 -3.0272e-18)
(1.24204 0.095719 -4.03262e-18)
(-0.0130809 0.0083154 4.04402e-18)
(0.012668 0.00834986 -1.12448e-18)
(0.092076 0.00710852 -3.58119e-18)
(0.22585 0.00865578 2.39929e-19)
(0.411615 0.0183311 4.19286e-18)
(0.633612 0.0380709 -4.19794e-18)
(0.85938 0.0643787 -2.37834e-18)
(1.05317 0.0881779 -5.41188e-19)
(1.19398 0.107661 -1.74269e-18)
(1.27796 0.108362 1.95737e-18)
(-0.00940559 0.00624271 -1.48784e-18)
(0.0294407 0.00370668 -8.86489e-18)
(0.127862 0.0031038 9.2224e-19)
(0.284606 0.00802952 2.40865e-18)
(0.49222 0.0235231 1.56813e-18)
(0.72597 0.0494596 -5.56856e-18)
(0.946922 0.0793684 5.05102e-18)
(1.12218 0.103807 -5.68608e-18)
(1.23918 0.121079 -8.51901e-19)
(1.30319 0.120566 9.77119e-19)
(-0.00454723 0.00402208 -1.63624e-18)
(0.0495726 -0.000754927 3.14435e-18)
(0.168843 0.000231201 4.11212e-18)
(0.349087 0.00980101 -5.04441e-18)
(0.575965 0.0319859 2.89615e-18)
(0.815418 0.0637197 4.35783e-18)
(1.02544 0.0959697 1.31094e-18)
(1.17939 0.119839 3.54955e-18)
(1.27356 0.134361 2.52167e-18)
(1.32005 0.132308 -2.727e-18)
(0.0016039 0.00175256 -2.11918e-18)
(0.0732298 -0.0047504 -7.20883e-19)
(0.214926 -0.00108149 -7.46307e-18)
(0.418371 0.0143779 -1.17367e-18)
(0.660707 0.0437111 -1.29392e-19)
(0.899611 0.0803772 3.98448e-19)
(1.09397 0.113652 -7.921e-18)
(1.22553 0.135956 1.44253e-18)
(1.29877 0.147386 6.02113e-20)
(1.33045 0.143687 1.87517e-18)
(0.00914484 -0.000448857 -5.55249e-19)
(0.100503 -0.00795098 2.58912e-18)
(0.265823 -0.000377857 3.64962e-18)
(0.491226 0.0220828 2.28655e-18)
(0.744275 0.0585291 -6.7724e-19)
(0.976817 0.0989475 -5.66416e-19)
(1.15229 0.131997 6.04904e-18)
(1.26172 0.151963 5.66833e-19)
(1.31644 0.160135 8.64433e-19)
(1.33598 0.154807 -1.13741e-18)
(0.0181545 -0.00245062 5.30722e-18)
(0.131386 -0.0100008 3.4327e-18)
(0.321029 0.00278469 -3.48411e-18)
(0.566168 0.0331023 -6.95269e-19)
(0.824686 0.0761491 3.67132e-19)
(1.04595 0.118984 -1.33802e-18)
(1.20077 0.1507 -1.05919e-18)
(1.28924 0.167763 -2.30631e-18)
(1.32803 0.172641 -3.75501e-18)
(1.33785 0.165778 1.83328e-18)
(0.0286868 -0.0041094 6.59876e-19)
(0.165765 -0.010533 -1.87541e-18)
(0.379818 0.00879453 4.44449e-18)
(0.641588 0.0474692 2.90042e-18)
(0.900296 0.0962142 9.28473e-20)
(1.1065 0.140103 2.07162e-18)
(1.24009 0.169548 -5.03744e-19)
(1.30938 0.183323 -1.86555e-18)
(1.33479 0.184967 4.70754e-18)
(1.337 0.176694 1.24242e-18)
(0.0407635 -0.00527254 -4.38695e-18)
(0.203399 -0.00918619 -1.29276e-18)
(0.441266 0.0179522 -1.16784e-18)
(0.715876 0.0650774 -2.03967e-18)
(0.969881 0.118349 4.83852e-19)
(1.15841 0.16199 1.24422e-20)
(1.27114 0.188405 1.61397e-18)
(1.32333 0.198654 -1.91468e-18)
(1.33774 0.197186 -2.81864e-18)
(1.33408 0.187625 -1.88548e-18)
(0.0543675 -0.00578128 3.57164e-19)
(0.243925 -0.00562076 2.09704e-18)
(0.5043 0.0304482 1.01872e-18)
(0.78755 0.0857147 -3.18971e-18)
(1.03263 0.142188 -1.62272e-19)
(1.20194 0.184393 -1.38617e-18)
(1.29486 0.207188 3.61531e-20)
(1.33215 0.213791 6.58235e-19)
(1.33768 0.209364 -7.43143e-19)
(1.32956 0.198618 2.09513e-18)
(0.0694377 -0.00547501 8.41167e-19)
(0.286851 0.000463008 -2.05569e-18)
(0.567761 0.0463547 -4.86059e-18)
(0.85534 0.109098 4.48709e-18)
(1.08809 0.167395 -3.37206e-19)
(1.23758 0.207115 9.98597e-19)
(1.31217 0.225854 -1.42197e-19)
(1.33673 0.228776 9.78403e-19)
(1.33523 0.221552 -7.03191e-20)
(1.32377 0.209693 -1.62546e-18)
(0.0858661 -0.00419665 -1.71583e-18)
(0.331578 0.00930819 2.6795e-18)
(0.630476 0.0656294 2.21309e-18)
(0.91823 0.134904 -3.20544e-18)
(1.13613 0.193663 -5.35283e-19)
(1.26592 0.230004 2.03765e-19)
(1.32392 0.244381 2.07406e-18)
(1.33781 0.243645 1.07492e-19)
(1.33082 0.233782 4.13079e-19)
(1.31689 0.220849 -8.9234e-19)
(0.103498 -0.00179888 1.30205e-18)
(0.377418 0.0210866 -1.17149e-18)
(0.691321 0.0881289 -1.00116e-18)
(0.975465 0.162787 1.7207e-18)
(1.1768 0.220718 5.95998e-19)
(1.28758 0.252935 4.54251e-19)
(1.33087 0.262757 -2.11352e-18)
(1.33595 0.258428 -7.32767e-19)
(1.32478 0.246066 -6.61936e-19)
(1.30905 0.232063 2.93291e-19)
(0.122131 0.00184909 -3.85843e-19)
(0.42362 0.0358885 -3.64476e-19)
(0.749271 0.113626 1.89579e-18)
(1.02653 0.192399 -6.95739e-19)
(1.21033 0.24831 -3.09688e-19)
(1.30321 0.275809 -2.04518e-19)
(1.33367 0.28097 5.12827e-19)
(1.33162 0.273133 8.92726e-19)
(1.31732 0.258395 -2.82309e-20)
(1.30033 0.243299 3.32572e-19)
(0.141525 0.00685483 -1.17601e-19)
(0.469405 0.053717 4.77438e-19)
(0.803437 0.141827 -4.1544e-19)
(1.07111 0.22339 -2.59129e-19)
(1.23704 0.276215 2.04861e-19)
(1.31339 0.298534 1.4394e-19)
(1.33286 0.299002 -8.09758e-20)
(1.32513 0.287753 1.38687e-19)
(1.3086 0.270738 3.54513e-20)
(1.29077 0.254505 -1.06898e-19)
(0.161403 0.0132966 5.04446e-20)
(0.513991 0.0744886 3.90919e-19)
(0.853082 0.172388 -3.09072e-19)
(1.10907 0.255414 -3.02742e-19)
(1.25731 0.304224 2.05352e-19)
(1.31867 0.321025 1.34511e-19)
(1.32887 0.316822 -2.13609e-19)
(1.31675 0.302262 2.16785e-19)
(1.29869 0.283045 1.94251e-20)
(1.28038 0.265619 -1.03019e-19)
(0.181461 0.0212185 1.96447e-19)
(0.556632 0.098037 -1.7926e-19)
(0.897625 0.20493 1.30555e-18)
(1.14041 0.288135 -5.83962e-19)
(1.27154 0.332138 -2.86521e-19)
(1.31953 0.343195 -3.25012e-19)
(1.32207 0.334385 6.68632e-19)
(1.30665 0.316614 4.51917e-19)
(1.28766 0.29525 3.64438e-19)
(1.26918 0.276573 2.01068e-19)
(0.20138 0.0306269 1.98795e-18)
(0.596633 0.124121 -1.0933e-18)
(0.936635 0.239049 -1.24509e-18)
(1.16522 0.321223 1.69741e-18)
(1.28013 0.359769 8.97607e-19)
(1.3164 0.364952 -6.05552e-20)
(1.31274 0.351633 -1.11957e-18)
(1.29497 0.330742 -8.11368e-19)
(1.27555 0.30727 -8.57706e-19)
(1.25718 0.287291 5.1599e-19)
(0.220831 0.0414887 -2.69049e-18)
(0.633376 0.152437 2.53022e-18)
(0.969818 0.274325 2.91764e-18)
(1.18366 0.354357 -2.8829e-18)
(1.28348 0.386932 -1.00024e-18)
(1.30965 0.386197 6.46344e-19)
(1.3011 0.36849 1.17984e-18)
(1.28178 0.344566 1.87891e-19)
(1.26236 0.319007 -3.56826e-20)
(1.24435 0.297694 -7.09766e-19)
(0.239489 0.0537317 -3.87254e-19)
(0.666328 0.182623 -3.56376e-18)
(0.997 0.310331 -3.82153e-18)
(1.19598 0.387226 4.30015e-18)
(1.28196 0.413445 -4.89576e-19)
(1.29959 0.406823 9.06503e-19)
(1.28733 0.38487 1.80913e-19)
(1.26715 0.357994 -5.09121e-19)
(1.24809 0.33036 2.73493e-19)
(1.2306 0.307704 -3.97521e-20)
(0.257038 0.0672457 7.87408e-19)
(0.695051 0.21428 2.21041e-18)
(1.01812 0.346638 1.25369e-18)
(1.20242 0.419526 -9.87691e-19)
(1.27594 0.439127 -1.54413e-18)
(1.28649 0.426712 -1.44545e-18)
(1.27158 0.400675 -2.94569e-19)
(1.25113 0.370937 7.9261e-19)
(1.23272 0.341261 -1.67233e-19)
(1.21575 0.317247 3.9227e-19)
(0.273183 0.0818859 -2.98197e-18)
(0.71921 0.246974 -2.78107e-18)
(1.0332 0.382821 -4.43349e-19)
(1.20329 0.450965 -5.00072e-19)
(1.26576 0.463797 -1.14277e-18)
(1.27061 0.44574 7.03192e-19)
(1.25397 0.415796 -1.26684e-19)
(1.23378 0.383304 -1.26733e-18)
(1.21626 0.351701 -2.26661e-19)
(1.19974 0.326211 -1.75183e-18)
(0.287657 0.0974765 7.0661e-19)
(0.738566 0.280256 2.36061e-18)
(1.04234 0.418459 2.05857e-18)
(1.19889 0.48126 2.24299e-18)
(1.25172 0.487274 4.08364e-20)
(1.25216 0.463775 1.98572e-18)
(1.23461 0.43011 -1.22197e-18)
(1.21515 0.394976 6.70486e-19)
(1.19877 0.361665 1.48254e-18)
(1.18303 0.334468 8.46993e-19)
(0.300226 0.113815 1.93321e-18)
(0.752977 0.313669 4.32386e-18)
(1.0457 0.453148 -5.72552e-19)
(1.18955 0.510138 -2.82809e-18)
(1.23413 0.509381 1.27927e-18)
(1.23131 0.48068 -1.3403e-18)
(1.21359 0.443489 -1.08558e-18)
(1.19531 0.405824 -8.34134e-19)
(1.18023 0.370894 -1.45345e-18)
(1.16578 0.342133 5.75362e-19)
(0.310696 0.130676 9.12018e-19)
(0.762384 0.346759 6.81107e-19)
(1.04349 0.486498 5.4241e-18)
(1.17559 0.537337 1.02391e-18)
(1.21327 0.529943 -8.98526e-19)
(1.20827 0.496314 -4.62324e-19)
(1.19107 0.455802 2.94308e-18)
(1.17431 0.415764 -1.24395e-19)
(1.16065 0.379271 1.1773e-18)
(1.14782 0.348996 -1.65542e-19)
(0.318913 0.147821 1.94265e-19)
(0.766808 0.379081 -4.42856e-18)
(1.03599 0.518137 -6.38511e-18)
(1.15736 0.562608 2.06451e-19)
(1.18943 0.548788 1.27702e-18)
(1.18323 0.510526 -1.77346e-18)
(1.16715 0.466922 -4.39287e-18)
(1.15216 0.424679 1.3125e-18)
(1.14014 0.386694 -7.75669e-20)
(1.12914 0.354969 6.55258e-19)
(0.324769 0.165003 -1.58566e-18)
(0.766344 0.410206 4.00979e-18)
(1.02351 0.547721 3.84623e-18)
(1.1352 0.585718 -1.32134e-18)
(1.16285 0.565737 -1.33652e-18)
(1.15636 0.523177 4.34562e-18)
(1.14189 0.476721 -1.0061e-18)
(1.12896 0.432456 1.70576e-18)
(1.11875 0.393067 7.97331e-19)
(1.10979 0.359956 -6.01937e-19)
(0.328197 0.181969 -3.57929e-18)
(0.76116 0.439722 -6.31688e-18)
(1.00643 0.574946 -1.24352e-18)
(1.10941 0.606441 2.55464e-18)
(1.13379 0.580622 1.4928e-18)
(1.12782 0.534114 -3.8882e-18)
(1.11541 0.485078 2.7929e-18)
(1.10477 0.438985 -1.95053e-18)
(1.09656 0.398293 -3.26073e-19)
(1.08981 0.363887 1.75809e-20)
(0.329179 0.198466 2.72867e-18)
(0.751507 0.467229 1.84502e-19)
(0.985082 0.599537 -6.11542e-19)
(1.08025 0.624561 -2.57179e-18)
(1.10254 0.59328 1.71286e-18)
(1.0978 0.5432 -6.776e-19)
(1.08785 0.491873 -1.32392e-18)
(1.07971 0.444165 2.10736e-19)
(1.07363 0.402278 -3.39515e-19)
(1.06928 0.366682 2.39117e-19)
(0.327762 0.214258 2.1276e-19)
(0.737702 0.492392 -1.07004e-18)
(0.959616 0.621145 2.71084e-18)
(1.04814 0.63994 1.26679e-18)
(1.06938 0.60354 -1.7507e-18)
(1.06648 0.550316 2.59236e-18)
(1.05933 0.496997 1.65925e-19)
(1.05388 0.447902 1.68163e-19)
(1.05004 0.404928 -1.70242e-19)
(1.04827 0.368256 -1.29869e-20)
(0.324038 0.229097 2.16758e-18)
(0.720048 0.515053 3.79469e-18)
(0.930243 0.639419 -2.41128e-19)
(1.01355 0.652338 -6.15285e-19)
(1.03458 0.611304 -7.24881e-19)
(1.03405 0.555347 -3.65719e-19)
(1.03 0.500353 1.50614e-19)
(1.02738 0.450113 2.0153e-19)
(1.02587 0.406151 2.03662e-19)
(1.02684 0.368514 -1.16592e-19)
(0.31808 0.242645 4.3537e-19)
(0.698662 0.534901 6.77881e-19)
(0.89772 0.654439 -3.61248e-18)
(0.976861 0.661525 1.6391e-18)
(0.998405 0.616456 5.44975e-19)
(1.0007 0.558198 -1.25176e-18)
(1.00001 0.501852 4.01466e-19)
(1.00032 0.450725 1.03782e-19)
(1.00122 0.405867 -2.36399e-19)
(1.00513 0.367368 1.84721e-19)
(0.309885 0.254638 -1.86136e-18)
(0.673773 0.551407 -1.38335e-18)
(0.862593 0.665981 1.21546e-18)
(0.938368 0.667478 3.75837e-19)
(0.961097 0.618899 -6.22859e-19)
(0.966631 0.558777 6.38647e-19)
(0.969486 0.501417 1.41827e-19)
(0.972795 0.449669 -3.57866e-19)
(0.976276 0.404014 1.33399e-18)
(0.983601 0.364785 6.02499e-19)
(0.29969 0.264877 -1.46267e-18)
(0.645909 0.564334 3.80182e-18)
(0.825157 0.673827 -2.48555e-18)
(0.8984 0.670117 -3.17534e-19)
(0.922926 0.61855 -5.20766e-19)
(0.932026 0.557011 1.69128e-19)
(0.938561 0.498981 -4.56898e-19)
(0.944945 0.446859 2.56287e-19)
(0.951431 0.4005 5.91994e-20)
(0.962718 0.360918 -2.28346e-19)
(0.287746 0.273356 -7.84646e-20)
(0.6155 0.573583 -1.11969e-18)
(0.78582 0.677789 6.95628e-19)
(0.857299 0.669361 -4.37558e-19)
(0.884155 0.615349 2.03591e-19)
(0.897081 0.552845 3.47279e-19)
(0.907378 0.494499 1.00261e-18)
(0.916995 0.44224 -8.25007e-19)
(0.92714 0.395147 -1.60996e-18)
(0.942107 0.355687 7.59225e-19)
(0.274178 0.279878 7.6209e-20)
(0.582993 0.579029 -1.24753e-19)
(0.745001 0.677772 7.00352e-20)
(0.815413 0.665146 2.13663e-19)
(0.845049 0.60925 -7.08718e-19)
(0.861995 0.546242 -1.4205e-18)
(0.876131 0.487944 -4.06826e-19)
(0.889259 0.435874 -1.7678e-19)
(0.903712 0.388114 2.31438e-18)
(0.919846 0.345749 -4.67476e-19)
(0.259198 0.284301 -3.41476e-19)
(0.548819 0.58057 -4.53435e-19)
(0.703122 0.673723 1.46486e-19)
(0.773088 0.657438 1.08572e-19)
(0.805873 0.600227 -6.88974e-19)
(0.826981 0.537168 2.85157e-18)
(0.845061 0.47926 -2.08199e-18)
(0.861958 0.427708 2.51328e-18)
(0.880219 0.380716 -1.76318e-18)
(0.896935 0.33958 -2.39105e-18)
(0.24305 0.286521 7.07591e-20)
(0.513402 0.578136 -2.02386e-19)
(0.6606 0.665625 9.22283e-20)
(0.730664 0.646227 1.0601e-18)
(0.766888 0.588269 -5.01998e-19)
(0.792258 0.525605 7.56491e-19)
(0.814358 0.468406 1.20712e-18)
(0.835031 0.417542 -6.38899e-19)
(0.856513 0.371149 -1.76917e-18)
(0.874545 0.330325 2.431e-18)
(0.22598 0.286464 8.06007e-19)
(0.477162 0.571692 1.03525e-18)
(0.617847 0.653493 -1.06459e-18)
(0.688477 0.631531 -9.2941e-19)
(0.728356 0.573389 3.5722e-18)
(0.758041 0.511562 -3.66818e-18)
(0.78418 0.455417 4.4652e-18)
(0.808549 0.405562 -1.10996e-18)
(0.832997 0.360236 1.19572e-18)
(0.852875 0.320502 2.28277e-18)
(0.208244 0.284082 1.99421e-18)
(0.440518 0.561243 -1.07204e-18)
(0.575264 0.637368 -7.49465e-19)
(0.646854 0.613394 -3.80594e-19)
(0.690537 0.55562 5.10435e-19)
(0.724544 0.495061 -1.00627e-18)
(0.754685 0.440302 -1.33012e-18)
(0.782629 0.391724 -2.96497e-18)
(0.809897 0.347691 2.95346e-18)
(0.83191 0.309248 -9.40886e-19)
(0.190095 0.279353 7.18285e-19)
(0.403881 0.546828 -3.00865e-19)
(0.533242 0.617324 -1.05741e-18)
(0.606113 0.591884 1.31853e-18)
(0.653684 0.535017 -2.35066e-18)
(0.691973 0.476147 6.40487e-18)
(0.726039 0.423108 -3.42439e-18)
(0.757438 0.376106 3.10981e-18)
(0.787445 0.333654 -5.70086e-18)
(0.811744 0.2967 -1.52114e-18)
(0.171788 0.272287 -6.46267e-19)
(0.367654 0.528523 2.37326e-18)
(0.492156 0.593463 5.37975e-19)
(0.566561 0.567094 -1.2438e-18)
(0.618042 0.511654 -2.15721e-18)
(0.660529 0.454879 -1.61782e-18)
(0.698407 0.403887 1.08392e-18)
(0.73313 0.358747 -2.81928e-18)
(0.765791 0.318121 1.37344e-18)
(0.792443 0.282812 1.84712e-19)
(0.153573 0.262916 -3.97676e-18)
(0.332224 0.506438 -9.66191e-19)
(0.452369 0.565913 -2.76632e-19)
(0.528494 0.539138 3.43659e-18)
(0.58385 0.485624 -3.26074e-18)
(0.630409 0.431338 7.66063e-19)
(0.671957 0.38271 -4.04291e-19)
(0.70986 0.33971 2.76901e-18)
(0.745079 0.301138 8.46479e-19)
(0.774095 0.267626 -1.7541e-18)
(0.135695 0.251299 3.57404e-18)
(0.297964 0.480715 -2.03925e-18)
(0.414224 0.534832 9.10432e-20)
(0.492192 0.508153 -3.13703e-18)
(0.551334 0.457042 3.83812e-18)
(0.601801 0.405616 -1.70407e-18)
(0.64685 0.359656 1.01992e-18)
(0.687774 0.319061 7.58698e-20)
(0.725436 0.282756 -3.43636e-19)
(0.756784 0.25119 -1.07043e-18)
(0.118388 0.237519 -1.44851e-18)
(0.265227 0.451528 4.24477e-18)
(0.378046 0.500401 2.39767e-18)
(0.45792 0.474299 3.94743e-18)
(0.520711 0.426038 -9.08177e-19)
(0.574887 0.377825 3.69168e-19)
(0.623242 0.334823 2.82934e-18)
(0.667008 0.29688 -2.86708e-18)
(0.706979 0.263038 6.43345e-20)
(0.740594 0.23357 -1.28163e-18)
(0.101876 0.221683 -3.39744e-18)
(0.234346 0.419076 -2.44184e-19)
(0.344141 0.462827 -1.41726e-18)
(0.425929 0.437753 -6.38097e-18)
(0.492184 0.39276 -6.17217e-18)
(0.549836 0.348091 1.02784e-18)
(0.601279 0.308317 -3.44659e-18)
(0.647692 0.273259 6.07167e-18)
(0.68982 0.24206 8.79016e-19)
(0.725605 0.214839 1.83597e-18)
(0.0863715 0.203918 5.02807e-18)
(0.205629 0.383588 -4.11188e-18)
(0.312788 0.422338 -2.09198e-18)
(0.396449 0.398712 3.69302e-18)
(0.465941 0.357375 4.21191e-18)
(0.526809 0.316553 -1.40213e-18)
(0.581098 0.280259 1.68968e-18)
(0.629943 0.248298 -2.21141e-18)
(0.674062 0.219909 -2.84829e-18)
(0.711892 0.195084 1.09114e-18)
(0.0720686 0.184372 -2.86653e-18)
(0.17936 0.345317 1.20499e-18)
(0.284247 0.379184 4.4434e-18)
(0.369692 0.357391 -2.00269e-18)
(0.442157 0.320061 1.62268e-19)
(0.505952 0.283364 5.64303e-18)
(0.562826 0.250779 -5.46899e-19)
(0.613874 0.222109 -4.38051e-18)
(0.659801 0.196684 5.0091e-18)
(0.699522 0.174396 -1.84472e-18)
(0.0591458 0.16321 3.9953e-18)
(0.155796 0.304535 4.46249e-19)
(0.258751 0.333632 2.92085e-19)
(0.345848 0.314019 4.06736e-18)
(0.42099 0.281012 -5.39381e-19)
(0.4874 0.24869 -3.54505e-18)
(0.546576 0.22002 1.73435e-18)
(0.599583 0.194813 3.15495e-19)
(0.647123 0.172489 -2.08362e-18)
(0.688559 0.152871 3.63528e-19)
(0.0477626 0.140614 -2.49039e-18)
(0.135165 0.261538 -4.78882e-18)
(0.236505 0.285969 1.10925e-18)
(0.325088 0.268841 -2.16963e-18)
(0.402579 0.240433 -1.30676e-18)
(0.47127 0.212705 3.17055e-18)
(0.532452 0.188131 -7.66734e-19)
(0.587162 0.166541 7.04324e-19)
(0.636106 0.147439 -8.57085e-19)
(0.679056 0.130614 1.7149e-18)
(0.0380582 0.11678 9.06495e-19)
(0.117665 0.216636 3.23085e-18)
(0.217689 0.236492 -4.4912e-18)
(0.307559 0.222113 2.1201e-18)
(0.387047 0.198542 -9.66595e-19)
(0.457667 0.175595 -2.71783e-18)
(0.520543 0.155273 2.21814e-18)
(0.576687 0.137429 4.62767e-19)
(0.626818 0.121654 -7.19285e-20)
(0.671063 0.10773 -1.99111e-18)
(0.0301505 0.0919164 2.9794e-19)
(0.103461 0.170155 1.04477e-18)
(0.202454 0.185514 4.06932e-18)
(0.293385 0.174102 -7.81218e-19)
(0.374496 0.155564 -6.15449e-19)
(0.446678 0.137553 2.26937e-19)
(0.510923 0.121612 1.02397e-19)
(0.568227 0.107621 8.27367e-19)
(0.619317 0.0952601 -1.08602e-18)
(0.66462 0.0843299 -6.9492e-19)
(0.0241351 0.0662411 -7.43273e-19)
(0.0926903 0.122433 -1.27145e-18)
(0.19092 0.133359 -3.16896e-18)
(0.282667 0.125084 1.59461e-18)
(0.365009 0.111732 1.29921e-18)
(0.438374 0.0987798 5.53228e-20)
(0.503654 0.0873206 -2.16747e-18)
(0.561833 0.0772664 -9.61715e-19)
(0.61365 0.0683878 7.60251e-19)
(0.659759 0.060526 8.18805e-19)
(0.0200844 0.0399804 -1.40179e-19)
(0.0854527 0.0738192 -1.53163e-19)
(0.183179 0.0803558 6.01549e-19)
(0.275479 0.0753412 -4.07165e-19)
(0.35865 0.0672858 -3.59527e-19)
(0.432808 0.0594796 -2.43586e-19)
(0.498783 0.0525749 4.46425e-19)
(0.557548 0.0465181 1.69891e-18)
(0.609852 0.0411712 2.45674e-19)
(0.656504 0.0364322 -4.37582e-19)
(0.0180468 0.0133662 -1.64792e-20)
(0.0818169 0.0246664 4.11246e-19)
(0.179294 0.0268422 3.15641e-19)
(0.271872 0.0251624 -2.46112e-19)
(0.355459 0.0224698 3.19143e-19)
(0.430015 0.0198619 1.2378e-19)
(0.496339 0.0175555 7.12176e-21)
(0.555399 0.0155325 -5.56954e-19)
(0.607948 0.0137469 1.44936e-19)
(0.654873 0.0121636 -3.38748e-19)
(0.0180468 -0.0133662 9.22587e-20)
(0.0818169 -0.0246663 3.08699e-19)
(0.179294 -0.0268421 3.34625e-19)
(0.271872 -0.0251623 -1.98739e-19)
(0.355459 -0.0224698 3.26993e-19)
(0.430015 -0.0198619 -4.81198e-21)
(0.496339 -0.0175554 1.33607e-19)
(0.555399 -0.0155325 -6.20084e-19)
(0.607948 -0.0137469 1.27313e-19)
(0.654873 -0.0121635 -2.93478e-19)
(0.0200844 -0.0399804 -7.26367e-20)
(0.0854527 -0.0738191 -4.30264e-19)
(0.183179 -0.0803558 1.17417e-18)
(0.275479 -0.0753412 -1.03035e-18)
(0.35865 -0.0672857 -4.8675e-20)
(0.432808 -0.0594795 -6.83951e-19)
(0.498783 -0.0525748 1.11018e-18)
(0.557548 -0.0465181 1.50737e-18)
(0.609852 -0.0411712 2.68941e-19)
(0.656504 -0.0364322 -5.82445e-19)
(0.0241351 -0.0662411 -1.50641e-19)
(0.0926903 -0.122433 -1.10863e-18)
(0.19092 -0.133359 -2.57689e-18)
(0.282667 -0.125083 2.22834e-18)
(0.365009 -0.111732 4.58898e-19)
(0.438374 -0.0987798 4.05691e-19)
(0.503654 -0.0873205 -1.99732e-18)
(0.561833 -0.0772663 -1.17613e-18)
(0.61365 -0.0683878 -2.6092e-19)
(0.659759 -0.060526 1.79896e-18)
(0.0301505 -0.0919164 -5.31149e-19)
(0.103461 -0.170155 6.67349e-19)
(0.202454 -0.185514 4.67011e-18)
(0.293385 -0.174102 -4.19268e-19)
(0.374496 -0.155563 -1.19764e-18)
(0.446678 -0.137553 8.58445e-19)
(0.510923 -0.121612 5.89127e-20)
(0.568227 -0.107621 3.0176e-19)
(0.619317 -0.0952601 -6.59904e-19)
(0.66462 -0.0843298 -1.75252e-18)
(0.0380582 -0.11678 -3.5886e-19)
(0.117665 -0.216636 1.94775e-18)
(0.217689 -0.236492 -4.69923e-18)
(0.307559 -0.222113 2.03482e-18)
(0.387047 -0.198542 1.9334e-20)
(0.457667 -0.175595 -2.57574e-18)
(0.520543 -0.155273 1.13679e-18)
(0.576687 -0.137429 -1.05073e-19)
(0.626818 -0.121654 4.30996e-19)
(0.671063 -0.10773 -1.30683e-19)
(0.0477626 -0.140614 -4.10488e-18)
(0.135165 -0.261538 -4.90065e-18)
(0.236505 -0.285968 1.28412e-18)
(0.325088 -0.268841 -2.33042e-18)
(0.402579 -0.240433 -6.58176e-19)
(0.47127 -0.212705 9.81867e-19)
(0.532452 -0.188131 3.64328e-19)
(0.587162 -0.166541 1.34769e-18)
(0.636106 -0.147439 -2.90432e-19)
(0.679056 -0.130614 1.56743e-18)
(0.0591458 -0.16321 3.92556e-18)
(0.155796 -0.304535 2.51876e-18)
(0.258751 -0.333632 -1.90475e-18)
(0.345848 -0.314019 3.20329e-18)
(0.42099 -0.281012 -2.72255e-19)
(0.4874 -0.24869 -3.45736e-18)
(0.546576 -0.22002 6.06256e-19)
(0.599583 -0.194813 2.39507e-19)
(0.647123 -0.172489 -1.49608e-18)
(0.688559 -0.152871 3.65538e-19)
(0.0720686 -0.184372 -2.91207e-18)
(0.17936 -0.345317 5.2086e-18)
(0.284247 -0.379184 2.03972e-18)
(0.369692 -0.357391 -2.52662e-18)
(0.442157 -0.320061 2.36105e-20)
(0.505952 -0.283364 6.36975e-18)
(0.562826 -0.250779 -1.93236e-18)
(0.613874 -0.222109 -1.24898e-18)
(0.659801 -0.196684 2.99711e-18)
(0.699522 -0.174396 -1.5268e-18)
(0.0863715 -0.203918 1.6329e-18)
(0.205629 -0.383588 -7.80406e-19)
(0.312788 -0.422338 -1.8493e-18)
(0.396449 -0.398712 1.38633e-18)
(0.465941 -0.357375 5.33801e-18)
(0.526809 -0.316553 -1.87692e-18)
(0.581098 -0.280259 8.42389e-19)
(0.629943 -0.248298 -5.99609e-19)
(0.674062 -0.219909 -5.01618e-18)
(0.711892 -0.195084 2.20622e-18)
(0.101876 -0.221683 -2.16142e-18)