/*--------------------------------*- C++ -*----------------------------------*\
  =========                 |
  \\      /  F ield         | OpenFOAM: The Open Source CFD Toolbox
   \\    /   O peration     | Website:  https://openfoam.org
    \\  /    A nd           | Version:  7
     \\/     M anipulation  |
\*---------------------------------------------------------------------------*/
FoamFile
{
    version     2.0;
    format      ascii;
    class       volScalarField;
    location    "10";
    object      p;
}
// * * * * * * * * * * * * * * * * * * * * * * * * * * * * * * * * * * * * * //

dimensions      [0 2 -2 0 0 0 0];

internalField   nonuniform List<scalar> 
18750
(
-0.291155
-0.29305
-0.294093
-0.294982
-0.295797
-0.296583
-0.2974
-0.298293
-0.299298
-0.300448
-0.301778
-0.30333
-0.305166
-0.307292
-0.309834
-0.291288
-0.293162
-0.294196
-0.295077
-0.295886
-0.296666
-0.297478
-0.298366
-0.299365
-0.300509
-0.301831
-0.303376
-0.305204
-0.307319
-0.309844
-0.291553
-0.293386
-0.2944
-0.295266
-0.296062
-0.296831
-0.297632
-0.298509
-0.299497
-0.300628
-0.301936
-0.303464
-0.305276
-0.307369
-0.309859
-0.291943
-0.293717
-0.294702
-0.295546
-0.296323
-0.297074
-0.297859
-0.298719
-0.299689
-0.300801
-0.302086
-0.303589
-0.305376
-0.307436
-0.309872
-0.292451
-0.29415
-0.295098
-0.295911
-0.296662
-0.29739
-0.298153
-0.29899
-0.299935
-0.301019
-0.302273
-0.303742
-0.305494
-0.30751
-0.309873
-0.29307
-0.294678
-0.295579
-0.296356
-0.297074
-0.297773
-0.298507
-0.299314
-0.300227
-0.301275
-0.302489
-0.303911
-0.305618
-0.307579
-0.309848
-0.293789
-0.295292
-0.296141
-0.296873
-0.297553
-0.298216
-0.298913
-0.299683
-0.300555
-0.301558
-0.302721
-0.304086
-0.305735
-0.30763
-0.309782
-0.294595
-0.295984
-0.296773
-0.297456
-0.29809
-0.29871
-0.299364
-0.300087
-0.30091
-0.301857
-0.302958
-0.304253
-0.30583
-0.307649
-0.309658
-0.295477
-0.296745
-0.297469
-0.298096
-0.298678
-0.299247
-0.299849
-0.300518
-0.30128
-0.302161
-0.303187
-0.304399
-0.30589
-0.307622
-0.309459
-0.296422
-0.297565
-0.29822
-0.298786
-0.299309
-0.29982
-0.300362
-0.300966
-0.301658
-0.30246
-0.303398
-0.304511
-0.305899
-0.307536
-0.30917
-0.297418
-0.298435
-0.299018
-0.299518
-0.299976
-0.300421
-0.300893
-0.301423
-0.302032
-0.302743
-0.30358
-0.304578
-0.305846
-0.307381
-0.308768
-0.298455
-0.299346
-0.299855
-0.300284
-0.300671
-0.301043
-0.301437
-0.301881
-0.302396
-0.303004
-0.303724
-0.304591
-0.305721
-0.307151
-0.308209
-0.299522
-0.300292
-0.300725
-0.30108
-0.30139
-0.30168
-0.301986
-0.302335
-0.302745
-0.303235
-0.303826
-0.304546
-0.305519
-0.306843
-0.307466
-0.300611
-0.301265
-0.301622
-0.3019
-0.302127
-0.302329
-0.302538
-0.30278
-0.303074
-0.303435
-0.303882
-0.304441
-0.305234
-0.306426
-0.30684
-0.301715
-0.302262
-0.302544
-0.302741
-0.30288
-0.302985
-0.303089
-0.303216
-0.303383
-0.303603
-0.303894
-0.304278
-0.304878
-0.305847
-0.306114
-0.302831
-0.30328
-0.303486
-0.303601
-0.303646
-0.303649
-0.303639
-0.303642
-0.303672
-0.303742
-0.303865
-0.30406
-0.304452
-0.305194
-0.305203
-0.303955
-0.304316
-0.304449
-0.304478
-0.304426
-0.304319
-0.304188
-0.304059
-0.303945
-0.303857
-0.303804
-0.303799
-0.303965
-0.304477
-0.304133
-0.30509
-0.305372
-0.305432
-0.305374
-0.30522
-0.304997
-0.30474
-0.304472
-0.304208
-0.303956
-0.303721
-0.303508
-0.303432
-0.303705
-0.302919
-0.306237
-0.306451
-0.306439
-0.306291
-0.30603
-0.305687
-0.305297
-0.304885
-0.304467
-0.304049
-0.30363
-0.303204
-0.302872
-0.302896
-0.301559
-0.307403
-0.307557
-0.307474
-0.307233
-0.306861
-0.306393
-0.305865
-0.305306
-0.304733
-0.304147
-0.303546
-0.302907
-0.302309
-0.302077
-0.300055
-0.308596
-0.308697
-0.308541
-0.308205
-0.307718
-0.30712
-0.30645
-0.305742
-0.305012
-0.304262
-0.303483
-0.302636
-0.301766
-0.301279
-0.298416
-0.309825
-0.309877
-0.309648
-0.309213
-0.308607
-0.307874
-0.30706
-0.3062
-0.305315
-0.304405
-0.303455
-0.302408
-0.301266
-0.30053
-0.296659
-0.311103
-0.311109
-0.310804
-0.310265
-0.309535
-0.308663
-0.307701
-0.306689
-0.30565
-0.304585
-0.303473
-0.302236
-0.300828
-0.299853
-0.294812
-0.312443
-0.312402
-0.312017
-0.31137
-0.31051
-0.309494
-0.308381
-0.307217
-0.306026
-0.30481
-0.303544
-0.30213
-0.300467
-0.299256
-0.292924
-0.313861
-0.313769
-0.313298
-0.312536
-0.311541
-0.310377
-0.30911
-0.307791
-0.306449
-0.305086
-0.303676
-0.302093
-0.300197
-0.298735
-0.291082
-0.315373
-0.315224
-0.314659
-0.313776
-0.312638
-0.31132
-0.309895
-0.30842
-0.306928
-0.305421
-0.303872
-0.302126
-0.300031
-0.298271
-0.289418
-0.316997
-0.316778
-0.316112
-0.315098
-0.313811
-0.312334
-0.310747
-0.309112
-0.307469
-0.30582
-0.304137
-0.302229
-0.299984
-0.297799
-0.288002
-0.318749
-0.318447
-0.31767
-0.316515
-0.31507
-0.313427
-0.311673
-0.309877
-0.308081
-0.306291
-0.30448
-0.302414
-0.300103
-0.297203
-0.286601
-0.320648
-0.320245
-0.319346
-0.31804
-0.316428
-0.314612
-0.312686
-0.310724
-0.308773
-0.306842
-0.304912
-0.302719
-0.300515
-0.296598
-0.285472
-0.322712
-0.322188
-0.321152
-0.319683
-0.317894
-0.315898
-0.313794
-0.311663
-0.309555
-0.307482
-0.305442
-0.303168
-0.3013
-0.296763
-0.289184
-0.324959
-0.324289
-0.323102
-0.321457
-0.319482
-0.317298
-0.31501
-0.312705
-0.310434
-0.308215
-0.306066
-0.303723
-0.302197
-0.298009
-0.305862
-0.327402
-0.326564
-0.325209
-0.323376
-0.321203
-0.318822
-0.316345
-0.31386
-0.311421
-0.309049
-0.306775
-0.304343
-0.303006
-0.298976
-0.308091
-0.33006
-0.329026
-0.327486
-0.32545
-0.323068
-0.320482
-0.317809
-0.315139
-0.312526
-0.309986
-0.307562
-0.305002
-0.303591
-0.299514
-0.307239
-0.332947
-0.331688
-0.329946
-0.327693
-0.325091
-0.322292
-0.319416
-0.316553
-0.313755
-0.311032
-0.308424
-0.305682
-0.303993
-0.299794
-0.305669
-0.336079
-0.334564
-0.332602
-0.330117
-0.327283
-0.324262
-0.321176
-0.318113
-0.315116
-0.312187
-0.309351
-0.306365
-0.304245
-0.299825
-0.303551
-0.339469
-0.337667
-0.335466
-0.332734
-0.329657
-0.326406
-0.323102
-0.319827
-0.316615
-0.31345
-0.310336
-0.307033
-0.304359
-0.299606
-0.301154
-0.343128
-0.341007
-0.338549
-0.335557
-0.332226
-0.328736
-0.325205
-0.321704
-0.318253
-0.314816
-0.311366
-0.307666
-0.304344
-0.29915
-0.298666
-0.347068
-0.344597
-0.341864
-0.338598
-0.335002
-0.331264
-0.327493
-0.323749
-0.320029
-0.316273
-0.312424
-0.308246
-0.304206
-0.298478
-0.29618
-0.351298
-0.348446
-0.345422
-0.341868
-0.337998
-0.334
-0.329977
-0.325965
-0.32194
-0.317811
-0.313492
-0.308755
-0.303945
-0.297609
-0.293732
-0.355829
-0.352563
-0.349232
-0.345379
-0.341223
-0.336956
-0.332661
-0.328353
-0.323975
-0.319411
-0.314548
-0.309176
-0.303556
-0.29656
-0.291323
-0.360665
-0.356957
-0.353304
-0.34914
-0.34469
-0.340139
-0.33555
-0.330907
-0.326121
-0.321051
-0.315569
-0.309491
-0.303034
-0.295342
-0.288937
-0.365812
-0.361632
-0.357645
-0.353162
-0.348406
-0.343554
-0.338641
-0.333617
-0.32836
-0.322707
-0.316529
-0.309679
-0.302368
-0.293965
-0.286548
-0.371271
-0.366593
-0.36226
-0.357449
-0.352375
-0.347202
-0.341929
-0.336468
-0.330666
-0.324349
-0.317399
-0.309725
-0.30155
-0.292431
-0.284128
-0.377041
-0.371841
-0.367153
-0.362006
-0.356601
-0.35108
-0.345402
-0.339438
-0.333009
-0.325944
-0.318152
-0.30961
-0.300569
-0.29074
-0.28165
-0.383116
-0.377373
-0.372324
-0.366832
-0.36108
-0.355178
-0.349041
-0.342498
-0.335356
-0.327457
-0.318761
-0.309318
-0.299416
-0.288889
-0.279089
-0.389488
-0.383183
-0.377768
-0.371924
-0.365803
-0.359481
-0.352819
-0.345614
-0.337666
-0.328853
-0.319198
-0.308832
-0.29808
-0.286874
-0.276422
-0.396141
-0.38926
-0.383475
-0.37727
-0.370756
-0.363964
-0.356704
-0.348745
-0.339897
-0.330095
-0.319438
-0.308137
-0.296551
-0.284687
-0.273628
-0.403056
-0.395588
-0.389433
-0.382856
-0.375917
-0.368597
-0.360655
-0.351843
-0.342005
-0.331147
-0.319455
-0.307217
-0.294818
-0.28232
-0.270689
-0.410205
-0.402147
-0.39562
-0.388657
-0.381255
-0.37334
-0.364623
-0.354859
-0.343944
-0.331974
-0.319225
-0.306058
-0.292868
-0.279761
-0.267587
-0.417557
-0.408907
-0.402009
-0.394644
-0.386734
-0.378145
-0.368555
-0.357738
-0.345666
-0.33254
-0.318727
-0.304644
-0.290691
-0.276999
-0.264307
-0.42507
-0.415834
-0.408566
-0.400777
-0.392305
-0.382958
-0.372392
-0.360424
-0.347127
-0.332814
-0.317937
-0.30296
-0.288272
-0.274023
-0.260833
-0.432699
-0.422887
-0.415249
-0.40701
-0.397914
-0.387715
-0.376068
-0.36286
-0.348281
-0.332763
-0.316834
-0.30099
-0.285597
-0.270818
-0.257152
-0.440389
-0.430017
-0.422009
-0.413288
-0.403497
-0.39235
-0.379517
-0.364988
-0.349085
-0.332356
-0.315397
-0.298716
-0.282653
-0.26737
-0.253248
-0.448078
-0.437166
-0.428786
-0.419546
-0.408985
-0.396786
-0.382671
-0.366751
-0.349497
-0.331566
-0.313605
-0.296122
-0.279423
-0.263665
-0.249107
-0.455697
-0.444272
-0.435517
-0.425714
-0.4143
-0.400948
-0.385459
-0.368094
-0.349476
-0.330363
-0.311436
-0.29319
-0.275892
-0.259688
-0.244717
-0.463171
-0.451264
-0.442126
-0.431712
-0.419359
-0.404754
-0.387812
-0.368964
-0.348985
-0.328721
-0.308869
-0.289902
-0.272043
-0.255424
-0.240063
-0.470418
-0.458064
-0.448535
-0.437455
-0.424075
-0.408125
-0.389664
-0.36931
-0.347988
-0.326612
-0.305884
-0.286241
-0.26786
-0.250858
-0.235134
-0.47735
-0.464587
-0.454657
-0.442854
-0.428358
-0.410978
-0.390948
-0.369085
-0.34645
-0.324011
-0.302459
-0.282187
-0.263327
-0.245975
-0.229915
-0.483876
-0.470746
-0.460399
-0.447813
-0.432118
-0.413235
-0.391603
-0.368242
-0.344339
-0.320894
-0.298574
-0.277724
-0.258429
-0.240761
-0.224397
-0.489899
-0.476447
-0.465667
-0.452236
-0.435262
-0.414818
-0.391571
-0.366741
-0.341625
-0.317237
-0.29421
-0.272832
-0.253149
-0.235202
-0.218568
-0.495321
-0.481594
-0.47036
-0.456024
-0.437702
-0.415654
-0.390796
-0.364543
-0.338279
-0.313018
-0.289346
-0.267497
-0.247472
-0.229285
-0.212418
-0.500042
-0.486086
-0.47438
-0.45908
-0.439351
-0.415675
-0.389228
-0.361611
-0.334274
-0.308215
-0.283966
-0.261701
-0.241385
-0.222999
-0.205938
-0.50396
-0.489825
-0.477624
-0.461308
-0.440126
-0.414816
-0.386823
-0.357914
-0.329588
-0.302809
-0.278051
-0.255431
-0.234875
-0.216333
-0.19912
-0.506977
-0.492711
-0.479995
-0.462616
-0.43995
-0.41302
-0.383539
-0.353423
-0.324197
-0.296782
-0.271587
-0.248672
-0.227931
-0.209275
-0.191956
-0.508996
-0.494646
-0.481396
-0.462915
-0.438752
-0.410235
-0.37934
-0.348113
-0.318083
-0.290118
-0.264559
-0.241412
-0.22054
-0.201819
-0.184441
-0.509921
-0.495537
-0.481735
-0.462124
-0.436467
-0.406414
-0.374196
-0.341962
-0.311229
-0.282803
-0.256956
-0.233641
-0.212696
-0.193959
-0.176572
-0.509665
-0.495293
-0.480925
-0.460168
-0.433038
-0.40152
-0.368081
-0.334952
-0.303622
-0.274825
-0.248767
-0.225351
-0.20439
-0.18569
-0.168353
-0.508144
-0.493831
-0.478886
-0.456981
-0.428416
-0.395519
-0.360975
-0.32707
-0.295251
-0.266176
-0.239985
-0.216532
-0.195613
-0.177009
-0.159782
-0.505283
-0.491072
-0.475547
-0.452503
-0.422562
-0.388388
-0.352861
-0.318305
-0.286107
-0.256849
-0.230603
-0.20718
-0.18636
-0.167901
-0.150817
-0.501012
-0.486947
-0.470844
-0.446685
-0.415441
-0.380106
-0.343731
-0.308652
-0.276189
-0.246841
-0.220622
-0.197296
-0.176634
-0.158352
-0.141348
-0.495273
-0.481395
-0.464724
-0.439489
-0.407031
-0.370663
-0.33358
-0.298109
-0.265494
-0.236154
-0.21004
-0.186883
-0.16645
-0.148384
-0.131324
-0.488015
-0.474366
-0.457143
-0.430884
-0.397317
-0.360054
-0.322408
-0.28668
-0.254027
-0.22479
-0.198862
-0.175947
-0.155817
-0.138049
-0.121076
-0.479198
-0.465817
-0.448067
-0.42085
-0.386293
-0.348281
-0.310221
-0.27437
-0.241795
-0.212754
-0.187093
-0.164495
-0.144724
-0.127218
-0.11068
-0.468794
-0.455719
-0.437474
-0.409379
-0.373959
-0.335352
-0.29703
-0.26119
-0.228805
-0.200052
-0.174748
-0.15254
-0.133182
-0.116007
-0.0999703
-0.456783
-0.444052
-0.425353
-0.396469
-0.360325
-0.321283
-0.282851
-0.247154
-0.215063
-0.186698
-0.161849
-0.14009
-0.121202
-0.104433
-0.08892
-0.443159
-0.430807
-0.411702
-0.382132
-0.345411
-0.306094
-0.267704
-0.232277
-0.200587
-0.172743
-0.148383
-0.127156
-0.108801
-0.0925025
-0.0775374
-0.427924
-0.415987
-0.396532
-0.366386
-0.329241
-0.289813
-0.251617
-0.216591
-0.185433
-0.158152
-0.134384
-0.113757
-0.0959958
-0.0802219
-0.0658404
-0.411093
-0.399605
-0.379863
-0.349259
-0.311847
-0.272474
-0.234618
-0.200123
-0.169596
-0.142972
-0.119873
-0.0999115
-0.0828038
-0.0676046
-0.0538487
-0.392691
-0.381685
-0.361725
-0.330788
-0.293271
-0.254116
-0.216744
-0.182902
-0.153107
-0.127229
-0.104873
-0.0856428
-0.0692447
-0.0546679
-0.0415831
-0.372753
-0.362262
-0.342159
-0.311022
-0.273567
-0.234772
-0.198031
-0.164963
-0.135997
-0.110952
-0.0894114
-0.0709756
-0.055341
-0.0414325
-0.0290664
-0.351327
-0.341379
-0.321214
-0.29002
-0.252789
-0.214482
-0.178524
-0.146345
-0.118304
-0.0941722
-0.0735166
-0.0559371
-0.0411169
-0.0279218
-0.0163233
-0.328463
-0.319092
-0.298952
-0.267842
-0.230934
-0.193345
-0.158274
-0.12709
-0.100064
-0.0769239
-0.0572207
-0.0405567
-0.0265994
-0.0141619
-0.00338301
-0.304223
-0.295467
-0.275454
-0.244528
-0.208113
-0.171384
-0.13733
-0.107245
-0.081319
-0.059244
-0.0405575
-0.0248659
-0.011817
-0.000182867
0.00971639
-0.278675
-0.270583
-0.250791
-0.220101
-0.18443
-0.148666
-0.115749
-0.0868577
-0.062113
-0.0411719
-0.023563
-0.00889782
0.00319942
0.0139813
0.0229281
-0.251899
-0.244532
-0.22494
-0.194761
-0.159924
-0.125257
-0.0935868
-0.0659805
-0.0424919
-0.0227486
-0.00627456
0.00731261
0.018419
0.0282996
0.0362127
-0.223971
-0.217427
-0.198015
-0.168549
-0.134674
-0.101227
-0.070906
-0.0446673
-0.0225037
-0.00401718
0.0112681
0.023729
0.0338148
0.0427549
0.0495415
-0.194962
-0.189247
-0.17028
-0.141544
-0.108761
-0.0766488
-0.0477701
-0.0229748
-0.00219873
0.0149774
0.0290237
0.0403162
0.0493701
0.0573336
0.0628145
-0.165023
-0.160197
-0.141732
-0.113838
-0.0822671
-0.0515965
-0.0242451
-0.000961533
0.0183709
0.0341881
0.0469503
0.0570469
0.0650799
0.0719663
0.0757352
-0.134372
-0.130268
-0.112457
-0.0855254
-0.05528
-0.0261468
-0.000399323
0.0213117
0.0391509
0.0535661
0.0650076
0.0739036
0.080933
0.0864936
0.0879233
-0.102997
-0.0996411
-0.082563
-0.0567045
-0.027888
-0.000378702
0.023697
0.0437823
0.060085
0.0730607
0.0831568
0.0908627
0.0968568
0.100739
0.0996666
-0.0710053
-0.0684416
-0.0521599
-0.0274753
-0.000181965
0.025627
0.0479721
0.0663858
0.0811148
0.0926203
0.101356
0.107867
0.112685
0.114538
0.113739
-0.0385247
-0.0367839
-0.0213598
0.00205946
0.0277456
0.0517879
0.0723526
0.0890567
0.102181
0.112193
0.119555
0.124832
0.128386
0.128861
0.128482
-0.00567991
-0.00478449
0.00972296
0.0317954
0.0558013
0.078021
0.0967643
0.111728
0.123224
0.131725
0.137701
0.141706
0.143983
0.143341
0.142739
0.0274045
0.0274373
0.0409733
0.0616273
0.0838907
0.104242
0.121132
0.134334
0.144184
0.151162
0.155739
0.158453
0.15948
0.157835
0.156698
0.060603
0.0597607
0.0722757
0.0914494
0.111919
0.130367
0.145381
0.156805
0.165
0.170447
0.17362
0.175032
0.174831
0.172204
0.170364
0.0937894
0.0920638
0.103514
0.121156
0.139793
0.156312
0.169436
0.179075
0.185611
0.189526
0.191292
0.191402
0.189988
0.186377
0.183733
0.126838
0.124225
0.134574
0.150643
0.167417
0.181993
0.193223
0.201076
0.205956
0.208345
0.208707
0.207519
0.204905
0.200304
0.196794
0.159622
0.156121
0.16534
0.179805
0.194699
0.207327
0.216666
0.222743
0.225976
0.226847
0.225815
0.22334
0.219537
0.213945
0.209529
0.192018
0.187633
0.195699
0.208541
0.221547
0.232232
0.239692
0.244008
0.245611
0.244981
0.24257
0.23882
0.233845
0.227266
0.221918
0.223904
0.218642
0.22554
0.236748
0.247871
0.256628
0.26223
0.264808
0.264804
0.262694
0.258924
0.253918
0.247789
0.240233
0.233938
0.255157
0.24903
0.254753
0.264328
0.273582
0.280435
0.284209
0.285079
0.283497
0.279935
0.274831
0.268593
0.261333
0.252815
0.245568
0.28566
0.278683
0.283233
0.291184
0.298593
0.303576
0.30556
0.30476
0.301635
0.296655
0.290247
0.282805
0.274442
0.264982
0.256783
0.315299
0.307489
0.310874
0.317223
0.322822
0.325978
0.326216
0.323789
0.319164
0.312804
0.305128
0.296516
0.287081
0.276704
0.267563
0.34396
0.33534
0.337578
0.342354
0.346186
0.347566
0.346111
0.342109
0.336031
0.328336
0.319434
0.309689
0.299218
0.287952
0.277884
0.371536
0.362133
0.363246
0.36649
0.368609
0.368272
0.365184
0.359664
0.352188
0.343207
0.333123
0.322288
0.310821
0.298699
0.287725
0.397925
0.387767
0.387787
0.389547
0.390014
0.388028
0.383374
0.3764
0.367584
0.357372
0.346157
0.334278
0.32186
0.308917
0.297065
0.423026
0.412147
0.411111
0.411446
0.410332
0.406771
0.400625
0.392266
0.382174
0.370791
0.3585
0.345627
0.332305
0.318581
0.305882
0.446746
0.435182
0.433136
0.43211
0.429494
0.42444
0.416881
0.407212
0.395914
0.383424
0.370115
0.356303
0.342128
0.327665
0.314158
0.468997
0.456787
0.453782
0.451469
0.447436
0.440979
0.432092
0.421193
0.408764
0.395234
0.380971
0.366277
0.351303
0.336146
0.321873
0.489695
0.476882
0.472976
0.469456
0.4641
0.456333
0.44621
0.434166
0.420683
0.406186
0.391035
0.375522
0.359805
0.344002
0.329011
0.508764
0.495393
0.490649
0.48601
0.479429
0.470453
0.459191
0.446091
0.431637
0.416249
0.400279
0.384011
0.367611
0.351213
0.335554
0.526133
0.512252
0.506738
0.501073
0.493374
0.483295
0.470992
0.456931
0.441593
0.425393
0.408677
0.391722
0.374699
0.357759
0.341487
0.541738
0.527397
0.521186
0.514595
0.505887
0.494816
0.481579
0.466653
0.450519
0.43359
0.416204
0.398631
0.38105
0.363622
0.346797
0.555521
0.540773
0.533941
0.52653
0.516929
0.504979
0.490916
0.475226
0.45839
0.440817
0.422839
0.40472
0.386647
0.368788
0.351471
0.56743
0.552329
0.54496
0.536835
0.526461
0.513752
0.498974
0.482625
0.465182
0.447051
0.428562
0.409972
0.391473
0.373242
0.355498
0.577422
0.562025
0.554202
0.545478
0.534453
0.521106
0.505729
0.488825
0.470873
0.452275
0.433357
0.414371
0.395516
0.376973
0.358868
0.585461
0.569825
0.561635
0.552427
0.540879
0.527018
0.511159
0.493809
0.475447
0.456473
0.43721
0.417906
0.398764
0.379969
0.361575
0.591515
0.575699
0.567233
0.55766
0.545717
0.531469
0.515246
0.49756
0.47889
0.459633
0.440109
0.420566
0.401207
0.382223
0.36361
0.595564
0.579628
0.570976
0.561158
0.548951
0.534444
0.517978
0.500067
0.481191
0.461745
0.442047
0.422343
0.40284
0.38373
0.36497
0.597593
0.581595
0.57285
0.56291
0.550571
0.535934
0.519346
0.501323
0.482343
0.462802
0.443017
0.423233
0.403658
0.384484
0.36565
0.597593
0.581595
0.57285
0.56291
0.550571
0.535934
0.519346
0.501323
0.482343
0.462802
0.443017
0.423233
0.403658
0.384484
0.36565
0.595565
0.579628
0.570976
0.561158
0.548951
0.534444
0.517978
0.500067
0.481191
0.461745
0.442047
0.422343
0.40284
0.38373
0.36497
0.591516
0.575699
0.567233
0.55766
0.545717
0.531469
0.515246
0.49756
0.47889
0.459633
0.440109
0.420566
0.401207
0.382224
0.36361
0.585461
0.569825
0.561635
0.552427
0.540879
0.527018
0.511159
0.493809
0.475447
0.456474
0.43721
0.417906
0.398764
0.379969
0.361575
0.577422
0.562025
0.554202
0.545478
0.534453
0.521106
0.505729
0.488825
0.470873
0.452276
0.433357
0.414371
0.395516
0.376973
0.358868
0.56743
0.55233
0.54496
0.536835
0.526461
0.513752
0.498975
0.482625
0.465182
0.447051
0.428562
0.409972
0.391473
0.373242
0.355498
0.555521
0.540773
0.533942
0.52653
0.516929
0.504979
0.490916
0.475226
0.458391
0.440817
0.422839
0.40472
0.386647
0.368788
0.351471
0.541738
0.527398
0.521186
0.514596
0.505888
0.494816
0.481579
0.466653
0.45052
0.43359
0.416204
0.398631
0.38105
0.363623
0.346797
0.526134
0.512253
0.506738
0.501074
0.493374
0.483295
0.470993
0.456932
0.441593
0.425393
0.408677
0.391722
0.374699
0.357759
0.341487
0.508765
0.495394
0.490649
0.48601
0.47943
0.470454
0.459191
0.446092
0.431638
0.41625
0.400279
0.384012
0.367611
0.351213
0.335554
0.489695
0.476883
0.472976
0.469456
0.4641
0.456333
0.44621
0.434167
0.420683
0.406187
0.391035
0.375522
0.359805
0.344002
0.329011
0.468997
0.456787
0.453783
0.451469
0.447437
0.440979
0.432093
0.421194
0.408764
0.395234
0.380971
0.366278
0.351303
0.336146
0.321873
0.446746
0.435182
0.433136
0.43211
0.429494
0.424441
0.416881
0.407212
0.395914
0.383424
0.370115
0.356303
0.342128
0.327665
0.314158
0.423026
0.412147
0.411112
0.411446
0.410332
0.406771
0.400625
0.392266
0.382174
0.370791
0.3585
0.345627
0.332305
0.318581
0.305882
0.397925
0.387767
0.387787
0.389548
0.390015
0.388028
0.383375
0.376401
0.367584
0.357372
0.346158
0.334278
0.32186
0.308917
0.297065
0.371537
0.362133
0.363246
0.366491
0.368609
0.368272
0.365184
0.359665
0.352188
0.343207
0.333124
0.322288
0.310822
0.298699
0.287726
0.34396
0.335341
0.337578
0.342355
0.346187
0.347566
0.346111
0.34211
0.336032
0.328337
0.319434
0.309689
0.299219
0.287953
0.277885
0.315299
0.307489
0.310875
0.317224
0.322822
0.325978
0.326216
0.323789
0.319164
0.312804
0.305129
0.296517
0.287081
0.276705
0.267563
0.285661
0.278683
0.283233
0.291185
0.298594
0.303577
0.30556
0.30476
0.301635
0.296655
0.290247
0.282806
0.274442
0.264983
0.256784
0.255158
0.24903
0.254754
0.264328
0.273582
0.280435
0.28421
0.28508
0.283497
0.279936
0.274831
0.268594
0.261333
0.252816
0.245568
0.223904
0.218643
0.225541
0.236748
0.247871
0.256628
0.262231
0.264809
0.264804
0.262695
0.258924
0.253919
0.247789
0.240234
0.233938
0.192019
0.187634
0.1957
0.208541
0.221548
0.232233
0.239693
0.244009
0.245612
0.244982
0.24257
0.23882
0.233845
0.227267
0.221918
0.159623
0.156122
0.16534
0.179806
0.1947
0.207328
0.216666
0.222743
0.225976
0.226848
0.225816
0.22334
0.219538
0.213946
0.209529
0.126838
0.124225
0.134575
0.150644
0.167418
0.181994
0.193223
0.201077
0.205957
0.208345
0.208707
0.20752
0.204906
0.200304
0.196794
0.0937902
0.0920646
0.103515
0.121157
0.139794
0.156313
0.169437
0.179075
0.185611
0.189527
0.191293
0.191403
0.189989
0.186377
0.183733
0.0606039
0.0597615
0.0722765
0.0914502
0.11192
0.130368
0.145382
0.156805
0.165001
0.170448
0.17362
0.175033
0.174832
0.172204
0.170364
0.0274054
0.0274382
0.0409742
0.0616281
0.0838915
0.104243
0.121133
0.134334
0.144185
0.151162
0.15574
0.158453
0.159481
0.157836
0.156699
-0.00567898
-0.00478357
0.00972384
0.0317962
0.0558021
0.0780217
0.096765
0.111729
0.123225
0.131726
0.137701
0.141706
0.143984
0.143342
0.14274
-0.0385238
-0.0367829
-0.0213589
0.00206034
0.0277465
0.0517887
0.0723533
0.0890574
0.102182
0.112194
0.119556
0.124832
0.128386
0.128861
0.128483
-0.0710043
-0.0684406
-0.0521589
-0.0274744
-0.000181103
0.0256278
0.0479729
0.0663866
0.0811155
0.092621
0.101357
0.107868
0.112686
0.114539
0.11374
-0.102996
-0.0996401
-0.082562
-0.0567036
-0.0278871
-0.000377857
0.0236978
0.043783
0.0600857
0.0730614
0.0831574
0.0908633
0.0968574
0.10074
0.0996672
-0.134371
-0.130267
-0.112456
-0.0855245
-0.055279
-0.0261459
-0.000398494
0.0213125
0.0391517
0.0535669
0.0650083
0.0739042
0.0809336
0.0864942
0.0879239
-0.165022
-0.160195
-0.141731
-0.113837
-0.0822662
-0.0515956
-0.0242443
-0.00096072
0.0183717
0.0341889
0.046951
0.0570476
0.0650805
0.0719669
0.0757358
-0.194961
-0.189246
-0.170279
-0.141543
-0.10876
-0.0766479
-0.0477692
-0.0229739
-0.00219793
0.0149781
0.0290244
0.0403169
0.0493707
0.0573342
0.0628151
-0.22397
-0.217426
-0.198014
-0.168548
-0.134673
-0.101226
-0.0709051
-0.0446665
-0.0225029
-0.00401639
0.0112689
0.0237297
0.0338155
0.0427556
0.0495421
-0.251897
-0.24453
-0.224939
-0.19476
-0.159923
-0.125256
-0.0935858
-0.0659796
-0.042491
-0.0227477
-0.00627378
0.00731335
0.0184198
0.0283003
0.0362134
-0.278674
-0.270582
-0.25079
-0.2201
-0.184429
-0.148665
-0.115748
-0.0868568
-0.0621122
-0.041171
-0.0235622
-0.00889705
0.00320016
0.013982
0.0229288
-0.304222
-0.295466
-0.275453
-0.244527
-0.208112
-0.171383
-0.137329
-0.107244
-0.0813181
-0.0592432
-0.0405567
-0.0248651
-0.0118163
-0.000182139
0.00971709
-0.328462
-0.31909
-0.298951
-0.267841
-0.230933
-0.193344
-0.158273
-0.127089
-0.100063
-0.076923
-0.0572198
-0.0405559
-0.0265986
-0.0141611
-0.00338229
-0.351325
-0.341378
-0.321212
-0.290019
-0.252788
-0.214481
-0.178523
-0.146344
-0.118303
-0.0941713
-0.0735157
-0.0559363
-0.0411161
-0.027921
-0.0163226
-0.372752
-0.362261
-0.342158
-0.311021
-0.273566
-0.234771
-0.19803
-0.164962
-0.135997
-0.110951
-0.0894105
-0.0709748
-0.0553401
-0.0414317
-0.0290656
-0.392689
-0.381684
-0.361724
-0.330787
-0.29327
-0.254115
-0.216743
-0.182901
-0.153106
-0.127228
-0.104872
-0.0856419
-0.0692439
-0.0546671
-0.0415823
-0.411091
-0.399604
-0.379862
-0.349258
-0.311846
-0.272473
-0.234617
-0.200122
-0.169595
-0.142971
-0.119872
-0.0999106
-0.0828029
-0.0676038
-0.0538479
-0.427922
-0.415986
-0.396531
-0.366385
-0.32924
-0.289812
-0.251615
-0.21659
-0.185432
-0.158151
-0.134383
-0.113756
-0.0959949
-0.0802211
-0.0658396
-0.443157
-0.430806
-0.411701
-0.382131
-0.34541
-0.306093
-0.267703
-0.232276
-0.200586
-0.172742
-0.148382
-0.127155
-0.1088
-0.0925016
-0.0775365
-0.456782
-0.444051
-0.425351
-0.396468
-0.360324
-0.321281
-0.28285
-0.247152
-0.215062
-0.186697
-0.161848
-0.140089
-0.121201
-0.104432
-0.0889191
-0.468792
-0.455718
-0.437472
-0.409377
-0.373957
-0.335351
-0.297029
-0.261189
-0.228804
-0.200051
-0.174747
-0.152539
-0.133181
-0.116006
-0.0999694
-0.479197
-0.465816
-0.448065
-0.420849
-0.386291
-0.348279
-0.31022
-0.274369
-0.241794
-0.212753
-0.187092
-0.164494
-0.144723
-0.127217
-0.110679
-0.488013
-0.474364
-0.457141
-0.430882
-0.397316
-0.360053
-0.322407
-0.286678
-0.254026
-0.224789
-0.198861
-0.175946
-0.155816
-0.138048
-0.121075
-0.495271
-0.481394
-0.464723
-0.439487
-0.40703
-0.370662
-0.333579
-0.298108
-0.265493
-0.236153
-0.210039
-0.186882
-0.166449
-0.148383
-0.131323
-0.50101
-0.486945
-0.470843
-0.446684
-0.41544
-0.380104
-0.34373
-0.308651
-0.276188
-0.24684
-0.220621
-0.197295
-0.176633
-0.158351
-0.141347
-0.505281
-0.49107
-0.475545
-0.452501
-0.42256
-0.388386
-0.35286
-0.318304
-0.286106
-0.256847
-0.230602
-0.207179
-0.186359
-0.1679
-0.150816
-0.508143
-0.493829
-0.478884
-0.456979
-0.428415
-0.395518
-0.360973
-0.327069
-0.295249
-0.266174
-0.239984
-0.216531
-0.195612
-0.177008
-0.159781
-0.509664
-0.495292
-0.480923
-0.460167
-0.433036
-0.401518
-0.36808
-0.334951
-0.303621
-0.274824
-0.248766
-0.22535
-0.204389
-0.185689
-0.168352
-0.50992
-0.495536
-0.481733
-0.462123
-0.436465
-0.406413
-0.374195
-0.34196
-0.311228
-0.282802
-0.256955
-0.23364
-0.212695
-0.193957
-0.176571
-0.508994
-0.494645
-0.481394
-0.462913
-0.43875
-0.410233
-0.379339
-0.348112
-0.318082
-0.290117
-0.264558
-0.241411
-0.220539
-0.201818
-0.18444
-0.506976
-0.492709
-0.479994
-0.462614
-0.439948
-0.413019
-0.383538
-0.353422
-0.324196
-0.296781
-0.271586
-0.248671
-0.227929
-0.209274
-0.191955
-0.503959
-0.489823
-0.477623
-0.461306
-0.440124
-0.414815
-0.386822
-0.357913
-0.329586
-0.302808
-0.27805
-0.25543
-0.234874
-0.216331
-0.199119
-0.50004
-0.486084
-0.474378
-0.459078
-0.439349
-0.415673
-0.389227
-0.36161
-0.334273
-0.308214
-0.283965
-0.2617
-0.241384
-0.222998
-0.205937
-0.49532
-0.481592
-0.470359
-0.456022
-0.4377
-0.415653
-0.390794
-0.364542
-0.338277
-0.313017
-0.289345
-0.267496
-0.247471
-0.229284
-0.212416
-0.489898
-0.476446
-0.465665
-0.452234
-0.43526
-0.414816
-0.391569
-0.36674
-0.341623
-0.317236
-0.294208
-0.272831
-0.253147
-0.235201
-0.218566
-0.483874
-0.470745
-0.460398
-0.447811
-0.432116
-0.413233
-0.391602
-0.368241
-0.344338
-0.320893
-0.298573
-0.277722
-0.258428
-0.24076
-0.224396
-0.477349
-0.464586
-0.454655
-0.442852
-0.428356
-0.410977
-0.390946
-0.369083
-0.346449
-0.32401
-0.302458
-0.282186
-0.263326
-0.245974
-0.229914
-0.470416
-0.458062
-0.448534
-0.437454
-0.424073
-0.408123
-0.389662
-0.369309
-0.347987
-0.32661
-0.305882
-0.28624
-0.267859
-0.250857
-0.235133
-0.463169
-0.451262
-0.442125
-0.43171
-0.419357
-0.404753
-0.387811
-0.368962
-0.348984
-0.328719
-0.308868
-0.289901
-0.272042
-0.255423
-0.240062
-0.455696
-0.444271
-0.435515
-0.425712
-0.414298
-0.400946
-0.385457
-0.368092
-0.349475
-0.330362
-0.311434
-0.293189
-0.27589
-0.259687
-0.244716
-0.448076
-0.437165
-0.428785
-0.419545
-0.408984
-0.396785
-0.382669
-0.366749
-0.349495
-0.331565
-0.313603
-0.296121
-0.279421
-0.263664
-0.249106
-0.440387
-0.430015
-0.422007
-0.413286
-0.403496
-0.392348
-0.379516
-0.364986
-0.349084
-0.332355
-0.315396
-0.298715
-0.282651
-0.267369
-0.253246
-0.432698
-0.422886
-0.415248
-0.407009
-0.397912
-0.387714
-0.376066
-0.362859
-0.34828
-0.332761
-0.316833
-0.300988
-0.285596
-0.270816
-0.25715
-0.425069
-0.415833
-0.408565
-0.400775
-0.392303
-0.382956
-0.37239
-0.360423
-0.347126
-0.332812
-0.317935
-0.302959
-0.28827
-0.274021
-0.260832
-0.417555
-0.408905
-0.402007
-0.394642
-0.386732
-0.378144
-0.368554
-0.357737
-0.345665
-0.332539
-0.318725
-0.304643
-0.290689
-0.276998
-0.264306
-0.410203
-0.402145
-0.395618
-0.388655
-0.381254
-0.373338
-0.364622
-0.354858
-0.343942
-0.331972
-0.319224
-0.306057
-0.292867
-0.279759
-0.267586
-0.403054
-0.395587
-0.389431
-0.382854
-0.375915
-0.368595
-0.360653
-0.351842
-0.342004
-0.331146
-0.319453
-0.307216
-0.294816
-0.282318
-0.270687
-0.39614
-0.389258
-0.383474
-0.377269
-0.370755
-0.363963
-0.356702
-0.348743
-0.339896
-0.330094
-0.319436
-0.308135
-0.29655
-0.284686
-0.273627
-0.389486
-0.383181
-0.377766
-0.371922
-0.365801
-0.359479
-0.352817
-0.345613
-0.337664
-0.328852
-0.319197
-0.30883
-0.298079
-0.286873
-0.27642
-0.383115
-0.377371
-0.372322
-0.366831
-0.361078
-0.355177
-0.349039
-0.342497
-0.335354
-0.327456
-0.31876
-0.309316
-0.299415
-0.288888
-0.279088
-0.377039
-0.371839
-0.367152
-0.362004
-0.356599
-0.351079
-0.3454
-0.339437
-0.333008
-0.325942
-0.318151
-0.309609
-0.300568
-0.290738
-0.281649
-0.371269
-0.366592
-0.362259
-0.357448
-0.352374
-0.347201
-0.341928
-0.336467
-0.330664
-0.324347
-0.317398
-0.309724
-0.301548
-0.292429
-0.284126
-0.36581
-0.361631
-0.357643
-0.35316
-0.348404
-0.343553
-0.33864
-0.333615
-0.328358
-0.322706
-0.316527
-0.309678
-0.302366
-0.293963
-0.286546
-0.360664
-0.356955
-0.353302
-0.349139
-0.344689
-0.340138
-0.335548
-0.330905
-0.32612
-0.32105
-0.315568
-0.309489
-0.303032
-0.295341
-0.288935
-0.355827
-0.352562
-0.349231
-0.345377
-0.341222
-0.336955
-0.33266
-0.328351
-0.323973
-0.319409
-0.314547
-0.309175
-0.303555
-0.296558
-0.291321
-0.351297
-0.348444
-0.34542
-0.341866
-0.337996
-0.333999
-0.329975
-0.325964
-0.321938
-0.317809
-0.31349
-0.308754
-0.303943