/*--------------------------------*- C++ -*----------------------------------*\
  =========                 |
  \\      /  F ield         | OpenFOAM: The Open Source CFD Toolbox
   \\    /   O peration     | Website:  https://openfoam.org
    \\  /    A nd           | Version:  7
     \\/     M anipulation  |
\*---------------------------------------------------------------------------*/
FoamFile
{
    version     2.0;
    format      ascii;
    class       surfaceScalarField;
    location    "10";
    object      phi;
}
// * * * * * * * * * * * * * * * * * * * * * * * * * * * * * * * * * * * * * //

dimensions      [0 3 -1 0 0 0 0];

internalField   nonuniform List<scalar> 
37105
(
-2.98182e-07
2.9826e-07
-7.76271e-11
-1.09031e-06
7.92318e-07
-1.93723e-10
-2.32338e-06
1.23335e-06
-2.81802e-10
-3.95326e-06
1.63023e-06
-3.44621e-10
-5.94438e-06
1.99151e-06
-3.85849e-10
-8.27034e-06
2.32636e-06
-4.09538e-10
-1.09148e-05
2.64483e-06
-4.19723e-10
-1.38727e-05
2.95836e-06
-4.1993e-10
-1.71525e-05
3.28019e-06
-4.1258e-10
-2.07777e-05
3.62563e-06
-3.98729e-10
-2.47895e-05
4.01219e-06
-3.77943e-10
-2.92488e-05
4.45959e-06
-3.48296e-10
-3.42376e-05
4.98915e-06
-3.06731e-10
-3.98577e-05
5.62035e-06
-2.49148e-10
6.37944e-06
-1.70206e-10
-4.6237e-05
-2.94569e-07
5.92829e-07
-1.07781e-06
1.57556e-06
-2.29754e-06
2.45309e-06
-3.91e-06
3.24268e-06
-5.87955e-06
3.96106e-06
-8.1794e-06
4.62621e-06
-1.07924e-05
5.25783e-06
-1.37125e-05
5.87842e-06
-1.69464e-05
6.51409e-06
-2.05158e-05
7.19504e-06
-2.44595e-05
7.95593e-06
-2.88358e-05
8.83585e-06
-3.37239e-05
9.87725e-06
-3.92224e-05
1.11189e-05
1.26123e-05
-4.54552e-05
-2.87453e-07
8.80282e-07
-1.05318e-06
2.34128e-06
-2.24659e-06
3.6465e-06
-3.8246e-06
4.82069e-06
-5.75153e-06
5.88799e-06
-7.99975e-06
6.87444e-06
-1.05506e-05
7.80867e-06
-1.33957e-05
8.72354e-06
-1.65388e-05
9.65721e-06
-1.99978e-05
1.0654e-05
-2.38069e-05
1.1765e-05
-2.80191e-05
1.3048e-05
-3.27079e-05
1.45661e-05
-3.79663e-05
1.63772e-05
1.85561e-05
-4.39101e-05
-2.77057e-07
1.15734e-06
-1.01713e-06
3.08136e-06
-2.17191e-06
4.80127e-06
-3.69932e-06
6.3481e-06
-5.56354e-06
7.75222e-06
-7.73577e-06
9.04666e-06
-1.01951e-05
1.0268e-05
-1.29298e-05
1.14583e-05
-1.59393e-05
1.26666e-05
-1.92356e-05
1.39504e-05
-2.28464e-05
1.53758e-05
-2.6817e-05
1.70185e-05
-3.12126e-05
1.89618e-05
-3.61177e-05
2.12823e-05
2.40757e-05
-4.16374e-05
-2.63699e-07
1.42104e-06
-9.70702e-07
3.78836e-06
-2.07556e-06
5.90613e-06
-3.53743e-06
7.80997e-06
-5.3203e-06
9.53509e-06
-7.39383e-06
1.11202e-05
-9.73421e-06
1.26084e-05
-1.23255e-05
1.40496e-05
-1.51612e-05
1.55024e-05
-1.82463e-05
1.70355e-05
-2.15996e-05
1.87291e-05
-2.52562e-05
2.06752e-05
-2.92712e-05
2.29767e-05
-3.37182e-05
2.57294e-05
2.90467e-05
-3.86892e-05
-2.47784e-07
1.66882e-06
-9.15218e-07
4.4558e-06
-1.96014e-06
6.95105e-06
-3.3431e-06
9.19294e-06
-5.02784e-06
1.12198e-05
-6.98214e-06
1.30745e-05
-9.17874e-06
1.4805e-05
-1.15966e-05
1.64674e-05
-1.42223e-05
1.81281e-05
-1.7052e-05
1.98652e-05
-2.0094e-05
2.1771e-05
-2.33714e-05
2.39527e-05
-2.69264e-05
2.65318e-05
-3.08209e-05
2.96239e-05
3.33575e-05
-3.51318e-05
-2.2979e-07
1.89861e-06
-8.52238e-07
5.07824e-06
-1.82873e-06
7.92754e-06
-3.12131e-06
1.04855e-05
-4.69333e-06
1.27919e-05
-6.51044e-06
1.48916e-05
-8.54147e-06
1.6836e-05
-1.07596e-05
1.86855e-05
-1.31434e-05
2.05119e-05
-1.56791e-05
2.24009e-05
-1.83627e-05
2.44546e-05
-2.12036e-05
2.67935e-05
-2.42294e-05
2.95576e-05
-2.74889e-05
3.28834e-05
3.6912e-05
-3.10434e-05
-2.10247e-07
2.10886e-06
-7.83502e-07
5.6515e-06
-1.68479e-06
8.82883e-06
-2.87759e-06
1.16783e-05
-4.3248e-06
1.42391e-05
-5.9897e-06
1.65565e-05
-7.83684e-06
1.86831e-05
-9.83298e-06
2.06816e-05
-1.19482e-05
2.26271e-05
-1.41575e-05
2.46102e-05
-1.64433e-05
2.67405e-05
-1.87995e-05
2.91498e-05
-2.12378e-05
3.19958e-05
-2.37932e-05
3.54388e-05
3.963e-05
-2.65112e-05
-1.89717e-07
2.29858e-06
-7.10867e-07
6.17265e-06
-1.532e-06
9.64996e-06
-2.61793e-06
1.27643e-05
-3.93093e-06
1.55521e-05
-5.43174e-06
1.80573e-05
-7.08039e-06
2.03318e-05
-8.83693e-06
2.24382e-05
-1.06623e-05
2.44524e-05
-1.25194e-05
2.64674e-05
-1.43763e-05
2.85974e-05
-1.62097e-05
3.09832e-05
-1.80139e-05
3.38e-05
-1.98103e-05
3.72352e-05
4.14481e-05
-2.16284e-05
-1.68773e-07
2.46735e-06
-6.36232e-07
6.64011e-06
-1.37415e-06
1.03879e-05
-2.34846e-06
1.37386e-05
-3.52064e-06
1.67242e-05
-4.84877e-06
1.93854e-05
-6.28825e-06
2.17713e-05
-7.79223e-06
2.39422e-05
-9.31212e-06
2.59723e-05
-1.07986e-05
2.79539e-05
-1.22039e-05
3.00027e-05
-1.34869e-05
3.22661e-05
-1.46228e-05
3.49359e-05
-1.56197e-05
3.82321e-05
4.23202e-05
-1.64918e-05
-1.47981e-07
2.61533e-06
-5.61476e-07
7.0536e-06
-1.215e-06
1.10414e-05
-2.07529e-06
1.45988e-05
-3.10283e-06
1.77518e-05
-4.25298e-06
2.05356e-05
-5.47647e-06
2.29948e-05
-6.7196e-06
2.51853e-05
-7.92425e-06
2.7177e-05
-9.02842e-06
2.9058e-05
-9.96828e-06
3.09426e-05
-1.06834e-05
3.29813e-05
-1.11293e-05
3.53817e-05
-1.13008e-05
3.84037e-05
4.22183e-05
-1.11989e-05
-1.27874e-07
2.7432e-06
-4.88382e-07
7.41411e-06
-1.05814e-06
1.16112e-05
-1.80425e-06
1.53449e-05
-2.68602e-06
1.86336e-05
-3.65602e-06
2.15056e-05
-4.66041e-06
2.39992e-05
-5.63883e-06
2.61637e-05
-6.52384e-06
2.8062e-05
-7.24081e-06
2.9775e-05
-7.7095e-06
3.14112e-05
-7.84944e-06
3.31212e-05
-7.59406e-06
3.51264e-05
-6.92823e-06
3.77378e-05
4.11407e-05
-5.85067e-06
-1.08934e-07
2.85214e-06
-4.18574e-07
7.72375e-06
-9.06835e-07
1.20994e-05
-1.54067e-06
1.59788e-05
-2.27797e-06
1.93709e-05
-3.06847e-06
2.22961e-05
-3.85397e-06
2.47847e-05
-4.56777e-06
2.68775e-05
-5.13354e-06
2.86278e-05
-5.46437e-06
3.01059e-05
-5.46346e-06
3.14103e-05
-5.02935e-06
3.26871e-05
-4.06864e-06
3.41657e-05
-2.54262e-06
3.62118e-05
3.92421e-05
-6.43975e-07
-9.15785e-08
2.94372e-06
-3.53453e-07
7.98563e-06
-7.63905e-07
1.25099e-05
-1.28916e-06
1.6504e-05
-1.88536e-06
1.99671e-05
-2.49941e-06
2.29101e-05
-3.06897e-06
2.53542e-05
-3.52142e-06
2.73299e-05
-3.77217e-06
2.88785e-05
-3.72264e-06
3.00563e-05
-3.25964e-06
3.09473e-05
-2.25982e-06
3.16873e-05
-6.05264e-07
3.25111e-05
1.80161e-06
3.38049e-05
3.62285e-05
4.81519e-06
-7.61406e-08
3.01986e-06
-2.94146e-07
8.20363e-06
-6.31625e-07
1.28474e-05
-1.05339e-06
1.69258e-05
-1.51349e-06
2.04272e-05
-1.95593e-06
2.33526e-05
-2.31442e-06
2.57127e-05
-2.51095e-06
2.75265e-05
-2.45337e-06
2.88209e-05
-2.0323e-06
2.96353e-05
-1.11876e-06
3.00338e-05
4.34025e-07
3.01345e-05
2.77534e-06
3.01698e-05
6.00179e-06
3.05785e-05
3.21443e-05
1.00859e-05
-6.28602e-08
3.08272e-06
-2.41462e-07
8.38223e-06
-5.11612e-07
1.31175e-05
-8.35955e-07
1.72501e-05
-1.166e-06
2.07572e-05
-1.44271e-06
2.36293e-05
-1.59597e-06
2.5866e-05
-1.54284e-06
2.74733e-05
-1.18434e-06
2.84624e-05
-4.01302e-07
2.88522e-05
9.50052e-07
2.86824e-05
3.0394e-06
2.80452e-05
6.0492e-06
2.716e-05
1.01157e-05
2.6512e-05
2.70233e-05
1.52367e-05
-5.18748e-08
3.13459e-06
-1.9586e-07
8.52622e-06
-4.04761e-07
1.33264e-05
-6.38214e-07
1.74836e-05
-8.44646e-07
2.09636e-05
-9.6168e-07
2.37463e-05
-9.15398e-07
2.58197e-05
-6.18135e-07
2.71761e-05
3.52582e-08
2.7809e-05
1.17277e-06
2.77147e-05
2.95173e-06
2.69035e-05
5.56405e-06
2.54329e-05
9.22793e-06
2.34961e-05
1.41275e-05
2.16125e-05
2.08524e-05
2.02984e-05
-4.32151e-08
3.17781e-06
-1.57427e-07
8.64043e-06
-3.11194e-07
1.34802e-05
-4.60215e-07
1.76326e-05
-5.49157e-07
2.10526e-05
-5.11843e-07
2.3709e-05
-2.70252e-07
2.55781e-05
2.68024e-07
2.66378e-05
1.21405e-06
2.6863e-05
2.70389e-06
2.62249e-05
4.90716e-06
2.47002e-05
8.03651e-06
2.23035e-05
1.23467e-05
1.91859e-05
1.80776e-05
1.58817e-05
1.36039e-05
2.5326e-05
-3.68036e-08
3.21461e-06
-1.25877e-07
8.7295e-06
-2.30245e-07
1.35845e-05
-3.00657e-07
1.7703e-05
-2.77183e-07
2.10291e-05
-8.91157e-08
2.35209e-05
3.46268e-07
2.51427e-05
1.12666e-06
2.58574e-05
2.3693e-06
2.56204e-05
4.21813e-06
2.4376e-05
6.85401e-06
2.20643e-05
1.05084e-05
1.86491e-05
1.54714e-05
1.42229e-05
2.20442e-05
9.30892e-06
5.23609e-06
3.0412e-05
-3.2458e-08
3.24707e-06
-1.00553e-07
8.7976e-06
-1.60471e-07
1.36445e-05
-1.56902e-07
1.76995e-05
-2.42533e-08
2.08965e-05
3.13581e-07
2.31831e-05
9.45255e-07
2.4511e-05
1.97478e-06
2.48279e-05
3.52665e-06
2.40685e-05
5.75329e-06
2.21494e-05
8.84643e-06
1.89712e-05
1.30542e-05
1.44413e-05
1.86984e-05
8.57862e-06
2.61435e-05
1.86381e-06
-4.3052e-06
3.56848e-05
-2.98975e-08
3.27697e-06
-8.04518e-08
8.84815e-06
-9.96929e-08
1.36637e-05
-2.50257e-08
1.76248e-05
2.15867e-07
2.06556e-05
7.06178e-07
2.26928e-05
1.54179e-06
2.36754e-05
2.83491e-06
2.35348e-05
4.71925e-06
2.21842e-05
7.35748e-06
1.95112e-05
1.09529e-05
1.53758e-05
1.57682e-05
9.626e-06
2.21511e-05
2.19568e-06
3.05264e-05
-6.51151e-06
-1.50821e-05
4.13033e-05
-2.8753e-08
3.30572e-06
-6.42521e-08
8.88365e-06
-4.50681e-08
1.36445e-05
9.99354e-08
1.74798e-05
4.51438e-07
2.03041e-05
1.10114e-06
2.20431e-05
2.15439e-06
2.26222e-05
3.73416e-06
2.1955e-05
5.98629e-06
1.9932e-05
9.08668e-06
1.64108e-05
1.32521e-05
1.12104e-05
1.87588e-05
4.11929e-06
2.59719e-05
-5.0174e-06
3.53694e-05
-1.59091e-05
-2.7158e-05
4.74453e-05
-2.85806e-08
3.3343e-06
-5.0363e-08
8.90544e-06
6.8968e-09
1.35873e-05
2.24095e-07
1.72626e-05
6.92034e-07
1.98361e-05
1.51299e-06
2.12221e-05
2.80436e-06
2.13308e-05
4.70308e-06
2.00563e-05
7.37101e-06
1.72641e-05
1.10014e-05
1.27804e-05
1.58279e-05
6.38398e-06
2.214e-05
-2.19284e-06
3.03099e-05
-1.31873e-05
4.08599e-05
-2.64591e-05
-4.05871e-05
5.4289e-05
-2.88751e-08
3.36318e-06
-3.69943e-08
8.91355e-06
5.98684e-08
1.34904e-05
3.54213e-07
1.69682e-05
9.48431e-07
1.92419e-05
1.95783e-06
2.02127e-05
3.51486e-06
1.97738e-05
5.77424e-06
1.77969e-05
8.91841e-06
1.41199e-05
1.3163e-05
8.53575e-06
1.87627e-05
7.84285e-07
2.60214e-05
-9.45154e-06
3.53061e-05
-2.2472e-05
4.71759e-05
-3.83288e-05
-5.53997e-05
6.19885e-05
-2.90803e-08
3.39226e-06
-2.21594e-08
8.90663e-06
1.18278e-07
1.335e-05
4.97668e-07
1.65889e-05
1.23219e-06
1.85074e-05
2.45271e-06
1.89922e-05
4.31005e-06
1.79164e-05
6.98081e-06
1.51261e-05
1.06729e-05
1.04279e-05
1.56296e-05
3.57907e-06
2.21313e-05
-5.71744e-06
3.04978e-05
-1.7818e-05
4.10783e-05
-3.30525e-05
5.44634e-05
-5.1714e-05
-7.15824e-05
7.06462e-05
-2.86162e-08
3.42087e-06
-3.48206e-09
8.8815e-06
1.86472e-07
1.316e-05
6.62123e-07
1.61132e-05
1.55529e-06
1.76142e-05
3.01508e-06
1.75324e-05
5.21414e-06
1.57174e-05
8.35509e-06
1.19852e-05
1.2676e-05
6.10698e-06
1.84526e-05
-2.19753e-06
2.59951e-05
-1.32599e-05
3.56397e-05
-2.74627e-05
4.77067e-05
-4.51195e-05
6.28135e-05
-6.68207e-05
-8.90562e-05
8.02872e-05
-2.697e-08
3.44784e-06
2.01342e-08
8.8344e-06
2.68814e-07
1.29113e-05
8.55315e-07
1.55267e-05
1.92969e-06
1.65399e-05
3.66214e-06
1.58e-05
6.25045e-06
1.31291e-05
9.92709e-06
8.30853e-06
1.49642e-05
1.06985e-06
2.16738e-05
-8.90708e-06
3.03978e-05
-2.1984e-05
4.14874e-05
-3.85523e-05
5.52251e-05
-5.88571e-05
7.22348e-05
-8.38305e-05
-0.000107675
9.08534e-05
-2.35202e-08
3.47136e-06
5.16575e-08
8.75922e-06
3.69771e-07
1.25932e-05
1.08481e-06
1.48117e-05
2.367e-06
1.52577e-05
4.41026e-06
1.37567e-05
7.44058e-06
1.00988e-05
1.17233e-05
4.02577e-06
1.75675e-05
-4.77427e-06
2.53226e-05
-1.66622e-05
3.53627e-05
-3.20241e-05
4.80502e-05
-5.12398e-05
6.36285e-05
-7.44354e-05
8.26319e-05
-0.000102834
-0.000127275
0.000102232
-1.77437e-08
3.48911e-06
9.27808e-08
8.64869e-06
4.93509e-07
1.21925e-05
1.3578e-06
1.39474e-05
2.87811e-06
1.37374e-05
5.27449e-06
1.13603e-05
8.80358e-06
6.56966e-06
1.37656e-05
-9.36254e-07
2.05068e-05
-1.15154e-05
2.9413e-05
-2.55684e-05
4.08871e-05
-4.34982e-05
5.53039e-05
-6.56565e-05
7.29033e-05
-9.20348e-05
9.38765e-05
-0.000123807
-0.000147684
0.000114285
-9.22973e-09
3.49834e-06
1.45278e-07
8.49419e-06
6.43876e-07
1.16939e-05
1.68087e-06
1.29104e-05
3.47284e-06
1.19454e-05
6.268e-06
8.56516e-06
1.03553e-05
2.48241e-06
1.60699e-05
-6.65091e-06
2.3793e-05
-1.92385e-05
3.394e-05
-3.57154e-05
4.69328e-05
-5.6491e-05
6.31551e-05
-8.18789e-05
8.29409e-05
-0.000111821
0.000106111
-0.000146977
-0.000168253
0.00012668
3.00843e-09
3.49533e-06
2.108e-07
8.28639e-06
8.24312e-07
1.10804e-05
2.05985e-06
1.16748e-05
4.15971e-06
9.84554e-06
7.40174e-06
5.32313e-06
1.21076e-05
-2.22342e-06
1.86458e-05
-1.31891e-05
2.74259e-05
-2.80187e-05
3.88799e-05
-4.71694e-05
5.34256e-05
-7.10367e-05
7.14126e-05
-9.98659e-05
9.3179e-05
-0.000133587
0.000118743
-0.000172541
-0.000205071
0.00015556
1.83487e-08
3.47698e-06
2.90644e-07
8.0141e-06
1.03779e-06
1.03332e-05
2.49969e-06
1.02129e-05
4.9457e-06
7.39953e-06
8.68404e-06
1.58479e-06
1.40682e-05
-7.60755e-06
2.14956e-05
-2.06165e-05
3.13944e-05
-3.79175e-05
4.41927e-05
-5.99677e-05
6.02703e-05
-8.71143e-05
7.98845e-05
-0.00011948
0.000103257
-0.000156959
0.000130013
-0.000199297
-0.000238658
0.000163601
3.78221e-08
3.43916e-06
3.86037e-07
7.66588e-06
1.28677e-06
9.43249e-06
3.00437e-06
8.49533e-06
5.83607e-06
4.56783e-06
1.01203e-05
-2.69946e-06
1.62399e-05
-1.37272e-05
2.46144e-05
-2.8991e-05
3.56761e-05
-4.89792e-05
4.9825e-05
-7.41165e-05
6.73636e-05
-0.000104653
8.84029e-05
-0.000140519
0.000112901
-0.000181457
0.000140159
-0.000226555
-0.000270225
0.000171725
6.15131e-08
3.37764e-06
4.9791e-07
7.22949e-06
1.57316e-06
8.35723e-06
3.57681e-06
6.49168e-06
6.83423e-06
1.31041e-06
1.17129e-05
-7.5781e-06
1.86205e-05
-2.06348e-05
2.7989e-05
-3.83595e-05
4.0237e-05
-6.12272e-05
5.57082e-05
-8.95877e-05
7.45898e-05
-0.000123535
9.68083e-05
-0.000162738
0.000122025
-0.000206674
0.000149337
-0.000253867
-0.000300056
0.000179168
8.9605e-08
3.28804e-06
6.26961e-07
6.69213e-06
1.89835e-06
7.08584e-06
4.21888e-06
4.17115e-06
7.94162e-06
-2.41234e-06
1.34605e-05
-1.3097e-05
2.12018e-05
-2.83761e-05
3.1597e-05
-4.87547e-05
4.503e-05
-7.46602e-05
6.17579e-05
-0.000106316
8.18173e-05
-0.000143594
0.000104927
-0.000185847
0.000130464
-0.000232211
0.000157372
-0.000280775
-0.000328142
0.000185458
1.22242e-07
3.1658e-06
7.73687e-07
6.04069e-06
2.26319e-06
5.59634e-06
4.93133e-06
1.503e-06
9.15763e-06
-6.63863e-06
1.53585e-05
-1.92978e-05
2.39699e-05
-3.69876e-05
3.5407e-05
-6.01918e-05
4.99948e-05
-8.9248e-05
6.78736e-05
-0.000124194
8.89002e-05
-0.000164621
0.000112575
-0.000209522
0.000138033
-0.000257669
0.000164122
-0.000306864
-0.000354371
0.000190351
1.59529e-07
3.00627e-06
9.38393e-07
5.26182e-06
2.668e-06
3.86674e-06
5.71383e-06
-1.54283e-06
1.04795e-05
-1.14043e-05
1.73981e-05
-2.62164e-05
2.69042e-05
-4.64936e-05
3.93778e-05
-7.26654e-05
5.50587e-05
-0.000104929
7.39417e-05
-0.000143077
9.56846e-05
-0.000186363
0.000119577
-0.000233414
0.000144572
-0.000282663
0.000169488
-0.000331781
-0.00037862
0.000193737
2.01542e-07
2.80472e-06
1.12121e-06
4.34215e-06
3.11262e-06
1.87533e-06
6.56489e-06
-4.9951e-06
1.19022e-05
-1.67416e-05
1.95668e-05
-3.3881e-05
2.99778e-05
-5.69046e-05
4.34589e-05
-8.61465e-05
6.01379e-05
-0.000121608
7.98398e-05
-0.000162779
0.000102017
-0.000208541
0.000125774
-0.000257171
0.000149955
-0.000306844
0.000173425
-0.00035525
-0.000400812
0.000195617
2.48331e-07
2.55639e-06
1.32211e-06
3.26838e-06
3.59639e-06
-3.98957e-07
7.48188e-06
-8.88059e-06
1.34185e-05
-2.26782e-05
2.18479e-05
-4.23104e-05
3.31574e-05
-6.82142e-05
4.75913e-05
-0.00010058
6.51401e-05
-0.000139157
8.54429e-05
-0.000183082
0.000107756
-0.000230854
0.000131041
-0.000280456
0.00015411
-0.000329913
0.000175939
-0.00037708
-0.000420936
0.000196063
2.99923e-07
2.25647e-06
1.54087e-06
2.02743e-06
4.1181e-06
-2.97618e-06
8.46091e-06
-1.32234e-05
1.50186e-05
-2.92358e-05
2.42204e-05
-5.15122e-05
3.64035e-05
-8.03973e-05
5.17089e-05
-0.000115886
6.99685e-05
-0.000157416
9.063e-05
-0.000203744
0.000112779
-0.000253003
0.000135287
-0.000302965
0.000157011
-0.000351637
0.000177089
-0.000397158
-0.000439044
0.000195198
3.56321e-07
1.90015e-06
1.77713e-06
6.06617e-07
4.67598e-06
-5.87503e-06
9.49682e-06
-1.80442e-05
1.66903e-05
-3.64293e-05
2.66595e-05
-6.14814e-05
3.96711e-05
-9.34089e-05
5.57405e-05
-0.000131955
7.45259e-05
-0.000176202
9.5291e-05
-0.000224509
0.000116988
-0.0002747
0.000138465
-0.000324441
0.00015868
-0.000371852
0.00017697
-0.000415448
-0.000455242
0.000193168
4.17495e-07
1.48265e-06
2.03029e-06
-1.00618e-06
5.26766e-06
-9.1124e-06
1.0583e-05
-2.33596e-05
1.84187e-05
-4.4265e-05
2.9136e-05
-7.21987e-05
4.29106e-05
-0.000107183
5.96123e-05
-0.000148657
7.87196e-05
-0.000195309
9.93327e-05
-0.000245122
0.00012032
-0.000295688
0.000140565
-0.000344686
0.000159179
-0.000390466
0.000175704
-0.000431973
-0.000469669
0.000190131
4.83373e-07
9.99281e-07
2.29951e-06
-2.82232e-06
5.89006e-06
-1.27029e-05
1.17115e-05
-2.91811e-05
2.01866e-05
-5.27401e-05
3.16177e-05
-8.36298e-05
4.60691e-05
-0.000121635
6.32509e-05
-0.000165839
8.24658e-05
-0.000214524
0.000102683
-0.000265339
0.000122742
-0.000315747
0.000141614
-0.000363558
0.000158593
-0.000407445
0.000173427
-0.000446806
-0.000482487
0.000186244
5.5383e-07
4.45451e-07
2.58369e-06
-4.85218e-06
6.53934e-06
-1.66586e-05
1.28727e-05
-3.55144e-05
2.1974e-05
-6.18414e-05
3.40689e-05
-9.57248e-05
4.90925e-05
-0.000136659
6.65867e-05
-0.000183333
8.56942e-05
-0.000233631
0.000105295
-0.00028494
0.000124251
-0.000334704
0.000141668
-0.000380974
0.000157032
-0.000422809
0.000170278
-0.000460053
-0.000493862
0.000181653
6.28669e-07
-1.83218e-07
2.88141e-06
-7.10492e-06
7.21089e-06
-2.09881e-05
1.40554e-05
-4.23589e-05
2.37589e-05
-7.15448e-05
3.64525e-05
-0.000108418
5.19271e-05
-0.000152133
6.95572e-05
-0.000200963
8.83505e-05
-0.000252425
0.000107144
-0.000303733
0.000124873
-0.000352432
0.0001408
-0.000396902
0.000154608
-0.000436616
0.000166392
-0.000471837
-0.000503956
0.000176487
7.07615e-07
-8.90833e-07
3.19088e-06
-9.58818e-06
7.89925e-06
-2.56965e-05
1.52473e-05
-4.9707e-05
2.55175e-05
-8.18151e-05
3.87301e-05
-0.000121631
5.45219e-05
-0.000167925
7.21091e-05
-0.00021855
9.03983e-05
-0.000270714
0.00010823
-0.000321565
0.000124652
-0.000368854
0.000139101
-0.000411351
0.000151439
-0.000448955
0.000161895
-0.000482293
-0.000512921
0.000170861
7.903e-07
-1.68113e-06
3.50997e-06
-1.23078e-05
8.59815e-06
-3.07846e-05
1.64344e-05
-5.75432e-05
2.72248e-05
-9.26055e-05
4.08638e-05
-0.00013527
5.68308e-05
-0.000183892
7.42013e-05
-0.000235921
9.18193e-05
-0.000288332
0.000108573
-0.000338319
0.00012365
-0.00038393
0.000136664
-0.000424366
0.000147638
-0.000459928
0.000156899
-0.000491554
-0.000520893
0.000164871
8.76255e-07
-2.55739e-06
3.83617e-06
-1.52678e-05
9.30054e-06
-3.6249e-05
1.7602e-05
-6.58447e-05
2.88552e-05
-0.000103859
4.28177e-05
-0.000149233
5.88143e-05
-0.000199888
7.58052e-05
-0.000252912
9.26123e-05
-0.000305139
0.000108209
-0.000353916
0.000121939
-0.00039766
0.000133587
-0.000436014
0.000143308
-0.000469649
0.0001515
-0.000499746
-0.000527991
0.000158597
9.6491e-07
-3.5223e-06
4.16661e-06
-1.84695e-05
9.99874e-06
-4.20811e-05
1.87344e-05
-7.45803e-05
3.03832e-05
-0.000115507
4.45587e-05
-0.000163408
6.04411e-05
-0.000215771
7.69055e-05
-0.000269376
9.27914e-05
-0.000321025
0.000107186
-0.000368311
0.000119597
-0.000410071
0.000129962
-0.000446379
0.000138544
-0.000478231
0.000145783
-0.000506985
-0.000534314
0.000152106
1.05559e-06
-4.57789e-06
4.4981e-06
-2.1912e-05
1.06845e-05
-4.82675e-05
1.98158e-05
-8.37116e-05
3.17846e-05
-0.000127476
4.60582e-05
-0.000177682
6.16885e-05
-0.000231401
7.74993e-05
-0.000285187
9.2383e-05
-0.000335909
0.000105561
-0.000381489
0.0001167
-0.00042121
0.000125875
-0.000455554
0.000133427
-0.000485783
0.000139817
-0.000513375
-0.000539945
0.000145448
1.14754e-06
-5.72543e-06
4.82716e-06
-2.55916e-05
1.13492e-05
-5.47896e-05
2.08303e-05
-9.31927e-05
3.3037e-05
-0.000139683
4.72928e-05
-0.000191937
6.25433e-05
-0.000246652
7.75952e-05
-0.000300239
9.14234e-05
-0.000349737
0.000103395
-0.00039346
0.000113327
-0.000431142
0.000121406
-0.000463634
0.00012803
-0.000492406
0.000133659
-0.000519004
-0.000544953
0.000138667
1.23989e-06
-6.96531e-06
5.15011e-06
-2.95018e-05
1.19841e-05
-6.16236e-05
2.17629e-05
-0.000102972
3.41204e-05
-0.00015204
4.82449e-05
-0.000206062
6.30012e-05
-0.000261408
7.72113e-05
-0.000314449
8.99557e-05
-0.000362481
0.000100749
-0.000404254
0.000109547
-0.000439939
0.000116624
-0.000470712
0.000122412
-0.000498194
0.000127357
-0.000523949
-0.000549391
0.000131795
1.33172e-06
-8.29703e-06
5.4631e-06
-3.36332e-05
1.25805e-05
-6.8741e-05
2.25993e-05
-0.00011299
3.50182e-05
-0.000164459
4.89032e-05
-0.000219947
6.30659e-05
-0.000275571
7.63733e-05
-0.000327756
8.8027e-05
-0.000374135
9.76869e-05
-0.000413913
0.000105427
-0.00044768
0.000111592
-0.000476876
0.000116624
-0.000503226
0.000120948
-0.000528273
-0.000553301
0.000124858
1.42206e-06
-9.71909e-06
5.76223e-06
-3.79734e-05
1.313e-05
-7.61088e-05
2.33268e-05
-0.000123187
3.57174e-05
-0.00017685
4.92624e-05
-0.000233492
6.27486e-05
-0.000289057
7.51127e-05
-0.000340121
8.56866e-05
-0.000384709
9.42667e-05
-0.000422494
0.000101028
-0.000454441
0.000106361
-0.000482209
0.000110708
-0.000507574
0.000114462
-0.000532027
-0.000556716
0.000117877
1.50987e-06
-1.1229e-05
6.04365e-06
-4.25071e-05
1.36247e-05
-8.36899e-05
2.39344e-05
-0.000133497
3.62088e-05
-0.000189124
4.9323e-05
-0.000246606
6.20663e-05
-0.0003018
7.34649e-05
-0.000351519
8.29837e-05
-0.000394227
9.05437e-05
-0.000430054
9.64012e-05
-0.000460298
0.000100976
-0.000486784
0.000104698
-0.000511296
0.000107924
-0.000535252
-0.00055966
0.000110868
1.59414e-06
-1.28231e-05
6.30358e-06
-4.72166e-05
1.40572e-05
-9.14435e-05
2.44132e-05
-0.000143853
3.6487e-05
-0.000201198
4.90907e-05
-0.00025921
6.10409e-05
-0.00031375
7.14673e-05
-0.000361945
7.99661e-05
-0.000402726
8.65685e-05
-0.000436656
9.15939e-05
-0.000465324
9.54755e-05
-0.000490665
9.86225e-05
-0.000514444
0.000101352
-0.000537981
-0.000562152
0.000103844
1.67382e-06
-1.44969e-05
6.53847e-06
-5.20812e-05
1.44214e-05
-9.93265e-05
2.47564e-05
-0.000154188
3.65508e-05
-0.000212993
4.85759e-05
-0.000271235
5.96976e-05
-0.000324872
6.91583e-05
-0.000371406
7.66792e-05
-0.000410247
8.23867e-05
-0.000442363
8.66459e-05
-0.000469583
8.98909e-05
-0.00049391
9.25036e-05
-0.000517056
9.47633e-05
-0.000540241
-0.000564205
9.68166e-05
1.74792e-06
-1.62448e-05
6.74505e-06
-5.70783e-05
1.47118e-05
-0.000107293
2.49598e-05
-0.000164436
3.64022e-05
-0.000224435
4.77925e-05
-0.000282625
5.80638e-05
-0.000335143
6.65757e-05
-0.000379918
7.31655e-05
-0.000416837
7.80389e-05
-0.000447237
8.15915e-05
-0.000473135
8.42482e-05
-0.000496567
8.636e-05
-0.000519168
8.81696e-05
-0.000542051
-0.00056583
8.97942e-05
1.81546e-06
-1.80603e-05
6.92039e-06
-6.21833e-05
1.49243e-05
-0.000115297
2.50211e-05
-0.000174532
3.60466e-05
-0.000235461
4.67574e-05
-0.000293336
5.61682e-05
-0.000344554
6.3756e-05
-0.000387506
6.94637e-05
-0.000422545
7.35606e-05
-0.000451334
7.64598e-05
-0.000476035
7.85691e-05
-0.000498676
8.02068e-05
-0.000520806
8.15813e-05
-0.000543425
-0.000567033
8.27847e-05
1.87554e-06
-1.99358e-05
7.06197e-06
-6.73697e-05
1.50558e-05
-0.000123291
2.49405e-05
-0.000184417
3.54919e-05
-0.000246012
4.54894e-05
-0.000303334
5.40396e-05
-0.000353104
6.07341e-05
-0.0003942
6.5609e-05
-0.00042742
6.8983e-05
-0.000454708
7.12754e-05
-0.000478327
7.28714e-05
-0.000500272
7.40563e-05
-0.000521991
7.50073e-05
-0.000544376
-0.000567821
7.57948e-05
1.92737e-06
-2.18632e-05
7.16772e-06
-7.26101e-05
1.51046e-05
-0.000131228
2.47202e-05
-0.000194033
3.47485e-05
-0.00025604
4.4009e-05
-0.000312594
5.17066e-05
-0.000360802
5.75422e-05
-0.000400036
6.16327e-05
-0.00043151
6.43329e-05
-0.000457408
6.6059e-05
-0.000480053
6.71699e-05
-0.000501383
6.79188e-05
-0.00052274
6.84548e-05
-0.000544912
-0.000568196
6.88304e-05
1.9702e-06
-2.38334e-05
7.23606e-06
-7.78759e-05
1.50699e-05
-0.000139062
2.4364e-05
-0.000203327
3.38283e-05
-0.000265505
4.2337e-05
-0.000321103
4.91967e-05
-0.000367662
5.42102e-05
-0.00040505
5.75627e-05
-0.000434863
5.96334e-05
-0.000459479
6.08279e-05
-0.000481248
6.14769e-05
-0.000502032
6.18028e-05
-0.000523066
6.193e-05
-0.000545039
-0.000568163
6.18968e-05
2.00344e-06
-2.58369e-05
7.26591e-06
-8.31384e-05
1.49523e-05
-0.000146748
2.38775e-05
-0.000212252
3.27448e-05
-0.000274372
4.04946e-05
-0.000328853
4.6536e-05
-0.000373703
5.07653e-05
-0.000409279
5.34234e-05
-0.000437521
5.4904e-05
-0.000460959
5.55966e-05
-0.00048194
5.58024e-05
-0.000502238
5.57153e-05
-0.000522979
5.54385e-05
-0.000544763
-0.000567724
5.49989e-05
2.02657e-06
-2.78634e-05
7.25668e-06
-8.83685e-05
1.47532e-05
-0.000154245
2.32675e-05
-0.000220766
3.1512e-05
-0.000282616
3.85026e-05
-0.000335843
4.37491e-05
-0.00037895
4.72317e-05
-0.000412761
4.92363e-05
-0.000439525
5.01618e-05
-0.000461885
5.03773e-05
-0.000482156
5.0155e-05
-0.000502015
4.96627e-05
-0.000522486
4.89853e-05
-0.000544085
-0.00056688
4.81413e-05
2.03923e-06
-2.99027e-05
7.20826e-06
-9.35375e-05
1.44751e-05
-0.000161511
2.25418e-05
-0.000228833
3.01445e-05
-0.000290219
3.63811e-05
-0.00034208
4.08587e-05
-0.000383427
4.36315e-05
-0.000415534
4.50198e-05
-0.000440914
4.54207e-05
-0.000462286
4.51804e-05
-0.000481915
4.4542e-05
-0.000501377
4.36501e-05
-0.000521594
4.25746e-05
-0.00054301
-0.000565633
4.13283e-05
2.04117e-06
-3.19438e-05
7.121e-06
-9.86174e-05
1.41213e-05
-0.000168512
2.1709e-05
-0.000236421
2.86571e-05
-0.000297167
3.41495e-05
-0.000347572
3.78856e-05
-0.000387163
3.9984e-05
-0.000417633
4.079e-05
-0.00044172
4.06931e-05
-0.000462189
4.00143e-05
-0.000481237
3.89696e-05
-0.000500332
3.76825e-05
-0.000520307
3.62107e-05
-0.000541538
-0.000563986
3.45635e-05
2.03224e-06
-3.39761e-05
6.99567e-06
-0.000103581
1.36956e-05
-0.000175212
2.07782e-05
-0.000243503
2.70642e-05
-0.000303453
3.18258e-05
-0.000352334
3.48485e-05
-0.000390186
3.63062e-05
-0.00041909
3.65608e-05
-0.000441974
3.59892e-05
-0.000461617
3.48866e-05
-0.000480134
3.34432e-05
-0.000498889
3.17641e-05
-0.000518628
2.98972e-05
-0.000539671
-0.000561939
2.78496e-05
2.01243e-06
-3.59885e-05
6.83344e-06
-0.000108402
1.32025e-05
-0.000181581
1.97588e-05
-0.00025006
2.538e-05
-0.000309074
2.94268e-05
-0.00035638
3.17646e-05
-0.000392524
3.26132e-05
-0.000419939
3.2344e-05
-0.000441705
3.13177e-05
-0.000460591
2.98035e-05
-0.00047862
2.79674e-05
-0.000497053
2.58984e-05
-0.000516559
2.36377e-05
-0.00053741
-0.00055949
2.1189e-05
1.98185e-06
-3.79704e-05
6.63579e-06
-0.000113056
1.26469e-05
-0.000187592
1.86602e-05
-0.000256073
2.36179e-05
-0.000314032
2.69683e-05
-0.000359731
2.86492e-05
-0.000394205
2.89181e-05
-0.000420208
2.81498e-05
-0.000440937
2.66864e-05
-0.000459127
2.4771e-05
-0.000476704
2.2547e-05
-0.000494829
2.0089e-05
-0.000514101
1.74345e-05
-0.000534756
-0.000556639
1.45833e-05
1.94069e-06
-3.9911e-05
6.40448e-06
-0.00011752
1.20338e-05
-0.000193221
1.74918e-05
-0.000261531
2.17908e-05
-0.000318331
2.44643e-05
-0.000362404
2.55156e-05
-0.000395256
2.52322e-05
-0.000419924
2.3987e-05
-0.000439692
2.21016e-05
-0.000457242
1.9794e-05
-0.000474397
1.7187e-05
-0.000492222
1.4342e-05
-0.000511256
1.12884e-05
-0.000531702
-0.000553378
8.02769e-06
1.88924e-06
-4.18003e-05
6.14152e-06
-0.000121772
1.13687e-05
-0.000198448
1.62628e-05
-0.000266425
1.99107e-05
-0.000321979
2.1928e-05
-0.000364422
2.2376e-05
-0.000395704
2.15654e-05
-0.000419114
1.98631e-05
-0.000437989
1.75688e-05
-0.000454948
1.4877e-05
-0.000471705
1.18925e-05
-0.000489237
8.66762e-06
-0.000508031
5.20771e-06
-0.000528242
-0.000549606
1.43632e-06
1.82789e-06
-4.36282e-05
5.84907e-06
-0.000125793
1.06568e-05
-0.000203256
1.49821e-05
-0.00027075
1.79889e-05
-0.000324986
1.93709e-05
-0.000365804
1.92408e-05
-0.000395574
1.79262e-05
-0.000417799
1.57844e-05
-0.000435847
1.30929e-05
-0.000452256
1.00236e-05
-0.000468636
6.66539e-06
-0.000485879
3.06651e-06
-0.000504432
-7.28909e-07
-0.000524447
-0.000545473
-4.86229e-06
1.75709e-06
-4.53853e-05
5.52945e-06
-0.000129565
9.90356e-06
-0.00020763
1.3658e-05
-0.000274505
1.60356e-05
-0.000327363
1.68036e-05
-0.000366572
1.61193e-05
-0.000394889
1.4322e-05
-0.000416002
1.17563e-05
-0.000433282
8.67794e-06
-0.000449178
5.23727e-06
-0.000465195
1.50756e-06
-0.000482149
-2.47128e-06
-0.000500454
-6.69859e-06
-0.00052022
-0.000541044
-1.1128e-05
1.67733e-06
-4.70626e-05
5.18506e-06
-0.000133073
9.11424e-06
-0.000211559
1.22986e-05
-0.000277689
1.40603e-05
-0.000329125
1.42354e-05
-0.000366747
1.30196e-05
-0.000393674
1.07589e-05
-0.000413741
7.78346e-06
-0.000430306
4.32824e-06
-0.000445723
5.19704e-07
-0.000461387
-3.57474e-06
-0.000478055
-7.92959e-06
-0.000496099
-1.25349e-05
-0.000515614
-0.000536231
-1.73478e-05
1.5892e-06
-4.86518e-05
4.81832e-06
-0.000136302
8.29399e-06
-0.000215035
1.09114e-05
-0.000280306
1.20716e-05
-0.000330285
1.16747e-05
-0.00036635
9.94876e-06
-0.000391948
7.24211e-06
-0.000411035
3.87021e-06
-0.000426934
3.67727e-08
-0.000441889
-4.12329e-06
-0.000457227
-8.58086e-06
-0.000473597
-1.33095e-05
-0.00049137
-1.82905e-05
-0.000510633
-0.000531028
-2.34932e-05
1.49328e-06
-5.01451e-05
4.43171e-06
-0.000139241
7.44775e-06
-0.000218051
9.50333e-06
-0.000282362
1.00774e-05
-0.000330859
9.12896e-06
-0.000365402
6.91297e-06
-0.000389732
3.77586e-06
-0.000407898
1.00008e-08
-0.000423169
-4.16811e-06
-0.000437711
-8.68981e-06
-0.000452705
-1.35079e-05
-0.000468779
-1.86069e-05
-0.000486271
-2.39657e-05
-0.000505274
-0.000525438
-2.95553e-05
1.39022e-06
-5.15353e-05
4.02767e-06
-0.000141878
6.58025e-06
-0.000220604
8.08091e-06
-0.000283863
8.08467e-06
-0.000330863
6.60454e-06
-0.000363922
3.9174e-06
-0.000387045
3.66429e-07
-0.000404347
-3.76368e-06
-0.000419038
-8.30726e-06
-0.000433167
-1.31787e-05
-0.000447833
-1.83529e-05
-0.000463605
-2.38193e-05
-0.000480805
-2.95563e-05
-0.000499538
-0.000519465
-3.55296e-05
1.28069e-06
-5.2816e-05
3.60859e-06
-0.000144206
5.69597e-06
-0.000222691
6.65008e-06
-0.000284817
6.09982e-06
-0.000330313
4.10708e-06
-0.000361929
9.66667e-07
-0.000383904
-2.98401e-06
-0.000400396
-7.48089e-06
-0.000414542
-1.23715e-05
-0.000428277
-1.75874e-05
-0.000442617
-2.31131e-05
-0.000458079
-2.89438e-05
-0.000474974
-3.50584e-05
-0.000493423
-0.000513111
-4.14127e-05
1.1654e-06
-5.39814e-05
3.17684e-06
-0.000146217
4.79917e-06
-0.000224313
5.21636e-06
-0.000285234
4.12841e-06
-0.000329225
1.64184e-06
-0.000359442
-1.93537e-06
-0.000380327
-6.27369e-06
-0.000396058
-1.11272e-05
-0.000409688
-1.63586e-05
-0.000423045
-2.19137e-05