/*--------------------------------*- C++ -*----------------------------------*\
  =========                 |
  \\      /  F ield         | OpenFOAM: The Open Source CFD Toolbox
   \\    /   O peration     | Website:  https://openfoam.org
    \\  /    A nd           | Version:  7
     \\/     M anipulation  |
\*---------------------------------------------------------------------------*/
FoamFile
{
    version     2.0;
    format      ascii;
    class       volVectorField;
    location    "10";
    object      U;
}
// * * * * * * * * * * * * * * * * * * * * * * * * * * * * * * * * * * * * * //

dimensions      [0 1 -1 0 0 0 0];

internalField   nonuniform List<vector> 
18750
(
(-0.000681951 0.000640414 -8.95771e-20)
(-0.00419562 0.00158647 2.65463e-20)
(-0.0111772 0.00228496 1.80159e-19)
(-0.0201601 0.00279416 3.10242e-20)
(-0.0306376 0.00315407 -4.57777e-20)
(-0.0421883 0.00340005 -9.39576e-20)
(-0.0544681 0.00356359 7.10112e-20)
(-0.0672416 0.00367284 3.84888e-20)
(-0.0803651 0.00375336 -2.59065e-20)
(-0.0937796 0.00382841 -6.07342e-20)
(-0.107503 0.00391896 2.08159e-19)
(-0.121627 0.00404358 -1.54398e-19)
(-0.136321 0.00421745 8.55388e-20)
(-0.151704 0.00445028 -1.51355e-19)
(-0.167943 0.00475547 3.5788e-20)
(-0.000740258 0.0019117 5.96616e-20)
(-0.0043143 0.00473798 4.73298e-20)
(-0.0112972 0.00682635 -5.80129e-21)
(-0.0202435 0.00834974 1.58286e-19)
(-0.030654 0.00942697 2.68952e-19)
(-0.0421117 0.0101633 2.92185e-19)
(-0.0542749 0.0106525 -1.99001e-19)
(-0.0669086 0.0109787 2.63142e-19)
(-0.0798682 0.0112183 2.15948e-19)
(-0.0930924 0.0114407 -4.6545e-20)
(-0.106596 0.011709 -2.15936e-19)
(-0.120467 0.012079 1.7278e-20)
(-0.134873 0.0125963 4.61977e-20)
(-0.149926 0.0132907 1.01898e-19)
(-0.165772 0.0142024 -1.42803e-19)
(-0.00085547 0.00315665 1.27578e-19)
(-0.0045493 0.00783049 1.19255e-19)
(-0.0115353 0.0112894 -3.76779e-19)
(-0.0204101 0.0138154 -1.55712e-20)
(-0.0306884 0.015603 -5.273e-19)
(-0.0419621 0.0168248 1.27492e-19)
(-0.0538942 0.0176354 -2.82668e-19)
(-0.0662508 0.0181735 -5.16067e-20)
(-0.0788854 0.0185655 -1.74919e-19)
(-0.0917321 0.0189267 4.16066e-19)
(-0.104799 0.019362 4.83513e-19)
(-0.118169 0.0199648 3.79195e-19)
(-0.132004 0.0208121 2.07044e-19)
(-0.146402 0.0219549 1.33079e-19)
(-0.161471 0.0234606 -2.26907e-19)
(-0.00102487 0.00435864 -4.32147e-19)
(-0.00489599 0.0108265 4.60712e-19)
(-0.0118883 0.0156241 -2.89056e-19)
(-0.0206591 0.0191334 -4.80844e-19)
(-0.0307435 0.0216193 6.61285e-19)
(-0.0417462 0.0233184 -5.4052e-19)
(-0.0533373 0.024443 6.3008e-19)
(-0.0652845 0.0251846 -4.51384e-19)
(-0.0774381 0.0257179 2.57569e-19)
(-0.0897262 0.0262035 -5.86052e-19)
(-0.102148 0.026788 -7.41083e-19)
(-0.114775 0.0276029 3.30006e-20)
(-0.127765 0.0287577 -1.25036e-19)
(-0.141198 0.0303272 -2.4242e-19)
(-0.155118 0.032407 8.38773e-19)
(-0.00124452 0.00550238 -2.20438e-19)
(-0.00534773 0.0136912 4.96653e-19)
(-0.0123512 0.0197834 1.60136e-19)
(-0.0209895 0.0242488 4.30726e-19)
(-0.0308234 0.0274161 -3.91631e-19)
(-0.0414741 0.0295806 1.5331e-19)
(-0.0526208 0.0310086 1.39557e-18)
(-0.064033 0.0319414 1.647e-19)
(-0.0755578 0.0326006 2.5664e-19)
(-0.0871149 0.0331905 -6.94105e-20)
(-0.0986924 0.0338994 9.00993e-20)
(-0.110348 0.0348975 -1.84701e-20)
(-0.122234 0.0363286 -6.46193e-19)
(-0.134408 0.0382951 -3.43455e-19)
(-0.146831 0.0409229 -9.55219e-19)
(-0.0015095 0.00657438 5.2511e-19)
(-0.00589609 0.0163932 1.39015e-20)
(-0.0129179 0.0237242 -2.22125e-19)
(-0.0214001 0.029111 -1.4567e-19)
(-0.0309334 0.0329374 6.14035e-20)
(-0.0411584 0.0355512 -1.36988e-18)
(-0.0517655 0.0372684 -1.78401e-19)
(-0.0625266 0.0383766 8.14395e-20)
(-0.0732847 0.0391416 -4.11443e-19)
(-0.0839501 0.0398102 -4.9998e-19)
(-0.0944971 0.0406115 3.25388e-19)
(-0.104967 0.0417559 -2.99186e-19)
(-0.115506 0.0434235 8.41845e-19)
(-0.126152 0.0457498 -6.09587e-19)
(-0.136756 0.0488949 1.29802e-18)
(-0.00181409 0.00756332 -3.57822e-19)
(-0.00653122 0.0189056 -7.27502e-19)
(-0.013581 0.0274089 2.11667e-19)
(-0.0218891 0.0336742 1.50369e-18)
(-0.0310794 0.0381317 1.28718e-18)
(-0.040814 0.0411747 -3.45045e-19)
(-0.050796 0.043163 1.55011e-19)
(-0.0608007 0.0444269 7.27905e-20)
(-0.0706664 0.0452732 8.0674e-19)
(-0.0802931 0.045989 1.02455e-18)
(-0.0896395 0.0468441 -4.79761e-19)
(-0.098729 0.0480897 -8.09733e-19)
(-0.1077 0.0499458 -1.40037e-18)
(-0.116574 0.052587 2.22448e-19)
(-0.125069 0.0562156 -1.56275e-18)
(-0.00215205 0.00846037 -2.19063e-19)
(-0.00724231 0.0212065 -3.0301e-19)
(-0.0143324 0.0308054 -2.1938e-18)
(-0.0224546 0.037899 6.39551e-19)
(-0.0312677 0.0429537 -8.42939e-19)
(-0.0404571 0.0464006 4.36927e-19)
(-0.0497397 0.0486379 3.45879e-19)
(-0.0588947 0.0500337 -1.58828e-18)
(-0.0677562 0.0509323 -9.36187e-19)
(-0.0762126 0.0516586 -1.42484e-18)
(-0.0842062 0.052522 -2.53258e-19)
(-0.09174 0.0538159 8.60478e-19)
(-0.0989445 0.055804 3.12547e-18)
(-0.105834 0.0587083 -4.40067e-19)
(-0.111961 0.0627843 7.76081e-19)
(-0.0025169 0.00925931 1.24393e-18)
(-0.00801795 0.0232792 5.40119e-19)
(-0.0151634 0.0338883 2.32302e-18)
(-0.0230942 0.0417524 -1.57876e-18)
(-0.0315047 0.0473641 6.12732e-19)
(-0.0401043 0.0511847 -9.01582e-19)
(-0.0486249 0.0536446 -1.82083e-18)
(-0.0568503 0.0551443 1.52589e-18)
(-0.0646104 0.0560618 1.48922e-19)
(-0.0717821 0.0567568 2.07015e-18)
(-0.07829 0.0575766 -6.23167e-19)
(-0.0841152 0.058858 -2.53566e-18)
(-0.08938 0.0609132 -1.45527e-18)
(-0.0941056 0.0640212 1.41422e-19)
(-0.0976407 0.0685061 -6.37003e-19)
(-0.00290222 0.0099567 -9.37677e-19)
(-0.00884666 0.0251127 -6.0175e-19)
(-0.0160649 0.0366389 6.1804e-19)
(-0.0238052 0.0452085 9.53977e-20)
(-0.0317964 0.0513309 -2.30885e-19)
(-0.039772 0.0554897 -2.37409e-19)
(-0.0474798 0.058141 8.52456e-19)
(-0.0547091 0.0597128 -8.4293e-19)
(-0.0612862 0.0606118 7.73243e-19)
(-0.0670762 0.0612289 8.42392e-19)
(-0.0719858 0.0619473 -1.43081e-18)
(-0.0759725 0.063148 2.54888e-18)
(-0.0791493 0.0651968 2.84944e-19)
(-0.0815655 0.0684403 3.322e-19)
(-0.0823155 0.0732903 7.51711e-19)
(-0.00330192 0.0105518 1.54647e-18)
(-0.00971726 0.0267019 -5.44242e-19)
(-0.0170277 0.0390455 -2.44673e-18)
(-0.0245841 0.0482491 8.48972e-19)
(-0.0321474 0.0548294 -4.86532e-19)
(-0.0394749 0.0592855 5.41791e-19)
(-0.0463308 0.0620926 3.34701e-18)
(-0.0525106 0.0637007 1.4159e-18)
(-0.0578378 0.0645403 8.60197e-19)
(-0.0621665 0.0650291 -2.73093e-18)
(-0.0653851 0.065583 2.73629e-18)
(-0.067426 0.0666276 8.85759e-19)
(-0.0683908 0.0685886 -1.39139e-18)
(-0.0683877 0.0718898 1.63553e-18)
(-0.0661877 0.0770565 -4.26477e-20)
(-0.00371045 0.0110463 2.00355e-19)
(-0.0106193 0.0280469 1.06804e-19)
(-0.0180431 0.0411034 -8.51803e-20)
(-0.0254267 0.0508631 -1.48909e-18)
(-0.0325607 0.0578428 2.77427e-18)
(-0.039225 0.0625498 -1.32203e-18)
(-0.0452001 0.0654727 -3.50476e-18)
(-0.050289 0.067078 8.89352e-19)
(-0.0543136 0.0678145 -1.40578e-18)
(-0.0571173 0.0681215 2.01095e-18)
(-0.0585704 0.0684439 -3.35405e-18)
(-0.0585788 0.069251 2.32694e-19)
(-0.0572285 0.0710345 1.22784e-18)
(-0.0547293 0.0743073 -2.43785e-18)
(-0.0494543 0.0797864 -5.52373e-19)
(-0.00412308 0.0114445 -9.2901e-19)
(-0.0115432 0.0291529 2.92861e-19)
(-0.0191021 0.0428144 8.54566e-19)
(-0.026328 0.0530472 -1.89308e-20)
(-0.0330368 0.0603618 -3.59538e-18)
(-0.0390298 0.0652683 3.5572e-19)
(-0.044104 0.0682632 1.12487e-18)
(-0.0480706 0.0698239 -2.78617e-18)
(-0.0507512 0.0704118 1.82178e-18)
(-0.0519797 0.0704823 -1.56853e-18)
(-0.0516083 0.0705035 4.00541e-18)
(-0.0495146 0.0709866 -1.61554e-18)
(-0.0457595 0.0724928 1.75828e-18)
(-0.0406849 0.0756385 3.39847e-18)
(-0.0323053 0.0815867 1.38705e-18)
(-0.00453601 0.0117524 -3.31792e-19)
(-0.0124809 0.0300297 1.57009e-20)
(-0.0201963 0.0441861 -5.84788e-20)
(-0.0272812 0.0548047 -9.77984e-20)
(-0.0335726 0.0623848 -1.60053e-18)
(-0.0388912 0.0674348 -6.37138e-19)
(-0.0430502 0.0704546 1.03986e-18)
(-0.0458701 0.0719271 5.47605e-19)
(-0.0471736 0.0723209 -3.18872e-18)
(-0.0467862 0.0721006 -1.81866e-19)
(-0.044542 0.0717509 -7.86562e-19)
(-0.0402893 0.0718197 1.49781e-18)
(-0.0340523 0.0729395 -1.95185e-18)
(-0.0262324 0.0758348 -2.36254e-19)
(-0.0147481 0.0823042 -1.55943e-18)
(-0.00494645 0.0119779 1.42518e-18)
(-0.0134254 0.0306907 -1.34059e-18)
(-0.0213173 0.0452318 -1.85892e-18)
(-0.028278 0.0561453 3.18166e-18)
(-0.0341609 0.0639174 2.70996e-18)
(-0.0388038 0.0690511 3.24527e-18)
(-0.0420358 0.072046 1.05618e-19)
(-0.0436875 0.0733864 1.8605e-18)
(-0.0435841 0.073542 2.36747e-18)
(-0.0415439 0.07298 3.26358e-18)
(-0.0373829 0.072193 -1.37857e-18)
(-0.0309184 0.0717566 2.74504e-18)
(-0.022143 0.0723699 -4.87286e-20)
(-0.0114407 0.0748922 -1.27639e-18)
(0.0033197 0.0816926 -2.95984e-18)
(-0.00535268 0.0121298 -8.72043e-19)
(-0.0143711 0.0311525 1.49957e-18)
(-0.0224567 0.0459687 9.81646e-19)
(-0.0293078 0.0570844 -2.94878e-18)
(-0.0347891 0.0649714 -1.32405e-18)
(-0.0387534 0.0701263 -2.21009e-19)
(-0.0410448 0.0730454 -1.53116e-18)
(-0.0415045 0.0742106 -2.47618e-18)
(-0.0399615 0.074088 -3.88707e-18)
(-0.0362281 0.0731399 -1.55485e-18)
(-0.0301022 0.0718572 2.0474e-18)
(-0.0213675 0.0708307 -4.06993e-18)
(-0.00997878 0.0708185 1.41887e-19)
(0.00368538 0.0728483 2.29756e-18)
(0.0219418 0.0798024 3.15269e-18)
(-0.005754 0.0122179 -2.06261e-18)
(-0.0153136 0.0314335 1.73191e-18)
(-0.0236058 0.0464176 -3.01087e-18)
(-0.0303569 0.0576415 -1.379e-18)
(-0.0354383 0.0655645 -4.66773e-20)
(-0.0387152 0.0706762 1.74582e-18)
(-0.0400457 0.0734686 2.56634e-18)
(-0.0392813 0.0744183 7.44411e-19)
(-0.0362555 0.0739837 1.03185e-18)
(-0.0307754 0.0726155 -2.95338e-18)
(-0.0226211 0.0707928 6.66084e-20)
(-0.0115398 0.0691064 -1.93424e-18)
(0.00256299 0.0683584 -1.36934e-18)
(0.0192881 0.0697375 -3.71242e-18)
(0.0412772 0.0767437 -4.72459e-20)
(-0.00615057 0.012252 1.8199e-18)
(-0.0162495 0.0315532 2.98854e-19)
(-0.0247549 0.0466013 4.84961e-19)
(-0.0314081 0.05784 3.47402e-18)
(-0.0360825 0.0657189 1.41155e-18)
(-0.0386529 0.0707227 -1.56955e-18)
(-0.0389895 0.0733388 1.20713e-18)
(-0.0369535 0.0740372 -6.33489e-19)
(-0.0323823 0.0732654 -1.16582e-18)
(-0.0250778 0.0714576 1.29031e-18)
(-0.0148025 0.0690709 -4.03191e-18)
(-0.00126462 0.0666795 -1.65171e-19)
(0.015692 0.0651071 -2.00334e-18)
(0.0356225 0.0656677 2.9796e-18)
(0.0616511 0.0726266 2.96617e-19)
(-0.00654331 0.0122417 -6.93572e-19)
(-0.0171758 0.0315311 -2.08351e-18)
(-0.0258934 0.0465438 5.40358e-19)
(-0.0324401 0.0577051 -3.9605e-18)
(-0.0366876 0.0654606 -2.58849e-18)
(-0.038517 0.0702925 -1.39585e-18)
(-0.0378081 0.0726855 -2.23458e-18)
(-0.0344298 0.0731028 2.10943e-18)
(-0.0282216 0.07198 2.69824e-18)
(-0.0189787 0.0697312 4.92865e-18)
(-0.00644524 0.0667834 -1.93211e-19)
(0.00971135 0.0636774 4.88291e-18)
(0.0297203 0.0612308 1.78563e-18)
(0.0530603 0.0608221 1.3263e-18)
(0.083543 0.067624 -2.83676e-18)
(-0.00693359 0.0121961 1.1991e-18)
(-0.0180894 0.0313859 3.167e-18)
(-0.0270083 0.0462688 2.18316e-18)
(-0.0334266 0.0572634 2.75149e-18)
(-0.0372104 0.0648177 -3.54742e-20)
(-0.0382439 0.0694165 9.50136e-19)
(-0.0364132 0.0715434 7.01995e-20)
(-0.0315909 0.0716575 -1.49496e-18)
(-0.0236148 0.0701828 2.32892e-18)
(-0.0122706 0.0675125 -7.62047e-18)
(0.0027185 0.0640388 2.03133e-18)
(0.0217267 0.0602548 -1.29258e-18)
(0.045066 0.0569427 2.21375e-19)
(0.0720958 0.0554549 -1.69879e-18)
(0.107572 0.0620089 -1.82653e-18)
(-0.00732295 0.0121231 -1.95813e-18)
(-0.0189871 0.0311347 2.82035e-18)
(-0.0280842 0.045799 -6.73345e-19)
(-0.0343357 0.0565412 -1.17656e-18)
(-0.0375982 0.06382 2.35892e-18)
(-0.0377556 0.0681276 1.71238e-19)
(-0.0346954 0.0699513 -6.52959e-19)
(-0.0282885 0.0697486 -7.46846e-20)
(-0.0183653 0.0679353 -1.47048e-18)
(-0.00469574 0.0648861 3.64938e-18)
(0.0130209 0.0609581 2.1283e-18)
(0.0352011 0.0565871 1.11804e-18)
(0.0622459 0.0524942 -8.82819e-20)
(0.0933368 0.0498852 2.26585e-18)
(0.134473 0.0561699 -1.92076e-19)
(-0.00771284 0.0120292 5.76657e-19)
(-0.0198639 0.030792 -6.31345e-19)
(-0.0291026 0.0451549 5.6105e-19)
(-0.0351291 0.0555639 2.19562e-18)
(-0.0377883 0.0624973 -1.37014e-18)
(-0.0369593 0.0664607 -8.79214e-19)
(-0.0325248 0.0679505 -1.44286e-18)
(-0.0243469 0.0674272 1.11015e-18)
(-0.0122401 0.0653034 -1.07219e-18)
(0.00404931 0.0619413 -1.23847e-18)
(0.024851 0.0576674 -1.83383e-18)
(0.0506232 0.0528594 -1.00762e-18)
(0.0818549 0.0481603 3.50924e-18)
(0.11748 0.0444818 -4.55548e-18)
(0.165037 0.0506136 -9.8677e-20)
(-0.00810422 0.0119192 2.49915e-18)
(-0.0207136 0.0303695 -1.01797e-18)
(-0.0300405 0.0443542 -2.73282e-18)
(-0.035762 0.0543552 -6.85996e-19)
(-0.0377077 0.0608786 3.61107e-18)
(-0.0357472 0.0644514 -1.3972e-19)
(-0.0297516 0.0655844 1.5644e-18)
(-0.0195644 0.0647471 -8.57569e-19)
(-0.00497411 0.0623557 -2.95195e-18)
(0.0143066 0.0587687 6.43617e-18)
(0.038642 0.0542925 -4.50281e-18)
(0.0685299 0.0492549 1.23978e-18)
(0.104533 0.0442188 -5.06627e-18)
(0.145271 0.0396371 1.77793e-18)
(0.200038 0.04595 1.37528e-18)
(-0.00849727 0.0117964 -8.75748e-19)
(-0.0215271 0.0298754 -3.14897e-18)
(-0.0308709 0.0434115 1.48488e-18)
(-0.036182 0.0529357 2.73386e-19)
(-0.0372729 0.0589918 -3.30638e-18)
(-0.0339978 0.0621353 1.97703e-18)
(-0.0262077 0.0628976 9.62717e-20)
(-0.0137171 0.0617638 -5.163e-19)
(0.00372364 0.0591618 -3.30425e-18)
(0.0264461 0.055458 -3.69105e-19)
(0.0548542 0.0509534 3.64647e-18)
(0.0894797 0.0459444 3.32154e-19)
(0.130921 0.040928 7.83064e-19)
(0.177458 0.0357355 2.11918e-18)
(0.240109 0.0428539 -4.91069e-18)
(-0.00889099 0.011662 -1.37395e-18)
(-0.0222923 0.0293146 8.71923e-21)
(-0.0315614 0.0423375 -1.84327e-18)
(-0.0363295 0.0513235 1.51476e-18)
(-0.0363902 0.0568629 1.90846e-18)
(-0.0315762 0.0595475 -1.38495e-18)
(-0.0217089 0.0599354 -2.01624e-19)
(-0.00656267 0.0585343 -1.0506e-18)
(0.014163 0.0557927 2.3967e-18)
(0.0408537 0.0520975 5.364e-19)
(0.0739544 0.0477619 -5.51153e-18)
(0.114022 0.0430792 1.54256e-18)
(0.161614 0.0385051 7.97898e-19)
(0.214739 0.0331207 -3.51257e-18)
(0.28563 0.0419879 6.01174e-19)
(-0.009283 0.0115153 3.26362e-19)
(-0.0229932 0.0286878 9.14871e-19)
(-0.0320742 0.0411397 1.8431e-18)
(-0.0361373 0.0495333 -1.49045e-18)
(-0.0349561 0.0545164 9.60086e-21)
(-0.0283355 0.0567229 3.58403e-18)
(-0.0160579 0.0567445 -9.16817e-20)
(0.00215466 0.0551179 2.07355e-20)
(0.0266641 0.0523214 4.15836e-18)
(0.0579168 0.0487748 -2.29849e-18)
(0.096394 0.0448222 1.36612e-18)
(0.142663 0.04079 -3.87334e-18)
(0.19711 0.0371112 3.03567e-19)
(0.257717 0.0320756 -9.38691e-19)
(0.336604 0.043893 1.4197e-18)
(-0.00966949 0.011354 -2.21848e-19)
(-0.0236101 0.0279937 1.21042e-18)
(-0.0323647 0.0398214 -1.56436e-18)
(-0.0355305 0.0475771 3.44939e-18)
(-0.032858 0.0519746 -2.73695e-18)
(-0.0241188 0.0536962 -2.35398e-18)
(-0.00904684 0.0533728 -1.49033e-18)
(0.0126983 0.0515768 -3.03212e-18)
(0.041548 0.0488242 -5.41253e-18)
(0.0780105 0.0455793 6.23488e-19)
(0.122588 0.0422336 3.70059e-18)
(0.175836 0.039192 2.75356e-18)
(0.237765 0.0368481 3.42591e-19)
(0.306819 0.0328573 -2.00646e-18)
(0.392494 0.0489752 -8.56902e-19)
(-0.0100445 0.0111745 6.10715e-19)
(-0.0241195 0.0272276 1.15921e-18)
(-0.0323826 0.0383825 -5.01863e-18)
(-0.0344264 0.0454643 -3.45933e-18)
(-0.0299749 0.0492588 -1.08541e-19)
(-0.0187608 0.0505025 2.63762e-18)
(-0.000461526 0.0498708 -9.06683e-19)
(0.0253331 0.0479775 6.73415e-18)
(0.0591268 0.0453827 2.42192e-19)
(0.101482 0.0426036 -3.51206e-18)
(0.152897 0.0400925 -2.93822e-18)
(0.213878 0.0383838 -4.29887e-18)
(0.283787 0.0377527 4.64714e-18)
(0.362211 0.0358295 2.76311e-18)
(0.451868 0.0577538 -8.78858e-20)
(-0.0104003 0.0109719 -1.68854e-18)
(-0.0244924 0.0263818 -3.40862e-18)
(-0.0320721 0.0368209 2.52217e-18)
(-0.0327353 0.0432026 3.14098e-18)
(-0.0261785 0.0463896 1.9392e-18)
(-0.01209 0.0471781 -1.81533e-18)
(0.00991486 0.0462922 4.73936e-18)
(0.0403188 0.0443917 -6.35618e-18)
(0.0796923 0.0420849 6.71907e-18)
(0.128634 0.0399455 4.009e-18)
(0.187596 0.0384905 -1.27316e-18)
(0.257006 0.0384261 -1.60386e-18)
(0.335336 0.0397609 -1.9269e-18)
(0.424012 0.0415212 -3.45161e-18)
(0.512588 0.0705205 3.89142e-18)
(-0.0107269 0.0107401 4.86403e-18)
(-0.0246954 0.0254469 4.04755e-18)
(-0.0313708 0.0351332 9.58332e-19)
(-0.0303613 0.0407986 -4.60857e-20)
(-0.0213346 0.0433881 -6.54908e-19)
(-0.00393135 0.0437613 -8.16311e-19)
(0.0222974 0.0426953 -3.7504e-18)
(0.0579026 0.0408984 6.34202e-18)
(0.103504 0.0390278 -4.80064e-18)
(0.1597 0.0377103 6.69586e-20)
(0.226843 0.0375138 4.12637e-18)
(0.305227 0.0393176 2.66746e-18)
(0.392459 0.0426887 2.49431e-18)
(0.492604 0.05013 2.42088e-20)
(0.575129 0.0837939 -2.56374e-18)
(-0.0110122 0.0104722 -2.93843e-18)
(-0.0246911 0.0244135 -3.29921e-18)
(-0.0302106 0.0333148 1.09017e-18)
(-0.0272022 0.038259 -1.77653e-18)
(-0.0153044 0.0402766 -8.05084e-19)
(0.0058913 0.0402942 2.94022e-18)
(0.0368947 0.0391441 -7.9732e-19)
(0.0783111 0.0375848 -6.29258e-19)
(0.130777 0.0363195 -2.24233e-18)
(0.194831 0.0360161 -4.76254e-18)
(0.270633 0.0372588 2.14561e-18)
(0.358222 0.0410374 -2.36488e-18)
(0.454527 0.0463391 -3.16463e-18)
(0.566628 0.0602398 -1.2772e-18)
(0.647232 0.0868781 4.71915e-18)
(-0.0112418 0.010162 3.37605e-18)
(-0.0244365 0.0232719 -2.8812e-18)
(-0.0285183 0.0313617 -4.86062e-18)
(-0.0231512 0.0355919 4.90181e-19)
(-0.00794598 0.0370804 1.23787e-18)
(0.0175522 0.0368231 -8.07369e-19)
(0.0539041 0.0357095 2.36404e-18)
(0.101744 0.0345477 6.18616e-19)
(0.161671 0.0340802 -6.23338e-19)
(0.234079 0.0349982 -2.62241e-19)
(0.318805 0.0378581 -2.30807e-18)
(0.415418 0.0436607 1.88168e-19)
(0.52016 0.0506724 9.88691e-19)
(0.639507 0.0674914 -7.11541e-19)
(0.72951 0.0794337 5.31513e-18)
(-0.0114007 0.0098035 7.27429e-19)
(-0.0238849 0.0220125 -1.69073e-18)
(-0.0262152 0.0292714 4.76682e-18)
(-0.0180971 0.032808 3.7753e-18)
(0.000883455 0.0338288 -3.826e-18)
(0.0312205 0.0334005 -2.27596e-19)
(0.0735068 0.0324702 -1.79512e-18)
(0.128364 0.0318929 -5.84912e-19)
(0.196283 0.0324408 4.89406e-18)
(0.277394 0.0348049 2.36022e-18)
(0.371053 0.0394692 3.41686e-18)
(0.476101 0.0473381 -2.49901e-18)
(0.58808 0.0560757 1.47943e-18)
(0.711113 0.0742718 -7.96293e-19)
(0.80683 0.0806301 -6.79072e-18)
(-0.0114712 0.00939065 5.85716e-19)
(-0.0229864 0.020628 9.75942e-19)
(-0.0232191 0.0270444 -2.63756e-18)
(-0.011926 0.0299223 -3.0742e-18)
(0.0113258 0.0305568 -2.87333e-18)
(0.0470568 0.0300859 2.70639e-19)
(0.0958613 0.0295129 2.19085e-18)
(0.158291 0.0297344 -4.10115e-18)
(0.234633 0.0315378 -2.33206e-18)
(0.324611 0.0355849 1.30089e-18)
(0.426927 0.042244 -3.29054e-18)
(0.539462 0.0522237 2.42896e-19)
(0.657012 0.0628216 1.93121e-18)
(0.78099 0.0817945 -2.3407e-18)
(0.878468 0.0867502 1.83429e-18)
(-0.0114343 0.00891855 -1.31796e-18)
(-0.0216875 0.0191137 3.22694e-18)
(-0.0194441 0.0246854 2.18035e-18)
(-0.00452268 0.0269553 1.479e-18)
(0.0235196 0.0273066 2.4573e-18)
(0.0652086 0.026947 -2.55381e-19)
(0.121098 0.0269327 -2.0789e-18)
(0.191593 0.0281922 4.02705e-19)
(0.276656 0.0315075 2.98086e-18)
(0.375444 0.0374744 -5.34724e-18)
(0.48583 0.0462991 -2.64893e-18)
(0.60457 0.0584025 3.37092e-20)
(0.725693 0.0709021 -6.34535e-19)
(0.848149 0.0902377 3.0724e-18)
(0.944618 0.0953237 -2.45272e-18)
(-0.0112696 0.00838369 1.47334e-18)
(-0.0199319 0.0174686 1.08291e-18)
(-0.0148021 0.0222041 -1.10679e-19)
(0.00422796 0.0239346 -9.57248e-19)
(0.0375972 0.0241285 2.21895e-19)
(0.0858065 0.0240605 -2.96919e-18)
(0.14931 0.0248324 7.22249e-19)
(0.228272 0.0273896 -1.53312e-18)
(0.32219 0.0324797 -1.85215e-18)
(0.429479 0.0405862 3.76431e-18)
(0.547023 0.0517008 5.50898e-18)
(0.670377 0.0658786 2.48394e-18)
(0.792865 0.0801658 2.12655e-18)
(0.911536 0.0995342 -2.53171e-18)
(1.00444 0.105287 -2.43562e-18)
(-0.0109555 0.00778412 1.25936e-18)
(-0.017661 0.0156954 -2.46726e-18)
(-0.0092036 0.0196168 -1.22441e-18)
(0.0144389 0.020896 -2.80694e-18)
(0.0536813 0.0210825 1.26805e-18)
(0.108958 0.0215124 3.14824e-18)
(0.18055 0.0233215 -3.85721e-18)
(0.26826 0.0274496 1.39841e-18)
(0.370965 0.034571 2.90781e-18)
(0.486168 0.0450005 9.25123e-19)
(0.609643 0.0584589 -3.79354e-18)
(0.735771 0.0745797 -1.39056e-18)
(0.857339 0.0903935 2.0843e-20)
(0.970216 0.109496 1.36958e-18)
(1.05741 0.115902 4.85794e-18)
(-0.0104694 0.00711967 -2.00499e-18)
(-0.0148149 0.0138019 -2.1669e-18)
(-0.00255893 0.0169469 1.24266e-18)
(0.026219 0.0178843 4.98082e-18)
(0.071882 0.0182384 -3.28518e-18)
(0.134744 0.0193978 9.6023e-19)
(0.214818 0.0225145 1.5582e-18)
(0.31141 0.028491 -9.82167e-20)
(0.422607 0.0378787 3.57925e-19)
(0.544849 0.0507588 1.87208e-18)
(0.672742 0.0665251 -1.77e-18)
(0.799641 0.084367 -3.30749e-18)
(0.918076 0.101331 -2.54576e-18)
(1.02348 0.119872 2.07505e-18)
(1.10333 0.126644 5.17267e-19)
(-0.00978812 0.00639211 -5.08987e-19)
(-0.0113325 0.0118013 4.39569e-18)
(0.00522008 0.0142261 9.65507e-19)
(0.03967 0.0149543 1.35524e-18)
(0.0922919 0.0156767 1.23406e-18)
(0.163209 0.0178202 1.19846e-18)
(0.252055 0.0225281 -4.71854e-19)
(0.357486 0.0306234 9.04206e-19)
(0.476634 0.0424739 5.17488e-19)
(0.604759 0.0578584 2.38731e-18)
(0.735335 0.075798 1.39257e-19)
(0.860951 0.0950515 2.30409e-18)
(0.974244 0.112718 -1.57301e-18)
(1.07089 0.130404 -1.31923e-18)
(1.14231 0.137157 7.93108e-19)
(-0.00888755 0.0056053 1.89444e-18)
(-0.0071528 0.00971228 -1.78375e-18)
(0.0142186 0.0114942 2.37387e-19)
(0.0548841 0.0121709 -2.75372e-18)
(0.114982 0.0134874 -2.33053e-18)
(0.19436 0.0168895 4.12967e-18)
(0.292141 0.0234774 1.28471e-18)
(0.406168 0.0339413 -1.93676e-18)
(0.532468 0.0483958 4.984e-19)
(0.665072 0.0662517 -6.42933e-18)
(0.796456 0.086131 2.22229e-18)
(0.918798 0.106415 -2.46916e-18)
(1.02525 0.124309 2.59114e-18)
(1.1123 0.140865 -3.8904e-19)
(1.17474 0.147216 -1.2509e-18)
(-0.00774336 0.00476531 -2.9801e-18)
(-0.00221581 0.00755971 -3.23319e-18)
(0.024517 0.0088 -3.32972e-18)
(0.0719408 0.00960898 -2.56956e-18)
(0.139998 0.0117695 1.71725e-18)
(0.228156 0.0167195 -7.16614e-18)
(0.334885 0.0254716 6.79972e-19)
(0.457048 0.0385186 6.68884e-19)
(0.589454 0.0556481 3.8334e-19)
(0.724936 0.0758483 3.0074e-18)
(0.855211 0.0973456 -2.37751e-18)
(0.972466 0.118231 5.35746e-18)
(1.07077 0.135888 -1.0543e-18)
(1.14778 0.151075 -1.80581e-18)
(1.20116 0.156702 9.75872e-19)
(-0.00633105 0.00388049 5.34255e-19)
(0.00353674 0.00537448 2.64961e-18)
(0.0361885 0.00620067 3.87209e-18)
(0.0909031 0.00735255 5.92312e-19)
(0.167353 0.010629 3.14666e-18)
(0.264507 0.0174246 1.76787e-18)
(0.380025 0.0286088 5.55009e-19)
(0.509643 0.0444036 -3.10063e-18)
(0.646886 0.0641968 -2.14491e-19)
(0.783517 0.0865211 1.50849e-18)
(0.910827 0.109246 5.79721e-18)
(1.02145 0.130286 -7.43663e-19)
(1.11069 0.147284 1.76062e-18)
(1.17761 0.16091 1.55766e-18)
(1.22222 0.165568 2.28435e-18)
(-0.00462626 0.00296155 1.00085e-18)
(0.01016 0.00319365 -3.58031e-18)
(0.0492973 0.00376179 -7.4652e-19)
(0.111814 0.00549392 4.26673e-22)
(0.197025 0.0101765 -5.94066e-18)
(0.303269 0.0191157 1.57305e-18)
(0.427233 0.0329712 -8.02185e-19)
(0.563403 0.0516147 9.93807e-19)
(0.704036 0.0739721 3.54648e-18)
(0.840043 0.0981164 -1.32356e-18)
(0.962684 0.121633 -4.34866e-18)
(1.06545 0.142389 -5.5736e-19)
(1.14512 0.158367 -5.97997e-19)
(1.20223 0.170298 -1.29401e-18)
(1.23863 0.173829 -2.4846e-18)
(-0.00260513 0.00202159 2.03818e-19)
(0.0177048 0.00106033 9.58654e-19)
(0.0638957 0.00155657 -2.5632e-18)
(0.134694 0.00413196 1.05416e-18)
(0.228955 0.0105243 2.47794e-18)
(0.34424 0.0218959 -1.06143e-18)
(0.476114 0.0386203 -2.24849e-19)
(0.617736 0.0601393 -2.61016e-18)
(0.760189 0.0848728 5.66469e-19)
(0.893839 0.110465 -2.10629e-18)
(1.01033 0.13432 2.05112e-18)
(1.10436 0.154386 -1.61891e-18)
(1.17433 0.169054 2.68978e-18)
(1.22215 0.179211 -9.38802e-19)
(1.25108 0.18153 -1.77048e-18)
(-0.000244769 0.00107614 1.11442e-18)
(0.0262161 -0.00097661 7.48874e-19)
(0.0800222 -0.000335011 6.7308e-19)
(0.159537 0.00337028 1.46264e-19)
(0.263038 0.0117834 1.16764e-18)
(0.387164 0.0258566 -2.79849e-18)
(0.526223 0.0455935 1.56107e-18)
(0.672029 0.0699335 3.79638e-18)
(0.814673 0.0967732 -4.20387e-19)
(0.94435 0.123394 3.08393e-18)
(1.0535 0.147139 1.8488e-18)
(1.13827 0.16616 3.34278e-19)
(1.19869 0.179302 5.28881e-19)
(1.23791 0.187656 9.59953e-19)
(1.2602 0.188743 2.10145e-18)
(0.00247634 0.000143143 1.72796e-18)
(0.035732 -0.00286282 2.57951e-18)
(0.0976986 -0.00182733 -2.35992e-18)
(0.186306 0.00331493 2.14057e-18)
(0.29913 0.0140598 -4.99332e-18)
(0.431734 0.0310729 1.18238e-18)
(0.577074 0.0539019 -4.4563e-19)
(0.725669 0.0809254 -2.36813e-18)
(0.866891 0.109532 -4.40201e-18)
(0.991162 0.136737 -1.74024e-18)
(1.09207 0.15995 -4.32297e-18)
(1.16737 0.177629 2.63296e-18)
(1.21864 0.189098 -3.35211e-18)
(1.25007 0.195665 2.10681e-18)
(1.26657 0.195548 1.32198e-18)
(0.00557773 -0.00075707 -4.09994e-18)
(0.0462814 -0.00453903 1.70587e-19)
(0.116928 -0.00283047 2.91541e-19)
(0.214934 0.00407196 5.95976e-19)
(0.337041 0.0174511 3.04897e-19)
(0.477597 0.0376008 2.39595e-18)
(0.628156 0.0635298 1.35814e-18)
(0.778075 0.0930198 -3.92219e-19)
(0.916337 0.123002 1.97552e-18)
(1.034 0.150342 1.30802e-18)
(1.12606 0.172643 6.00037e-19)
(1.19196 0.188745 -1.46557e-18)
(1.23467 0.198457 4.63609e-18)
(1.25915 0.203289 7.65787e-19)
(1.27071 0.202024 -1.46759e-18)
(0.00907643 -0.00160188 3.81413e-18)
(0.0578834 -0.0059417 -2.86471e-18)
(0.137694 -0.00325174 9.22844e-19)
(0.245323 0.00574478 -9.38327e-20)
(0.376539 0.0220429 4.87138e-18)
(0.524365 0.045475 -4.17093e-19)
(0.678953 0.0744361 -1.62467e-18)
(0.828713 0.106105 4.11903e-18)
(0.962613 0.137035 3.90767e-19)
(1.07271 0.164077 1.70626e-18)
(1.15562 0.185137 -3.43014e-18)
(1.21241 0.19949 9.6833e-20)
(1.24724 0.207413 -1.40927e-18)
(1.26564 0.210583 -2.3134e-19)
(1.27303 0.208249 -8.26004e-19)
(0.0129863 -0.00236654 -1.00716e-18)
(0.0705455 -0.00700375 3.05846e-18)
(0.159956 -0.00299744 1.86879e-18)
(0.277338 0.0084315 1.50594e-18)
(0.417357 0.0279067 -7.76004e-19)
(0.571624 0.0547072 -3.38892e-19)
(0.728963 0.0865571 2.21647e-18)
(0.877116 0.120057 -1.73572e-18)
(1.00543 0.151493 5.56075e-19)
(1.10727 0.177833 -2.89198e-18)
(1.18097 0.197377 1.97801e-19)
(1.2291 0.209866 4.26288e-19)
(1.25681 0.216009 -5.81258e-19)
(1.26996 0.217608 -3.38896e-18)
(1.27388 0.214293 1.33869e-18)
(0.0173176 -0.00302437 -1.83911e-18)
(0.0842621 -0.00765561 -2.41435e-18)
(0.183651 -0.00197472 1.32564e-18)
(0.310815 0.0122223 -1.61556e-19)
(0.459194 0.0350969 -2.06374e-18)
(0.618946 0.0652867 -9.52334e-20)
(0.777712 0.0998107 -1.54291e-18)
(0.922893 0.134749 -3.12815e-18)
(1.0446 0.16625 -1.27707e-18)
(1.13774 0.191523 1.19584e-18)
(1.20238 0.209334 1.08896e-18)
(1.24244 0.219893 -1.01113e-19)
(1.26381 0.224296 -1.62965e-18)
(1.27248 0.224423 2.8417e-18)
(1.27356 0.220213 8.30039e-19)
(0.0220761 -0.00354702 1.83809e-18)
(0.099014 -0.00782622 1.40997e-20)
(0.208693 -9.35522e-05 -3.21866e-18)
(0.345559 0.0171971 -6.20828e-20)
(0.501725 0.0436492 5.10776e-19)
(0.665906 0.0771812 9.21276e-19)
(0.824768 0.114101 -1.69868e-18)
(0.96574 0.150057 8.73786e-19)
(1.08003 0.181195 -4.1206e-20)
(1.16427 0.205083 9.79866e-19)
(1.22017 0.220997 -8.69132e-19)
(1.25283 0.229601 -2.3873e-18)
(1.26862 0.232325 -1.18063e-19)
(1.27351 0.231079 -1.37728e-18)
(1.27227 0.226059 -1.11327e-18)
(0.0272629 -0.00390489 7.63172e-19)
(0.114767 -0.00744431 -1.63864e-18)
(0.234973 0.0027313 1.64903e-18)
(0.381348 0.023423 -5.37901e-19)
(0.544607 0.0535801 -2.92431e-19)
(0.71209 0.0903393 -8.42937e-19)
(0.869754 0.129322 1.34056e-18)
(1.00543 0.16586 8.82935e-19)
(1.11172 0.196236 -5.29871e-19)
(1.18705 0.218469 -1.50022e-18)
(1.23467 0.232369 -5.33915e-19)
(1.26061 0.239028 2.45923e-18)
(1.27156 0.240147 1.46769e-18)
(1.2733 0.237625 1.39124e-18)
(1.27019 0.231868 -4.03993e-19)
(0.032874 -0.0040675 -4.73824e-19)
(0.131472 -0.00643971 1.72991e-19)
(0.262357 0.00657823 -6.94182e-19)
(0.417937 0.030953 -1.87604e-20)
(0.587488 0.0648865 -5.50399e-19)
(0.757106 0.104693 -8.40487e-19)
(0.912351 0.145363 2.84363e-19)
(1.04182 0.182047 -1.77771e-18)
(1.13974 0.211295 1.56955e-18)
(1.20632 0.231652 1.97135e-18)
(1.2462 0.243465 2.37033e-19)
(1.26614 0.248212 -2.14656e-18)
(1.27293 0.247808 -2.01717e-18)
(1.27205 0.244098 -1.46276e-18)
(1.26746 0.237669 5.47221e-19)
(0.0388993 -0.00400399 -1.57131e-18)
(0.149065 -0.00474474 4.44233e-19)
(0.29069 0.0115169 -3.39259e-19)
(0.455062 0.039824 -7.88517e-21)
(0.63002 0.0775463 -1.48749e-19)
(0.800597 0.12016 -3.32656e-19)
(0.952304 0.162114 5.9792e-19)
(1.07484 0.198517 -3.6366e-19)
(1.1642 0.226312 -4.46612e-19)
(1.22233 0.244618 -8.79307e-19)
(1.25507 0.254307 -7.7738e-19)
(1.2697 0.257193 -3.55948e-19)
(1.27295 0.255348 1.25735e-18)
(1.26994 0.250531 -4.91666e-20)
(1.26416 0.243481 9.04546e-19)
(0.0453234 -0.00368367 6.50916e-19)
(0.167467 -0.00229569 1.15699e-18)
(0.319801 0.0176067 1.99193e-19)
(0.492447 0.0500563 7.48158e-19)
(0.671858 0.0915197 1.64962e-18)
(0.842244 0.13665 6.10611e-19)
(0.989418 0.179465 2.29154e-18)
(1.10447 0.215182 1.20045e-18)
(1.18525 0.241238 7.68227e-19)
(1.23534 0.257362 1.73017e-18)
(1.26158 0.264917 5.24452e-19)
(1.27156 0.266008 9.43853e-19)
(1.27182 0.2628 4.62566e-19)
(1.26709 0.256946 2.01063e-19)
(1.26037 0.249318 6.33705e-19)
(0.0521246 -0.0030766 9.25879e-19)
(0.186582 0.000965804 -1.64424e-18)
(0.349499 0.0248946 -3.35008e-19)
(0.529808 0.061653 7.79126e-19)
(0.712677 0.106751 -1.67398e-18)
(0.88177 0.154063 -6.91132e-19)
(1.02356 0.19731 -1.41526e-18)
(1.13074 0.231962 -4.44576e-20)
(1.20308 0.256039 -3.72642e-19)
(1.24562 0.269885 -1.46298e-18)
(1.266 0.275324 1.10177e-18)
(1.27194 0.274687 8.43027e-20)
(1.26971 0.27019 -4.54895e-20)
(1.26359 0.263359 3.52662e-19)
(1.25615 0.255183 -7.76044e-19)
(0.0592753 -0.00215414 -5.89247e-20)
(0.206305 0.00509136 7.23029e-19)
(0.37958 0.0334146 2.04919e-19)
(0.566861 0.0745998 -1.10164e-18)
(0.752172 0.12317 7.44297e-19)
(0.918945 0.172296 2.44132e-19)
(1.05463 0.21555 -6.48145e-19)
(1.15375 0.248792 -3.1009e-19)
(1.21787 0.270687 -9.21928e-19)
(1.2534 0.282196 1.55839e-19)
(1.26854 0.285549 -1.06762e-18)
(1.27102 0.283257 -7.36713e-19)
(1.26674 0.277537 1.90025e-19)
(1.25953 0.26978 1.86303e-19)
(1.25151 0.261078 -3.21118e-19)
(0.0667419 -0.000889612 -3.49524e-19)
(0.226515 0.0101246 -2.26422e-19)
(0.409833 0.0431866 5.26123e-19)
(0.603325 0.088866 9.53736e-19)