/*--------------------------------*- C++ -*----------------------------------*\
  =========                 |
  \\      /  F ield         | OpenFOAM: The Open Source CFD Toolbox
   \\    /   O peration     | Website:  https://openfoam.org
    \\  /    A nd           | Version:  7
     \\/     M anipulation  |
\*---------------------------------------------------------------------------*/
FoamFile
{
    version     2.0;
    format      ascii;
    class       volScalarField;
    location    "11.9988";
    object      p;
}
// * * * * * * * * * * * * * * * * * * * * * * * * * * * * * * * * * * * * * //

dimensions      [0 2 -2 0 0 0 0];

internalField   nonuniform List<scalar> 
18750
(
-0.0535826
-0.0680604
-0.0937951
-0.130834
-0.176468
-0.229037
-0.286613
-0.347693
-0.410943
-0.475386
-0.540195
-0.604674
-0.668191
-0.730198
-0.790153
-0.0590058
-0.0730958
-0.0984691
-0.135185
-0.180535
-0.232852
-0.290197
-0.351055
-0.414081
-0.478304
-0.542921
-0.607254
-0.670652
-0.732515
-0.792279
-0.069606
-0.0829419
-0.107603
-0.143679
-0.188466
-0.240278
-0.297161
-0.357571
-0.420147
-0.483927
-0.548149
-0.612176
-0.675333
-0.736932
-0.796358
-0.0849082
-0.0971643
-0.120784
-0.155921
-0.199874
-0.250934
-0.307122
-0.366859
-0.428761
-0.491872
-0.555486
-0.61903
-0.681822
-0.743071
-0.802076
-0.104244
-0.115145
-0.137427
-0.171361
-0.214231
-0.264304
-0.31957
-0.378418
-0.439432
-0.501659
-0.564451
-0.627323
-0.689626
-0.750473
-0.809038
-0.126804
-0.136105
-0.156814
-0.189335
-0.23091
-0.279783
-0.333921
-0.391681
-0.451615
-0.512766
-0.57454
-0.636557
-0.698246
-0.75866
-0.816823
-0.151703
-0.159133
-0.178141
-0.209113
-0.249232
-0.296731
-0.349564
-0.406065
-0.464762
-0.524683
-0.585278
-0.646274
-0.707224
-0.767181
-0.825015
-0.177946
-0.18329
-0.200582
-0.229947
-0.268505
-0.314503
-0.365896
-0.421007
-0.478348
-0.536933
-0.596232
-0.656073
-0.71616
-0.775623
-0.833211
-0.204476
-0.207653
-0.22334
-0.251109
-0.288058
-0.332483
-0.382349
-0.435982
-0.491893
-0.54908
-0.607017
-0.665605
-0.724706
-0.783615
-0.841022
-0.230256
-0.231339
-0.24567
-0.271913
-0.307267
-0.350103
-0.398406
-0.450518
-0.504962
-0.56073
-0.617284
-0.674559
-0.732562
-0.790816
-0.848076
-0.254315
-0.253573
-0.26691
-0.291738
-0.325566
-0.366856
-0.413608
-0.464194
-0.517168
-0.571525
-0.62671
-0.682654
-0.739463
-0.796921
-0.854018
-0.275791
-0.273753
-0.286475
-0.310034
-0.342468
-0.382301
-0.427553
-0.476643
-0.528168
-0.581141
-0.634991
-0.689624
-0.74518
-0.80167
-0.858508
-0.293987
-0.291507
-0.303847
-0.326339
-0.357565
-0.396069
-0.439899
-0.487546
-0.537662
-0.589284
-0.641839
-0.695209
-0.74951
-0.804864
-0.8612
-0.308502
-0.306551
-0.318574
-0.34031
-0.370538
-0.407863
-0.45036
-0.496633
-0.545387
-0.595695
-0.646988
-0.69914
-0.75225
-0.806376
-0.861729
-0.319402
-0.318517
-0.330332
-0.351725
-0.381154
-0.41745
-0.458702
-0.503675
-0.551118
-0.600148
-0.650199
-0.701148
-0.753139
-0.806135
-0.859844
-0.326834
-0.327157
-0.339259
-0.360448
-0.389304
-0.42464
-0.464745
-0.508489
-0.554658
-0.602439
-0.651269
-0.700993
-0.751851
-0.803934
-0.855709
-0.331127
-0.332664
-0.345377
-0.366582
-0.394957
-0.429346
-0.468384
-0.510933
-0.555842
-0.60238
-0.65001
-0.698495
-0.748128
-0.799319
-0.849593
-0.332914
-0.335583
-0.348875
-0.370129
-0.398061
-0.431585
-0.469574
-0.51091
-0.554544
-0.5998
-0.646241
-0.693505
-0.741782
-0.792209
-0.84102
-0.333109
-0.336606
-0.35005
-0.371171
-0.39864
-0.431369
-0.468273
-0.508355
-0.550671
-0.594574
-0.639788
-0.685907
-0.732599
-0.782501
-0.829617
-0.332735
-0.336381
-0.349222
-0.369902
-0.396836
-0.428732
-0.464481
-0.503228
-0.544159
-0.586598
-0.630434
-0.675601
-0.720392
-0.769939
-0.815178
-0.332613
-0.335318
-0.346668
-0.366591
-0.392852
-0.42378
-0.458255
-0.495525
-0.534954
-0.575833
-0.617953
-0.662456
-0.705049
-0.754307
-0.797513
-0.332934
-0.333373
-0.342621
-0.361557
-0.38693
-0.416682
-0.449711
-0.485291
-0.523002
-0.562314
-0.602173
-0.646257
-0.686494
-0.735474
-0.776735
-0.333064
-0.330036
-0.337389
-0.355175
-0.379328
-0.407639
-0.439019
-0.472661
-0.508252
-0.54609
-0.583102
-0.626745
-0.664664
-0.713079
-0.753122
-0.331978
-0.325076
-0.331541
-0.347843
-0.370334
-0.396907
-0.426386
-0.457877
-0.490703
-0.527127
-0.560934
-0.60377
-0.639762
-0.686751
-0.726576
-0.329177
-0.319559
-0.325808
-0.339948
-0.360303
-0.384844
-0.412054
-0.441239
-0.470533
-0.505302
-0.535928
-0.577213
-0.612276
-0.656754
-0.696954
-0.32482
-0.315418
-0.320613
-0.331902
-0.349738
-0.371957
-0.396328
-0.423013
-0.448158
-0.480562
-0.508408
-0.54695
-0.582419
-0.623832
-0.664533
-0.31998
-0.313293
-0.315847
-0.32424
-0.339314
-0.358907
-0.37966
-0.403404
-0.424124
-0.453035
-0.47891
-0.513179
-0.550183
-0.588815
-0.630471
-0.315727
-0.312108
-0.311569
-0.317744
-0.3298
-0.346412
-0.362723
-0.382688
-0.399045
-0.422952
-0.448009
-0.476594
-0.515865
-0.552069
-0.59643
-0.312494
-0.310768
-0.30855
-0.313129
-0.321912
-0.335162
-0.346419
-0.361322
-0.373636
-0.390823
-0.416174
-0.437966
-0.480674
-0.512883
-0.56372
-0.310199
-0.309021
-0.307304
-0.310381
-0.316176
-0.325759
-0.331818
-0.340077
-0.348692
-0.357379
-0.383783
-0.398836
-0.44601
-0.471944
-0.532248
-0.308474
-0.307517
-0.306987
-0.308998
-0.312838
-0.318651
-0.319914
-0.319998
-0.324866
-0.325023
-0.350452
-0.36328
-0.410825
-0.437799
-0.49873
-0.306984
-0.306293
-0.306656
-0.308629
-0.311679
-0.313989
-0.311261
-0.302817
-0.30248
-0.297236
-0.316259
-0.333428
-0.375529
-0.410886
-0.467693
-0.305488
-0.305161
-0.306229
-0.308865
-0.311805
-0.31162
-0.305449
-0.290579
-0.282317
-0.275315
-0.285743
-0.309185
-0.345201
-0.390557
-0.440054
-0.30377
-0.303888
-0.305678
-0.309075
-0.312153
-0.310906
-0.301761
-0.283464
-0.267397
-0.258875
-0.266077
-0.291482
-0.326336
-0.374986
-0.417978
-0.301652
-0.302264
-0.304741
-0.30872
-0.311971
-0.31064
-0.299598
-0.28039
-0.259051
-0.248789
-0.256157
-0.282055
-0.316223
-0.360133
-0.400507
-0.299001
-0.300092
-0.303086
-0.307407
-0.310711
-0.309643
-0.298313
-0.279714
-0.25697
-0.246437
-0.253797
-0.279637
-0.310225
-0.348257
-0.386602
-0.295754
-0.297228
-0.30046
-0.304803
-0.307907
-0.307119
-0.296935
-0.280229
-0.260035
-0.25097
-0.258048
-0.279595
-0.307163
-0.339313
-0.373729
-0.291963
-0.293675
-0.296775
-0.300688
-0.303226
-0.302406
-0.294876
-0.281931
-0.266277
-0.259938
-0.265472
-0.281631
-0.305023
-0.331911
-0.36224
-0.287832
-0.289561
-0.292147
-0.295081
-0.296652
-0.296015
-0.292828
-0.286116
-0.274178
-0.270262
-0.273085
-0.284266
-0.302917
-0.32542
-0.351613
-0.283713
-0.285253
-0.287074
-0.288762
-0.289152
-0.288814
-0.291513
-0.290558
-0.283246
-0.278627
-0.278928
-0.285979
-0.300564
-0.319254
-0.341592
-0.280007
-0.281217
-0.282076
-0.282693
-0.281917
-0.281538
-0.289688
-0.292104
-0.289038
-0.283727
-0.282109
-0.286453
-0.297757
-0.313069
-0.332125
-0.277019
-0.277875
-0.278009
-0.277532
-0.275561
-0.274796
-0.284161
-0.290479
-0.290402
-0.285592
-0.283192
-0.285647
-0.294363
-0.306897
-0.323029
-0.27487
-0.275383
-0.274897
-0.27347
-0.270073
-0.2689
-0.273643
-0.285673
-0.288342
-0.285135
-0.282597
-0.283822
-0.290567
-0.300653
-0.314259
-0.273525
-0.273716
-0.272694
-0.270385
-0.265331
-0.262891
-0.263426
-0.278303
-0.284192
-0.283035
-0.280874
-0.281312
-0.286368
-0.29437
-0.305794
-0.272855
-0.272763
-0.271266
-0.268069
-0.261883
-0.255512
-0.257318
-0.271169
-0.279082
-0.279937
-0.27834
-0.278248
-0.281918
-0.288094
-0.297564
-0.27274
-0.272421
-0.270532
-0.266596
-0.260315
-0.24876
-0.254594
-0.265913
-0.274025
-0.276227
-0.275207
-0.274814
-0.27726
-0.281817
-0.28959
-0.273092
-0.272627
-0.27048
-0.266486
-0.259555
-0.247933
-0.253481
-0.262416
-0.269575
-0.272279
-0.271668
-0.271044
-0.272441
-0.275597
-0.281812
-0.273862
-0.273346
-0.271084
-0.268612
-0.257214
-0.251638
-0.253908
-0.260195
-0.265831
-0.268319
-0.267836
-0.267009
-0.267491
-0.269405
-0.274224
-0.27502
-0.274521
-0.272506
-0.272175
-0.258058
-0.25526
-0.255288
-0.258861
-0.26268
-0.264467
-0.263836
-0.262741
-0.26241
-0.263266
-0.266788
-0.276548
-0.276008
-0.275427
-0.273549
-0.263913
-0.258842
-0.256884
-0.258043
-0.259969
-0.260756
-0.259731
-0.258287
-0.257223
-0.25715
-0.259468
-0.278431
-0.277578
-0.280012
-0.272196
-0.269305
-0.262579
-0.258476
-0.257425
-0.257522
-0.257162
-0.25557
-0.253682
-0.251929
-0.251057
-0.252253
-0.28053
-0.279304
-0.284307
-0.272455
-0.271752
-0.265321
-0.259811
-0.256828
-0.255207
-0.253648
-0.251367
-0.248956
-0.246551
-0.244966
-0.245109
-0.28268
-0.281871
-0.285946
-0.277521
-0.27371
-0.267094
-0.260659
-0.25609
-0.252915
-0.250165
-0.247124
-0.244127
-0.241091
-0.238865
-0.238035
-0.284824
-0.285849
-0.284566
-0.283772
-0.276459
-0.268296
-0.26092
-0.255087
-0.250557
-0.246671
-0.242831
-0.239205
-0.235559
-0.232738
-0.231005
-0.286848
-0.290949
-0.280991
-0.286473
-0.278647
-0.269191
-0.260772
-0.253804
-0.248076
-0.243122
-0.238474
-0.23419
-0.229949
-0.226563
-0.224006
-0.288934
-0.29541
-0.279887
-0.285734
-0.27948
-0.269663
-0.260311
-0.252268
-0.245439
-0.239482
-0.23403
-0.229078
-0.224257
-0.220332
-0.217014
-0.29151
-0.297957
-0.284138
-0.284915
-0.279184
-0.269524
-0.259521
-0.250496
-0.242633
-0.235721
-0.229481
-0.223859
-0.218474
-0.214028
-0.210015
-0.295009
-0.298215
-0.292081
-0.286314
-0.278742
-0.268845
-0.25833
-0.248455
-0.239632
-0.231813
-0.224801
-0.218519
-0.212591
-0.20765
-0.203013
-0.299891
-0.296702
-0.299368
-0.289646
-0.278973
-0.267925
-0.256751
-0.246102
-0.236401
-0.227725
-0.219969
-0.213042
-0.206593
-0.201187
-0.196012
-0.306845
-0.295053
-0.304315
-0.293391
-0.279905
-0.267057
-0.254874
-0.243415
-0.232895
-0.223421
-0.214955
-0.207408
-0.200466
-0.194636
-0.189012
-0.315821
-0.297304
-0.307142
-0.296528
-0.281062
-0.266277
-0.252788
-0.240404
-0.229082
-0.218862
-0.209728
-0.201595
-0.194194
-0.187982
-0.181986
-0.32618
-0.30542
-0.309463
-0.298619
-0.281887
-0.2654
-0.250499
-0.237082
-0.224944
-0.214016
-0.204259
-0.195579
-0.187757
-0.181206
-0.174891
-0.33685
-0.318324
-0.312824
-0.299782
-0.28199
-0.26415
-0.247926
-0.233441
-0.220471
-0.20886
-0.19852
-0.189337
-0.181132
-0.174273
-0.167675
-0.346171
-0.332109
-0.317479
-0.300425
-0.281248
-0.262306
-0.244946
-0.229444
-0.21565
-0.203376
-0.192487
-0.18284
-0.17429
-0.167157
-0.160312
-0.352669
-0.343096
-0.322235
-0.300797
-0.279757
-0.25977
-0.241453
-0.225038
-0.210459
-0.197547
-0.186139
-0.176065
-0.167203
-0.159835
-0.152794
-0.355706
-0.349954
-0.325659
-0.300726
-0.277661
-0.256563
-0.237389
-0.22017
-0.204868
-0.191354
-0.179455
-0.168983
-0.159841
-0.152281
-0.145104
-0.35613
-0.353027
-0.327246
-0.299936
-0.275019
-0.252751
-0.232744
-0.214802
-0.19885
-0.184779
-0.17242
-0.161574
-0.152176
-0.144452
-0.137194
-0.355389
-0.353447
-0.327081
-0.29825
-0.271803
-0.248374
-0.227532
-0.208915
-0.192375
-0.177799
-0.165016
-0.153827
-0.144187
-0.136307
-0.128984
-0.35462
-0.352366
-0.325484
-0.295627
-0.267952
-0.243435
-0.221761
-0.202499
-0.185424
-0.170394
-0.15723
-0.145732
-0.13587
-0.127836
-0.120368
-0.354433
-0.350569
-0.322798
-0.292099
-0.263412
-0.237908
-0.215429
-0.195546
-0.177978
-0.162543
-0.149043
-0.137281
-0.127241
-0.119085
-0.111223
-0.354952
-0.348452
-0.319286
-0.287727
-0.258148
-0.231753
-0.208513
-0.188042
-0.170023
-0.154228
-0.14044
-0.128467
-0.118324
-0.110127
-0.10147
-0.355975
-0.346167
-0.315111
-0.28256
-0.252129
-0.224924
-0.200982
-0.179967
-0.161541
-0.145436
-0.131409
-0.119287
-0.109139
-0.100989
-0.091202
-0.357097
-0.343722
-0.310346
-0.276617
-0.245326
-0.217372
-0.192797
-0.171295
-0.152519
-0.136162
-0.121953
-0.109748
-0.0997046
-0.091557
-0.0807673
-0.357829
-0.340978
-0.304967
-0.26988
-0.237698
-0.209051
-0.183917
-0.162001
-0.142945
-0.126413
-0.112092
-0.0998763
-0.0900292
-0.0815637
-0.0704987
-0.357743
-0.337578
-0.298855
-0.262296
-0.229201
-0.199918
-0.174313
-0.15207
-0.132815
-0.116204
-0.101852
-0.0897455
-0.0800041
-0.0710895
-0.0603141
-0.356476
-0.333089
-0.291829
-0.253784
-0.219792
-0.189943
-0.163971
-0.141507
-0.12214
-0.105537
-0.0912301
-0.0792916
-0.0695872
-0.0603024
-0.0500939
-0.353701
-0.327205
-0.2837
-0.244255
-0.20943
-0.179112
-0.152898
-0.130328
-0.110954
-0.0943643
-0.080207
-0.0684728
-0.0587697
-0.0493152
-0.0397533
-0.349162
-0.319716
-0.274295
-0.233625
-0.198086
-0.167435
-0.141109
-0.118527
-0.0991957
-0.0827066
-0.0687735
-0.0572709
-0.0475868
-0.0381631
-0.0292621
-0.342665
-0.310483
-0.26348
-0.221825
-0.185759
-0.154934
-0.128587
-0.106063
-0.0868598
-0.0705731
-0.0569289
-0.0456905
-0.0360938
-0.0268354
-0.0186227
-0.334087
-0.299442
-0.251151
-0.208813
-0.172468
-0.141582
-0.115291
-0.0929276
-0.0739555
-0.0579706
-0.0446803
-0.0337477
-0.0243196
-0.0153201
-0.00784344
-0.323361
-0.286602
-0.237234
-0.19458
-0.158192
-0.127334
-0.101219
-0.0791295
-0.0604965
-0.0449103
-0.0320416
-0.0214609
-0.0122715
-0.00360983
0.00306824
-0.310472
-0.27203
-0.221707
-0.179121
-0.14285
-0.112191
-0.0863833
-0.064684
-0.0465004
-0.0314088
-0.0190308
-0.00884696
4.86028e-05
0.00830249
0.0140906
-0.295437
-0.255777
-0.204653
-0.162347
-0.126438
-0.0961661
-0.0708041
-0.0496131
-0.031988
-0.0174848
-0.00566454
0.00407939
0.0126282
0.0203984
0.0251778
-0.278316
-0.237768
-0.186195
-0.144273
-0.108971
-0.0792831
-0.0545091
-0.0339442
-0.0169835
-0.0031561
0.00804695
0.0173069
0.025433
0.0326022
0.0362774
-0.259216
-0.217757
-0.166504
-0.125027
-0.0904977
-0.0615731
-0.0375311
-0.0177095
-0.00151292
0.011563
0.0221021
0.0308287
0.03841
0.0447738
0.0472959
-0.238284
-0.195592
-0.145675
-0.104751
-0.0710911
-0.0430789
-0.0199078
-0.000944611
0.0143964
0.0266608
0.0365034
0.044637
0.0515012
0.0567438
0.0579227
-0.215637
-0.17157
-0.123575
-0.0835359
-0.0508377
-0.0238565
-0.00168378
0.0163115
0.0307161
0.042124
0.0512444
0.0587064
0.0646433
0.0683412
0.0675723
-0.191269
-0.146171
-0.100201
-0.0614194
-0.0298175
-0.00397223
0.0170896
0.0340173
0.0474159
0.057931
0.0662936
0.0729732
0.0777428
0.0794346
0.0760303
-0.165125
-0.119858
-0.0756949
-0.0384327
-0.00809867
0.0165035
0.0363547
0.0521281
0.064462
0.0740465
0.0815836
0.0873256
0.0906819
0.0901505
0.0844424
-0.137378
-0.0927342
-0.050236
-0.0146427
0.0142528
0.0374994
0.0560498
0.0705957
0.0818141
0.0904184
0.0970223
0.101637
0.103402
0.101079
0.095211
-0.108269
-0.0647897
-0.0239792
0.00984808
0.0371625
0.0589436
0.076111
0.0893672
0.099422
0.106981
0.112523
0.11584
0.116006
0.112536
0.11036
-0.078025
-0.0360634
0.00294761
0.0349233
0.0605447
0.0807615
0.0964721
0.108384
0.117225
0.123661
0.128024
0.129969
0.128734
0.124776
0.12511
-0.0468512
-0.00664728
0.0304277
0.0604662
0.0843051
0.102875
0.117064
0.127581
0.135155
0.140389
0.143495
0.144098
0.141743
0.137732
0.138977
-0.0149394
0.0233299
0.0583435
0.0863626
0.108345
0.1252
0.137813
0.146891
0.153145
0.157111
0.158924
0.158259
0.154966
0.150904
0.152047
0.0175286
0.0537241
0.0865726
0.112499
0.132565
0.147651
0.158643
0.16624
0.171127
0.173781
0.174303
0.172458
0.168358
0.164092
0.16455
0.0503748
0.0843844
0.114988
0.138764
0.156863
0.17014
0.179476
0.185557
0.18904
0.190358
0.189603
0.186628
0.181733
0.177067
0.176693
0.0834258
0.11516
0.14346
0.165042
0.181139
0.192577
0.20023
0.20477
0.206827
0.206801
0.204794
0.200734
0.19504
0.189804
0.18852
0.116511
0.145902
0.171859
0.19122
0.205292
0.214873
0.220826
0.223809
0.224427
0.223058
0.219812
0.214676
0.208151
0.202275
0.20008
0.149463
0.176464
0.200055
0.217184
0.22922
0.236936
0.241183
0.242603
0.241782
0.239081
0.234619
0.228422
0.221043
0.214452
0.211339
0.182118
0.206703
0.227923
0.242823
0.252825
0.258679
0.261223
0.261085
0.258831
0.254809
0.249139
0.241886
0.233653
0.226342
0.222295
0.214319
0.236479
0.255338
0.268026
0.276009
0.280015
0.28087
0.279187
0.275516
0.270192
0.263337
0.255042
0.245943
0.23788
0.232906
0.245911
0.265659
0.28218
0.292686
0.298676
0.300858
0.300046
0.29684
0.291773
0.285166
0.277144
0.267829
0.257888
0.249073
0.243149
0.276744
0.294112
0.308333
0.316699
0.320733
0.321125
0.318679
0.31398
0.307548
0.299686
0.290525
0.280209
0.269431
0.259855
0.252992
0.306677
0.321711
0.333684
0.339964
0.34209
0.340737
0.336697
0.330542
0.322776
0.313692
0.303425
0.292146
0.280558
0.270219
0.262407
0.335573
0.348338
0.358125
0.362385
0.362661
0.359617
0.354032
0.346467
0.337409
0.327142
0.315804
0.30359
0.291213
0.28012
0.271369
0.3633
0.373877
0.381555
0.383869
0.382363
0.37769
0.370616
0.361692
0.351389
0.339983
0.327621
0.314519
0.301378
0.289534
0.279853
0.389735
0.398219
0.403875
0.404329
0.401118
0.394886
0.386389
0.376164
0.36467
0.352174
0.338833
0.324882
0.311012
0.298433
0.287838
0.414763
0.421263
0.424995
0.423684
0.418853
0.41114
0.40129
0.389828
0.377202
0.363674
0.349409
0.334657
0.320088
0.30679
0.295305
0.438272
0.442912
0.444827
0.441854
0.435497
0.426389
0.415264
0.402635
0.388941
0.37444
0.359307
0.343807
0.328577
0.314584
0.302237
0.460163
0.463077
0.463293
0.458769
0.450987
0.440575
0.428258
0.41454
0.399849
0.38444
0.368501
0.352304
0.336451
0.321791
0.30862
0.48034
0.481678
0.48032
0.474363
0.465263
0.453646
0.440226
0.425499
0.409884
0.393638
0.376958
0.36012
0.343688
0.328394
0.31444
0.498717
0.49864
0.49584
0.488576
0.478271
0.465551
0.451123
0.435474
0.419015
0.402005
0.38465
0.367231
0.350264
0.334376
0.319689
0.515216
0.513901
0.509797
0.501353
0.48996
0.476246
0.460909
0.444429
0.42721
0.409512
0.391553
0.373612
0.35616
0.339721
0.324356
0.529771
0.527401
0.522137
0.512643
0.500288
0.485693
0.469551
0.452333
0.43444
0.416135
0.397645
0.379245
0.361358
0.344416
0.328437
0.542338
0.53908
0.532808
0.522404
0.509213
0.493855
0.477015
0.459159
0.440682
0.421852
0.402905
0.384109
0.365841
0.348453
0.331928
0.552887
0.548878
0.541767
0.530596
0.516703
0.500703
0.483276
0.464883
0.445915
0.426645
0.407315
0.388189
0.369597
0.351821
0.334827
0.561379
0.556756
0.548975
0.537187
0.522729
0.506211
0.488312
0.469485
0.450122
0.430498
0.410862
0.39147
0.372614
0.354516
0.337138
0.567781
0.562689
0.554404
0.542152
0.527267
0.51036
0.492104
0.472951
0.45329
0.433398
0.413532
0.393941
0.374883
0.356536
0.338864
0.572064
0.566655
0.558034
0.545473
0.530303
0.513134
0.494639
0.475267
0.455407
0.435337
0.415318
0.395593
0.376398
0.357881
0.340011
0.57421
0.568641
0.559853
0.547136
0.531823
0.514524
0.495909
0.476428
0.456467
0.436308
0.416212
0.39642
0.377156
0.358552
0.340583
0.57421
0.568641
0.559853
0.547136
0.531823
0.514524
0.495909
0.476428
0.456467
0.436308
0.416212
0.39642
0.377156
0.358552
0.340583
0.572064
0.566655
0.558034
0.545473
0.530302
0.513134
0.494639
0.475267
0.455407
0.435337
0.415318
0.395593
0.376398
0.357881
0.340011
0.567781
0.562689
0.554404
0.542152
0.527267
0.51036
0.492104
0.472951
0.45329
0.433398
0.413532
0.393941
0.374883
0.356536
0.338864
0.561379
0.556756
0.548974
0.537187
0.522728
0.506211
0.488312
0.469485
0.450122
0.430498
0.410862
0.39147
0.372614
0.354516
0.337137
0.552886
0.548877
0.541766
0.530596
0.516703
0.500703
0.483276
0.464883
0.445915
0.426645
0.407315
0.388189
0.369597
0.351821
0.334827
0.542338
0.539079
0.532808
0.522404
0.509213
0.493855
0.477015
0.459159
0.440682
0.421852
0.402904
0.384109
0.365841
0.348452
0.331927
0.52977
0.527401
0.522136
0.512643
0.500287
0.485693
0.46955
0.452333
0.43444
0.416134
0.397645
0.379244
0.361357
0.344416
0.328437
0.515216
0.513901
0.509797
0.501352
0.48996
0.476246
0.460909
0.444429
0.427209
0.409511
0.391553
0.373612
0.35616
0.33972
0.324356
0.498717
0.49864
0.49584
0.488576
0.47827
0.46555
0.451122
0.435474
0.419015
0.402004
0.38465
0.36723
0.350264
0.334375
0.319688
0.48034
0.481677
0.480319
0.474363
0.465263
0.453645
0.440225
0.425499
0.409884
0.393637
0.376957
0.36012
0.343688
0.328394
0.31444
0.460162
0.463077
0.463293
0.458769
0.450987
0.440575
0.428257
0.41454
0.399848
0.38444
0.368501
0.352303
0.336451
0.321791
0.308619
0.438272
0.442911
0.444827
0.441853
0.435497
0.426389
0.415263
0.402635
0.38894
0.374439
0.359307
0.343806
0.328577
0.314583
0.302237
0.414762
0.421262
0.424994
0.423683
0.418852
0.411139
0.401289
0.389827
0.377201
0.363673
0.349408
0.334657
0.320087
0.306789
0.295304
0.389735
0.398218
0.403875
0.404329
0.401118
0.394886
0.386389
0.376163
0.364669
0.352173
0.338832
0.324881
0.311012
0.298433
0.287837
0.363299
0.373876
0.381554
0.383868
0.382362
0.377689
0.370616
0.361691
0.351388
0.339983
0.327621
0.314518
0.301378
0.289533
0.279852
0.335572
0.348337
0.358124
0.362384
0.36266
0.359616
0.354031
0.346466
0.337408
0.327141
0.315803
0.30359
0.291212
0.280119
0.271368
0.306676
0.32171
0.333683
0.339963
0.342089
0.340736
0.336696
0.330541
0.322775
0.313691
0.303424
0.292145
0.280557
0.270219
0.262406
0.276743
0.294111
0.308332
0.316698
0.320732
0.321124
0.318678
0.313979
0.307547
0.299685
0.290524
0.280208
0.26943
0.259854
0.252991
0.245909
0.265658
0.282179
0.292685
0.298675
0.300857
0.300045
0.296839
0.291772
0.285165
0.277143
0.267828
0.257887
0.249072
0.243148
0.214318
0.236478
0.255337
0.268025
0.276008
0.280014
0.280868
0.279186
0.275515
0.270191
0.263336
0.255041
0.245942
0.237879
0.232904
0.182117
0.206701
0.227922
0.242822
0.252824
0.258678
0.261222
0.261084
0.25883
0.254807
0.249138
0.241885
0.233652
0.226341
0.222294
0.149461
0.176462
0.200054
0.217183
0.229219
0.236935
0.241182
0.242602
0.241781
0.23908
0.234617
0.228421
0.221042
0.214451
0.211338
0.116509
0.1459
0.171857
0.191218
0.20529
0.214871
0.220824
0.223807
0.224425
0.223057
0.219811
0.214675
0.20815
0.202274
0.200079
0.0834243
0.115159
0.143458
0.16504
0.181138
0.192576
0.200228
0.204769
0.206825
0.206799
0.204792
0.200733
0.195038
0.189802
0.188519
0.0503732
0.0843828
0.114986
0.138762
0.156862
0.170139
0.179474
0.185556
0.189039
0.190357
0.189602
0.186627
0.181732
0.177065
0.176692
0.0175269
0.0537224
0.086571
0.112498
0.132563
0.14765
0.158641
0.166239
0.171125
0.173779
0.174301
0.172457
0.168356
0.164091
0.164549
-0.0149412
0.0233282
0.0583418
0.0863608
0.108343
0.125198
0.137811
0.146889
0.153143
0.157109
0.158922
0.158257
0.154964
0.150903
0.152045
-0.0468531
-0.00664916
0.0304258
0.0604644
0.0843033
0.102873
0.117062
0.12758
0.135154
0.140387
0.143493
0.144097
0.141741
0.13773
0.138975
-0.078027
-0.0360654
0.00294565
0.0349214
0.0605428
0.0807596
0.0964702
0.108382
0.117223
0.123659
0.128022
0.129968
0.128732
0.124774
0.125108
-0.108271
-0.0647918
-0.0239813
0.00984606
0.0371605
0.0589416
0.0761091
0.0893653
0.0994201
0.106979
0.112521
0.115839
0.116004
0.112534
0.110358
-0.137381
-0.0927364
-0.0502381
-0.0146448
0.0142507
0.0374973
0.0560478
0.0705937
0.0818122
0.0904165
0.0970204
0.101635
0.1034
0.101077
0.0952092
-0.165127
-0.11986
-0.0756972
-0.038435
-0.00810086
0.0165013
0.0363526
0.052126
0.06446
0.0740445
0.0815816
0.0873236
0.09068
0.0901487
0.0844406
-0.191272
-0.146173
-0.100203
-0.0614218
-0.0298198
-0.00397447
0.0170874
0.0340151
0.0474137
0.057929
0.0662916
0.0729712
0.0777408
0.0794327
0.0760284
-0.21564
-0.171572
-0.123577
-0.0835384
-0.0508401
-0.0238589
-0.00168607
0.0163093
0.0307139
0.0421218
0.0512423
0.0587044
0.0646413
0.0683392
0.0675704
-0.238287
-0.195594
-0.145678
-0.104754
-0.0710936
-0.0430813
-0.0199102
-0.00094694
0.0143941
0.0266586
0.0365012
0.0446349
0.0514991
0.0567418
0.0579207
-0.259219
-0.21776
-0.166507
-0.12503
-0.0905003
-0.0615757
-0.0375336
-0.0177119
-0.00151528
0.0115607
0.0220998
0.0308265
0.0384078
0.0447717
0.0472939
-0.278319
-0.237771
-0.186198
-0.144276
-0.108974
-0.0792857
-0.0545117
-0.0339467
-0.016986
-0.00315849
0.00804461
0.0173046
0.0254308
0.0326
0.0362753
-0.29544
-0.255781
-0.204656
-0.16235
-0.12644
-0.0961689
-0.0708068
-0.0496157
-0.0319905
-0.0174873
-0.00566696
0.00407703
0.0126259
0.0203962
0.0251756
-0.310475
-0.272033
-0.22171
-0.179124
-0.142853
-0.112194
-0.0863861
-0.0646867
-0.046503
-0.0314113
-0.0190333
-0.00884939
4.62308e-05
0.00830018
0.0140883
-0.323365
-0.286606
-0.237237
-0.194583
-0.158195
-0.127337
-0.101222
-0.0791323
-0.0604992
-0.044913
-0.0320442
-0.0214634
-0.012274
-0.00361221
0.00306593
-0.334091
-0.299446
-0.251155
-0.208816
-0.172472
-0.141585
-0.115294
-0.0929305
-0.0739582
-0.0579733
-0.0446829
-0.0337502
-0.0243221
-0.0153226
-0.00784582
-0.342669
-0.310487
-0.263484
-0.221829
-0.185762
-0.154937
-0.12859
-0.106066
-0.0868626
-0.0705759
-0.0569316
-0.0456931
-0.0360964
-0.0268379
-0.0186251
-0.349166
-0.319719
-0.274299
-0.233629
-0.19809
-0.167439
-0.141112
-0.11853
-0.0991987
-0.0827095
-0.0687763
-0.0572736
-0.0475894
-0.0381657
-0.0292647
-0.353705
-0.327209
-0.283703
-0.244259
-0.209434
-0.179115
-0.152901
-0.130331
-0.110957
-0.0943672
-0.0802098
-0.0684756
-0.0587724
-0.0493178
-0.0397558
-0.35648
-0.333093
-0.291833
-0.253787
-0.219796
-0.189946
-0.163975
-0.14151
-0.122144
-0.10554
-0.091233
-0.0792945
-0.06959
-0.0603051
-0.0500965
-0.357748
-0.337582
-0.298859
-0.262299
-0.229205
-0.199922
-0.174317
-0.152074
-0.132818
-0.116207
-0.101855
-0.0897484
-0.080007
-0.0710922
-0.0603168
-0.357834
-0.340983
-0.304971
-0.269884
-0.237702
-0.209054
-0.183921
-0.162004
-0.142948
-0.126416
-0.112095
-0.0998793
-0.0900321
-0.0815666
-0.0705014
-0.357102
-0.343726
-0.31035
-0.276621
-0.24533
-0.217376
-0.1928
-0.171298
-0.152522
-0.136165
-0.121956
-0.109751
-0.0997076
-0.0915599
-0.0807701
-0.35598
-0.346172
-0.315115
-0.282564
-0.252133
-0.224927
-0.200986
-0.17997
-0.161544
-0.145439
-0.131412
-0.11929
-0.109142
-0.100992
-0.0912049
-0.354957
-0.348457
-0.31929
-0.287731
-0.258152
-0.231757
-0.208517
-0.188046
-0.170026
-0.154232
-0.140443
-0.12847
-0.118327
-0.11013
-0.101473
-0.354438
-0.350574
-0.322803
-0.292103
-0.263416
-0.237912
-0.215432
-0.195549
-0.177982
-0.162547
-0.149047
-0.137284
-0.127244
-0.119088
-0.111226
-0.354625
-0.352371
-0.325489
-0.295631
-0.267956
-0.243439
-0.221765
-0.202503
-0.185428
-0.170398
-0.157233
-0.145735
-0.135873
-0.127839
-0.120371
-0.355393
-0.353452
-0.327086
-0.298255
-0.271807
-0.248378
-0.227536
-0.208919
-0.192379
-0.177803
-0.16502
-0.15383
-0.14419
-0.13631
-0.128987
-0.356135
-0.353032
-0.327251
-0.29994
-0.275024
-0.252755
-0.232748
-0.214806
-0.198853
-0.184783
-0.172424
-0.161578
-0.152179
-0.144456
-0.137197
-0.355711
-0.349959
-0.325664
-0.300731
-0.277665
-0.256567
-0.237393
-0.220174
-0.204872
-0.191358
-0.179459
-0.168986
-0.159845
-0.152285
-0.145107
-0.352674
-0.343101
-0.32224
-0.300801
-0.279761
-0.259774
-0.241457
-0.225042
-0.210463
-0.197551
-0.186142
-0.176069
-0.167207
-0.159838
-0.152797
-0.346176
-0.332114
-0.317484
-0.30043
-0.281253
-0.26231
-0.244951
-0.229448
-0.215654
-0.20338
-0.192491
-0.182844
-0.174294
-0.167161
-0.160315
-0.336856
-0.31833
-0.312829
-0.299787
-0.281995
-0.264155
-0.24793
-0.233445
-0.220475
-0.208864
-0.198524
-0.18934
-0.181135
-0.174276
-0.167678
-0.326186
-0.305425
-0.309468
-0.298624
-0.281892
-0.265405
-0.250503
-0.237086
-0.224948
-0.21402
-0.204263
-0.195583
-0.187761
-0.181209
-0.174895
-0.315827
-0.297309
-0.307147
-0.296533
-0.281067
-0.266281
-0.252793
-0.240408
-0.229086
-0.218866
-0.209732
-0.201599
-0.194198
-0.187986
-0.18199
-0.30685
-0.295058
-0.30432
-0.293396
-0.27991
-0.267061
-0.254879
-0.243419
-0.232899
-0.223425
-0.214959
-0.207412
-0.20047
-0.194639
-0.189015
-0.299896
-0.296707
-0.299373
-0.289651
-0.278978
-0.267929
-0.256755
-0.246107
-0.236406
-0.22773
-0.219973
-0.213046
-0.206597
-0.20119
-0.196015
-0.295014
-0.29822
-0.292086
-0.286319
-0.278747
-0.26885
-0.258334
-0.24846
-0.239637
-0.231817
-0.224806
-0.218523
-0.212595
-0.207654
-0.203017
-0.291516
-0.297962
-0.284144
-0.28492
-0.279189
-0.269529
-0.259525
-0.250501
-0.242637
-0.235726
-0.229485
-0.223863
-0.218478
-0.214032
-0.210019
-0.288939
-0.295415
-0.279892
-0.285739
-0.279485
-0.269668
-0.260316
-0.252272
-0.245443
-0.239486
-0.234035
-0.229082
-0.224261
-0.220336
-0.217017
-0.286853
-0.290954
-0.280996
-0.286478
-0.278652
-0.269196
-0.260777
-0.253809
-0.24808
-0.243126
-0.238478
-0.234194
-0.229953
-0.226567
-0.22401
-0.284829
-0.285855
-0.284571
-0.283778
-0.276464
-0.268301
-0.260925
-0.255092
-0.250562
-0.246676
-0.242836
-0.239209
-0.235563
-0.232742
-0.231009
-0.282686
-0.281876
-0.285951
-0.277526
-0.273715
-0.267099
-0.260664
-0.256095
-0.25292
-0.25017
-0.247128
-0.244132
-0.241095
-0.238869
-0.23804
-0.280536
-0.27931
-0.284313
-0.272461
-0.271757
-0.265326
-0.259816
-0.256833
-0.255212
-0.253653
-0.251371
-0.24896
-0.246555
-0.24497
-0.245113
-0.278436
-0.277583
-0.280017
-0.272202
-0.26931
-0.262584
-0.258481
-0.25743
-0.257527
-0.257166
-0.255575
-0.253687
-0.251934
-0.251061
-0.252258
-0.276553
-0.276013
-0.275433
-0.273555
-0.263919
-0.258848
-0.25689
-0.258048
-0.259973
-0.260761
-0.259736
-0.258291
-0.257227
-0.257154
-0.259472
-0.275025
-0.274526
-0.272511
-0.272181
-0.258063
-0.255266
-0.255293
-0.258867
-0.262685
-0.264472
-0.263841
-0.262746
-0.262415
-0.263271
-0.266792
-0.273867
-0.273351
-0.271089
-0.268618
-0.257219
-0.251644
-0.253914
-0.2602
-0.265836
-0.268324
-0.26784
-0.267013
-0.267496
-0.26941
-0.274228
-0.273098
-0.272632
-0.270486
-0.266491
-0.25956
-0.247939
-0.253487
-0.262421
-0.26958
-0.272283
-0.271673
-0.271049
-0.272446
-0.275602
-0.281817
-0.272745
-0.272427
-0.270537
-0.266601
-0.260321
-0.248766
-0.2546
-0.265918
-0.27403
-0.276231
-0.275212
-0.274819
-0.277265
-0.281822
-0.289594
-0.27286
-0.272768
-0.271271
-0.268074
-0.261888
-0.255517
-0.257324
-0.271174
-0.279086
-0.279941
-0.278344
-0.278252
-0.281923
-0.288099
-0.297569
-0.27353
-0.273721
-0.272699
-0.27039
-0.265337
-0.262896
-0.263431
-0.278307
-0.284197
-0.283039
-0.280878
-0.281317
-0.286373
-0.294375
-0.305799
-0.274875
-0.275388
-0.274902
-0.273475
-0.270078
-0.268905
-0.273648
-0.285677
-0.288346
-0.285139
-0.282602
-0.283827
-0.290572
-0.300658
-0.314264
-0.277025
-0.27788
-0.278014
-0.277537
-0.275566
-0.274801
-0.284165
-0.290483
-0.290406
-0.285596
-0.283197
-0.285653
-0.294369
-0.306903
-0.323034
-0.280012
-0.281223
-0.282081
-0.282698
-0.281922
-0.281543
-0.289692
-0.292108
-0.289042
-0.283732
-0.282114
-0.286458
-0.297762
-0.313074
-0.33213
-0.283718
-0.285258
-0.287079
-0.288767
-0.289157
-0.288819
-0.291517
-0.290562
-0.28325
-0.278631
-0.278933
-0.285985
-0.30057
-0.31926
-0.341598
-0.287837
-0.289566
-0.292152
-0.295085
-0.296657
-0.29602
-0.292832
-0.28612
-0.274182