/*--------------------------------*- C++ -*----------------------------------*\
  =========                 |
  \\      /  F ield         | OpenFOAM: The Open Source CFD Toolbox
   \\    /   O peration     | Website:  https://openfoam.org
    \\  /    A nd           | Version:  7
     \\/     M anipulation  |
\*---------------------------------------------------------------------------*/
FoamFile
{
    version     2.0;
    format      ascii;
    class       surfaceScalarField;
    location    "11.9988";
    object      phi;
}
// * * * * * * * * * * * * * * * * * * * * * * * * * * * * * * * * * * * * * //

dimensions      [0 3 -1 0 0 0 0];

internalField   nonuniform List<scalar> 
37105
(
-1.38419e-05
1.38423e-05
-4.20313e-10
-3.16352e-05
1.77939e-05
-6.98005e-10
-4.98077e-05
1.81733e-05
-7.77749e-10
-6.85488e-05
1.8742e-05
-8.33873e-10
-8.78446e-05
1.92967e-05
-8.99139e-10
-0.000107702
1.98587e-05
-9.9945e-10
-0.000128122
2.04207e-05
-1.15934e-09
-0.000149117
2.09964e-05
-1.39635e-09
-0.000170734
2.16194e-05
-1.72589e-09
-0.000193058
2.2326e-05
-2.15518e-09
-0.000216211
2.31556e-05
-2.68713e-09
-0.000240319
2.41111e-05
-3.31589e-09
-0.000265498
2.51833e-05
-4.02895e-09
-0.000291864
2.6371e-05
-4.80094e-09
2.77357e-05
-5.58746e-09
-0.000319595
-1.36181e-05
2.74604e-05
-3.11954e-05
3.53713e-05
-4.915e-05
3.61278e-05
-6.76475e-05
3.72396e-05
-8.66686e-05
3.83178e-05
-0.000106211
3.94006e-05
-0.000126264
4.04744e-05
-0.000146833
4.15652e-05
-0.000167952
4.27386e-05
-0.000189691
4.40646e-05
-0.000212159
4.56233e-05
-0.000235474
4.74262e-05
-0.00025975
4.94594e-05
-0.000285088
5.17096e-05
5.42739e-05
-0.000311627
-1.31758e-05
4.06361e-05
-3.03279e-05
5.25235e-05
-4.78549e-05
5.36548e-05
-6.58786e-05
5.52633e-05
-8.43704e-05
5.68096e-05
-0.00010331
5.83397e-05
-0.000122671
5.98363e-05
-0.000142443
6.13364e-05
-0.000162639
6.29347e-05
-0.000183306
6.47319e-05
-0.000204533
6.68508e-05
-0.00022643
6.93225e-05
-0.000249106
7.21357e-05
-0.000272645
7.52483e-05
7.87493e-05
-0.00029712
-1.25265e-05
5.31627e-05
-2.90553e-05
6.90522e-05
-4.59594e-05
7.05589e-05
-6.33027e-05
7.26066e-05
-8.10446e-05
7.45515e-05
-9.91411e-05
7.64362e-05
-0.000117549
7.82445e-05
-0.000136236
8.00234e-05
-0.000155197
8.18955e-05
-0.000174454
8.3989e-05
-0.000194076
8.64724e-05
-0.000214162
8.94084e-05
-0.000234826
9.28001e-05
-0.000256141
9.65628e-05
0.000100735
-0.000278126
-1.16921e-05
6.48547e-05
-2.74069e-05
8.4767e-05
-4.35112e-05
8.66633e-05
-5.99978e-05
8.90931e-05
-7.68097e-05
9.13635e-05
-9.3878e-05
9.35045e-05
-0.000111141
9.55078e-05
-0.000128549
9.7431e-05
-0.000146078
9.94248e-05
-0.000163732
0.000101643
-0.000181562
0.000104302
-0.00019966
0.000107507
-0.000218148
0.000111288
-0.000237102
0.000115516
0.000120138
-0.000256505
-1.07184e-05
7.55731e-05
-2.54139e-05
9.94626e-05
-4.05634e-05
0.000101813
-5.60495e-05
0.000104579
-7.17932e-05
0.000107107
-8.77003e-05
0.000109412
-0.000103693
0.000111501
-0.000119707
0.000113445
-0.000135706
0.000115424
-0.000151682
0.000117619
-0.000167671
0.000120291
-0.000183758
0.000123594
-0.000200069
0.000127599
-0.000216689
0.000132136
0.000137024
-0.000233575
-9.55051e-06
8.51236e-05
-2.30896e-05
0.000113002
-3.71694e-05
0.000115893
-5.15453e-05
0.000118955
-6.61201e-05
0.000121682
-8.07783e-05
0.00012407
-9.54292e-05
0.000126152
-0.000109997
0.000128013
-0.000124441
0.000129868
-0.000138741
0.000131919
-0.000152923
0.000134473
-0.000167055
0.000137725
-0.000181254
0.000141798
-0.000195611
0.000146493
0.000151471
-0.000210059
-8.20627e-06
9.33299e-05
-2.04576e-05
0.000125253
-3.33811e-05
0.000128816
-4.65676e-05
0.000132142
-5.99049e-05
0.000135019
-7.3263e-05
0.000137428
-8.65411e-05
0.00013943
-9.96549e-05
0.000141126
-0.000112557
0.00014277
-0.000125223
0.000144586
-0.000137661
0.000146911
-0.00014991
0.000149974
-0.000162059
0.000153947
-0.000174197
0.00015863
0.000163515
-0.00018624
-6.70751e-06
0.000100037
-1.75488e-05
0.000136094
-2.92503e-05
0.000140518
-4.11916e-05
0.000144083
-5.32481e-05
0.000147076
-6.52817e-05
0.000149461
-7.71827e-05
0.000151331
-8.8858e-05
0.000152802
-0.000100252
0.000154164
-0.000111332
0.000155665
-0.000122084
0.000157663
-0.000132508
0.000160399
-0.000142646
0.000164085
-0.000152571
0.000168555
0.000173171
-0.000162227
-5.06536e-06
0.000105103
-1.4394e-05
0.000145423
-2.4828e-05
0.000150951
-3.54843e-05
0.000154739
-4.62346e-05
0.000157826
-5.69384e-05
0.000160165
-6.74744e-05
0.000161867
-7.77375e-05
0.000163065
-8.76607e-05
0.000164087
-9.7196e-05
0.0001652
-0.000106308
0.000166775
-0.000114953
0.000169044
-0.000123107
0.00017224
-0.000130814
0.000176261
0.00018045
-0.000138093
-3.28101e-06
0.000108384
-1.10313e-05
0.000153173
-2.01588e-05
0.000160079
-2.95012e-05
0.000164082
-3.89364e-05
0.000167261
-4.83169e-05
0.000169546
-5.75073e-05
0.000171057
-6.63889e-05
0.000171946
-7.48767e-05
0.000172575
-8.29015e-05
0.000173225
-9.04046e-05
0.000174278
-9.73068e-05
0.000175946
-0.000103512
0.000178445
-0.000108987
0.000181737
0.000185336
-0.000113873
-1.32365e-06
0.000109707
-7.50734e-06
0.000159357
-1.52827e-05
0.000167854
-2.32916e-05
0.00017209
-3.14134e-05
0.000175383
-3.94859e-05
0.000177618
-4.7354e-05
0.000178925
-5.48834e-05
0.000179476
-6.19679e-05
0.00017966
-6.85102e-05
0.000179768
-7.4423e-05
0.000180191
-7.96105e-05
0.000181133
-8.3923e-05
0.000182757
-8.71781e-05
0.000184992
0.000187723
-8.95649e-05
6.75396e-07
0.000109032
-3.87844e-06
0.000163911
-1.02188e-05
0.000174195
-1.68968e-05
0.000178768
-2.37192e-05
0.000182206
-3.05016e-05
0.000184401
-3.70702e-05
0.000185494
-4.32754e-05
0.000185681
-4.89856e-05
0.00018537
-5.4073e-05
0.000184855
-5.8411e-05
0.000184529
-6.1888e-05
0.00018461
-6.43716e-05
0.000185241
-6.54981e-05
0.000186118
0.000187297
-6.50715e-05
2.52561e-06
0.000106506
-2.50613e-07
0.000166687
-4.99719e-06
0.000178941
-1.03686e-05
0.00018414
-1.58983e-05
0.000187735
-2.14156e-05
0.000189918
-2.6707e-05
0.000190785
-3.16118e-05
0.000190586
-3.59714e-05
0.000189729
-3.96296e-05
0.000188513
-4.24134e-05
0.000187313
-4.41603e-05
0.000186357
-4.47874e-05
0.000185868
-4.40058e-05
0.000185337
0.000183773
-4.04819e-05
4.53802e-06
0.000101968
3.82958e-06
0.000167395
3.09114e-07
0.000182462
-3.75964e-06
0.000188209
-8.00341e-06
0.000191979
-1.2276e-05
0.00019419
-1.63068e-05
0.000194816
-1.99346e-05
0.000194214
-2.29637e-05
0.000192759
-2.52129e-05
0.000190762
-2.64742e-05
0.000188574
-2.64974e-05
0.00018638
-2.51163e-05
0.000184487
-2.24646e-05
0.000182685
0.000178032
-1.67233e-05
6.60962e-06
9.53588e-05
7.87045e-06
0.000166135
5.8991e-06
0.000184433
2.99128e-06
0.000191116
-1.77114e-07
0.000195147
-3.14505e-06
0.000197158
-5.9314e-06
0.000197602
-8.29438e-06
0.000196577
-1.00087e-05
0.000194473
-1.08567e-05
0.00019161
-1.06155e-05
0.000188333
-8.97172e-06
0.000184737
-5.69803e-06
0.000181213
-4.1151e-07
0.000177398
0.000171159
6.46159e-06
8.65274e-06
8.6706e-05
1.19255e-05
0.000162862
1.14474e-05
0.000184911
9.83375e-06
0.00019273
7.97057e-06
0.000197011
6.08973e-06
0.000199039
4.45563e-06
0.000199236
3.30414e-06
0.000197728
2.87281e-06
0.000194904
3.4152e-06
0.000191068
5.1426e-06
0.000186605
8.43309e-06
0.000181446
1.36269e-05
0.000176019
2.03505e-05
0.000170675
0.000161532
2.99766e-05
1.05772e-05
7.61288e-05
1.59134e-05
0.000157526
1.69739e-05
0.000183851
1.66208e-05
0.000193083
1.59307e-05
0.000197701
1.52406e-05
0.000199729
1.47944e-05
0.000199683
1.48476e-05
0.000197675
1.56718e-05
0.00019408
1.75765e-05
0.000189163
2.07526e-05
0.000183429
2.55665e-05
0.000176632
3.2797e-05
0.000168789
4.13639e-05
0.000162108
0.000149884
5.3012e-05
1.2253e-05
6.38758e-05
1.96926e-05
0.000150086
2.2403e-05
0.00018114
2.33264e-05
0.00019216
2.37872e-05
0.00019724
2.42335e-05
0.000199283
2.49486e-05
0.000198967
2.61943e-05
0.000196429
2.82495e-05
0.000192025
3.15222e-05
0.000185891
3.62416e-05
0.00017871
4.24521e-05
0.000170422
5.17488e-05
0.000159492
6.22618e-05
0.000151595
0.000136487
7.56589e-05
1.34652e-05
5.04106e-05
2.30767e-05
0.000140475
2.76268e-05
0.00017659
2.98881e-05
0.000189898
3.14825e-05
0.000195646
3.30292e-05
0.000197736
3.48714e-05
0.000197125
3.73003e-05
0.000194
4.05695e-05
0.000188756
4.51431e-05
0.000181317
5.15235e-05
0.000172329
5.89825e-05
0.000162963
7.03973e-05
0.000148077
8.33957e-05
0.000138596
0.000121259
9.86238e-05
1.3869e-05
3.65417e-05
2.584e-05
0.000128504
3.25007e-05
0.00016993
3.62017e-05
0.000186197
3.89347e-05
0.000192913
4.1562e-05
0.000195109
4.44928e-05
0.000194194
4.80826e-05
0.000190411
5.25797e-05
0.000184259
5.82926e-05
0.000175604
6.6566e-05
0.000164056
7.52769e-05
0.000154252
8.80331e-05
0.000135321
0.000103818
0.000122812
0.000102524
0.000122553
1.31032e-05
2.34384e-05
2.77745e-05
0.000113832
3.68236e-05
0.00016088
4.21174e-05
0.000180904
4.60463e-05
0.000188984
4.97499e-05
0.000191405
5.3718e-05
0.000190226
5.84128e-05
0.000185716
6.42235e-05
0.000178448
7.08708e-05
0.000168957
8.1043e-05
0.000153884
9.1732e-05
0.000143563
0.000105487
0.000121567
0.000122291
0.000106007
7.92395e-05
0.000145576
1.11747e-05
1.22637e-05
2.87417e-05
9.62654e-05
4.03237e-05
0.000149298
4.7448e-05
0.000173779
5.26955e-05
0.000183736
5.74924e-05
0.000186609
6.24627e-05
0.000185256
6.80943e-05
0.000180084
7.53614e-05
0.000171181
8.28775e-05
0.000161441
9.4348e-05
0.000142413
0.000107398
0.000130512
0.000123705
0.00010526
0.000140423
8.9289e-05
5.27834e-05
0.000166879
8.6071e-06
3.65663e-06
2.84917e-05
7.63808e-05
4.26825e-05
0.000135108
5.19783e-05
0.000164483
5.87375e-05
0.000176977
6.46454e-05
0.000180701
7.0628e-05
0.000179273
7.69825e-05
0.00017373
8.57003e-05
0.000162463
9.44163e-05
0.000152725
0.000106637
0.000130192
0.000120986
0.000116163
0.000140926
8.53202e-05
0.000158586
7.16297e-05
2.4552e-05
0.000186817
5.93669e-06
-2.28005e-06
2.66152e-05
5.57023e-05
4.35938e-05
0.000118129
5.54636e-05
0.000152614
6.39725e-05
0.000168468
7.1025e-05
0.000173648
7.80895e-05
0.000172209
8.49898e-05
0.000166829
9.47943e-05
0.000152658
0.000105047
0.000142472
0.000118481
0.000116758
0.000132973
0.000101672
0.00015552
6.27735e-05
0.000175353
5.17958e-05
-4.31213e-06
0.000204218
3.41532e-06
-5.69537e-06
2.28638e-05
3.62539e-05
4.27937e-05
9.81991e-05
5.75728e-05
0.000137835
6.81211e-05
0.00015792
7.63501e-05
0.000165419
8.46097e-05
0.000163949
9.21303e-05
0.000159309
0.000102432
0.000142356
0.000113874
0.000131031
0.000129207
0.000101425
0.000144108
8.677e-05
0.00016754
3.93423e-05
0.000189404
2.99311e-05
-3.36813e-05
0.000218774
1.32085e-06
-7.01622e-06
1.77634e-05
1.98113e-05
4.01629e-05
7.57996e-05
5.78446e-05
0.000120153
7.08026e-05
0.000144962
8.03504e-05
0.000155871
8.97838e-05
0.000154516
9.81684e-05
0.000150924
0.000108757
0.000131768
0.000120612
0.000119175
0.000137309
8.47283e-05
0.000153742
7.03369e-05
0.000176666
1.64188e-05
0.000200463
6.13412e-06
-6.3068e-05
0.000229849
1.16961e-07
-7.13318e-06
1.23508e-05
7.57747e-06
3.55077e-05
5.26428e-05
5.57748e-05
9.98857e-05
7.15113e-05
0.000129225
8.27085e-05
0.000144674
9.32413e-05
0.000143983
0.000102603
0.000141563
0.000113491
0.000120879
0.000125772
0.000106895
0.000141554
6.89457e-05
0.00016109
5.08009e-05
0.000181482
-3.97309e-06
0.000208058
-2.04415e-05
-9.09417e-05
0.000235932
-3.2647e-07
-6.80671e-06
7.81197e-06
-5.60964e-07
2.8716e-05
3.17387e-05
5.09839e-05
7.76178e-05
6.96574e-05
0.000110552
8.28855e-05
0.000131446
9.44628e-05
0.000132406
0.000104975
0.000131051
0.000115392
0.000110462
0.000129903
9.23837e-05
0.000142256
5.65935e-05
0.000165082
2.79742e-05
0.000181015
-1.99052e-05
0.000211778
-5.12052e-05
-0.000115708
0.000236544
-2.42299e-07
-6.56441e-06
4.60633e-06
-5.4096e-06
2.10476e-05
1.52975e-05
4.35894e-05
5.5076e-05
6.46696e-05
8.94715e-05
8.03155e-05
0.0001158
9.25246e-05
0.000120197
0.00010505
0.000118525
0.000114237
0.000101275
0.000130586
7.60345e-05
0.000140624
4.65561e-05
0.000165818
2.78023e-06
0.000176824
-3.0912e-05
0.000210674
-8.50553e-05
-0.00013633
0.000231297
1.08053e-07
-6.67246e-06
3.11248e-06
-8.41402e-06
1.44109e-05
3.99907e-06
3.4517e-05
3.497e-05
5.61894e-05
6.77991e-05
7.44997e-05
9.74898e-05
8.70043e-05
0.000107692
0.00010098
0.000104549
0.000110287
9.19684e-05
0.000126242
6.00789e-05
0.000136512
3.62865e-05
0.000161429
-2.21369e-05
0.000168737
-3.82198e-05
0.000206059
-0.000122378
-0.000133097
0.000202826
5.78801e-07
-7.25127e-06
2.94113e-06
-1.07763e-05
1.00026e-05
-3.06237e-06
2.55732e-05
1.93994e-05
4.51368e-05
4.82355e-05
6.47289e-05
7.78976e-05
7.85097e-05
9.39113e-05
9.1637e-05
9.14221e-05
0.000102402
8.12033e-05
0.000115577
4.69042e-05
0.000127593
2.42699e-05
0.000143045
-3.75883e-05
0.000154856
-5.00314e-05
0.000180749
-0.00014827
-0.000142226
0.000189879
1.07345e-06
-8.32472e-06
3.28467e-06
-1.29876e-05
7.74764e-06
-7.52534e-06
1.82732e-05
8.87384e-06
3.35751e-05
3.29335e-05
5.147e-05
6.00027e-05
6.60602e-05
7.93212e-05
7.80648e-05
7.94174e-05
8.78836e-05
7.13845e-05
9.92005e-05
3.55874e-05
0.000109601
1.38692e-05
0.000115579
-4.35665e-05
0.000137373
-7.18254e-05
0.000155471
-0.000166368
-0.000198097
0.000211342
1.41127e-06
-9.73599e-06
3.46891e-06
-1.50452e-05
6.46875e-06
-1.05252e-05
1.27976e-05
2.54499e-06
2.32009e-05
2.25302e-05
3.68301e-05
4.63735e-05
5.00236e-05
6.61276e-05
6.03967e-05
6.90444e-05
6.85315e-05
6.32497e-05
7.59805e-05
2.81383e-05
8.48208e-05
5.02887e-06
9.83273e-05
-5.7073e-05
0.000137987
-0.000111485
0.000182076
-0.000210457
-0.000267803
0.000251783
1.43722e-06
-1.11732e-05
3.03405e-06
-1.6642e-05
4.8821e-06
-1.23732e-05
8.20046e-06
-7.73363e-07
1.4165e-05
1.65657e-05
2.27556e-05
3.77829e-05
3.23497e-05
5.65335e-05
4.02314e-05
6.11627e-05
4.54842e-05
5.79969e-05
4.85314e-05
2.50911e-05
6.72634e-05
-1.37031e-05
0.000102403
-9.22128e-05
0.000161636
-0.000170718
0.00021504
-0.000263861
-0.000313912
0.000261149
1.06854e-06
-1.22417e-05
1.76775e-06
-1.73412e-05
2.30755e-06
-1.2913e-05
3.32462e-06
-1.79044e-06
5.63216e-06
1.42581e-05
9.62871e-06
3.37864e-05
1.43964e-05
5.17659e-05
1.78551e-05
5.77039e-05
2.01126e-05
5.57394e-05
3.17791e-05
1.34247e-05
7.35283e-05
-5.54523e-05
0.000129005
-0.00014769
0.000189892
-0.000231605
0.000228723
-0.000302692
-0.000349824
0.000264634
3.18402e-07
-1.25601e-05
-2.82564e-07
-1.67403e-05
-1.29641e-06
-1.18992e-05
-2.31984e-06
-7.67008e-07
-3.05551e-06
1.49938e-05
-3.43776e-06
3.41686e-05
-4.24543e-06
5.25735e-05
-4.65553e-06
5.8114e-05
6.04594e-06
4.50379e-05
4.18979e-05
-2.24273e-05
0.00010077
-0.000114325
0.000157904
-0.000204824
0.00020449
-0.000278191
0.000237011
-0.000335213
-0.000380262
0.000267449
-6.99288e-07
-1.18609e-05
-2.78147e-06
-1.46581e-05
-5.5157e-06
-9.16497e-06
-8.55962e-06
2.27691e-06
-1.19372e-05
1.83714e-05
-1.59854e-05
3.82168e-05
-2.00139e-05
5.66021e-05
-1.6366e-05
5.44661e-05
1.49725e-05
1.36994e-05
7.00126e-05
-7.74674e-05
0.000129282
-0.000173594
0.000176709
-0.00025225
0.000214049
-0.000315531
0.000242465
-0.000363629
-0.0004001
0.000262303
-1.77047e-06
-1.00904e-05
-5.30794e-06
-1.11206e-05
-9.62953e-06
-4.84338e-06
-1.43031e-05
6.95044e-06
-1.9196e-05
2.32644e-05
-2.35651e-05
4.25858e-05
-2.49245e-05
5.79616e-05
-7.17777e-06
3.67194e-05
4.13486e-05
-3.4827e-05
9.96391e-05
-0.000135758
0.000150161
-0.000224116
0.000190042
-0.000292131
0.000220105
-0.000345594
0.000239851
-0.000383376
-0.000417524
0.000257276
-2.63578e-06
-7.45461e-06
-7.24227e-06
-6.51413e-06
-1.24806e-05
3.94986e-07
-1.76536e-05
1.21234e-05
-2.18388e-05
2.74495e-05
-2.27075e-05
4.34546e-05
-1.63772e-05
5.16313e-05
1.66079e-05
3.73432e-06
7.17072e-05
-8.99264e-05
0.000123787
-0.000187838
0.000166105
-0.000266434
0.000197833
-0.000323859
0.000219567
-0.000367328
0.000236873
-0.000400682
-0.000432034
0.000251384
-3.08255e-06
-4.37206e-06
-8.10096e-06
-1.49572e-06
-1.33464e-05
5.64044e-06
-1.76166e-05
1.63936e-05
-1.91078e-05
2.89407e-05
-1.54165e-05
3.97633e-05
1.66293e-06
3.45518e-05
4.51238e-05
-3.97266e-05
9.73967e-05
-0.000142199
0.000142216
-0.000232657
0.000175866
-0.000300085
0.000200001
-0.000347994
0.000218143
-0.00038547
0.000231906
-0.000414445
-0.000443469
0.000243341
-3.05655e-06
-1.31552e-06
-7.80086e-06
3.24859e-06
-1.22357e-05
1.00753e-05
-1.45922e-05
1.87501e-05
-1.2358e-05
2.67064e-05
-4.70851e-06
3.21138e-05
2.22665e-05
7.57685e-06
7.06314e-05
-8.80915e-05
0.000117437
-0.000189005
0.000154348
-0.000269568
0.00018073
-0.000326467
0.000200055
-0.000367319
0.000213904
-0.000399318
0.000225068
-0.000425609
-0.000454524
0.000236122
-2.66217e-06
1.34666e-06
-6.65575e-06
7.24217e-06
-9.7903e-06
1.32099e-05
-9.93064e-06
1.88905e-05
-4.72326e-06
2.14991e-05
7.48728e-06
1.99032e-05
4.31984e-05
-2.81342e-05
9.09168e-05
-0.00013581
0.000131594
-0.000229682
0.000161438
-0.000299412
0.000182185
-0.000347214
0.00019695
-0.000382084
0.000208278
-0.000410647
0.000218639
-0.000435969
-0.000464025
0.00022814
-2.08597e-06
3.43263e-06
-5.13e-06
1.02862e-05
-6.95446e-06
1.50343e-05
-5.23252e-06
1.71685e-05
7.81538e-07
1.5485e-05
1.86012e-05
2.08357e-06
6.26994e-05
-7.22324e-05
0.000106661
-0.000179771
0.00014073
-0.000263751
0.000164447
-0.000323129
0.000180536
-0.000363303
0.000192605
-0.000394153
0.000202412
-0.000420454
0.00021129
-0.000444847
-0.000472712
0.000219977
-1.51679e-06
4.94941e-06
-3.66017e-06
1.24296e-05
-4.48269e-06
1.58569e-05
-1.93961e-06
1.46255e-05
4.2112e-06
9.3342e-06
3.09072e-05
-2.46124e-05
7.91684e-05
-0.000120494
0.000118093
-0.000218695
0.00014571
-0.000291368
0.000164324
-0.000341743
0.000177247
-0.000376226
0.000187275
-0.000404181
0.000195569
-0.000428748
0.000203795
-0.000453073
-0.000480846
0.000211929
-1.09014e-06
6.03955e-06
-2.55577e-06
1.38952e-05
-2.80373e-06
1.61048e-05
-8.30078e-07
1.26518e-05
9.08935e-06
-5.85226e-07
4.60968e-05
-6.16198e-05
9.18505e-05
-0.000166247
0.000125243
-0.000252088
0.000147423
-0.000313549
0.000162164
-0.000356483
0.000172629
-0.000386692
0.000181136
-0.000412687
0.000188711
-0.000436323
0.000196407
-0.000460769
-0.000488253
0.000203814
-8.65222e-07
6.90478e-06
-1.94891e-06
1.49789e-05
-2.01423e-06
1.61701e-05
-8.26932e-07
1.14645e-05
1.71144e-05
-1.85266e-05
6.2002e-05
-0.000106507
0.000101221
-0.000205467
0.00012884
-0.000279706
0.000146746
-0.000331455
0.000158524
-0.000368261
0.000167255
-0.000395423
0.000174793
-0.000420225
0.000181677
-0.000443207
0.000188708
-0.000467801
-0.000494998
0.000195452
-8.27701e-07
7.73248e-06
-1.75476e-06
1.59059e-05
-2.06112e-06
1.64765e-05
1.46546e-06
7.93794e-06
2.96659e-05
-4.6727e-05
7.41789e-05
-0.00015102
0.000107437
-0.000238725
0.000129859
-0.000302129
0.000144298
-0.000345894
0.000153944
-0.000377906
0.000161447
-0.000402926
0.000168136
-0.000426914
0.000174441
-0.000449513
0.000181056
-0.000474415
-0.000501404
0.000187463
-9.0582e-07
8.6383e-06
-1.76261e-06
1.67627e-05
-2.59999e-06
1.73139e-05
7.68214e-06
-2.3442e-06
4.47683e-05
-8.38132e-05
8.27549e-05
-0.000189007
0.000110718
-0.000266688
0.000128962
-0.000320373
0.00014069
-0.000357621
0.000148748
-0.000385965
0.000155316
-0.000409493
0.000161379
-0.000432977
0.000167295
-0.000455429
0.000173463
-0.000480584
-0.000507058
0.000179116
-1.01785e-06
9.65614e-06
-1.71948e-06
1.74644e-05
-2.33247e-06
1.79269e-05
1.59951e-05
-2.06718e-05
5.69343e-05
-0.000124752
8.90488e-05
-0.000221121
0.00011184
-0.000289479
0.000126641
-0.000335173
0.000136262
-0.000367243
0.000143147
-0.000392851
0.000149041
-0.000415387
0.000154595
-0.000438531
0.000160045
-0.000460879
0.000165652
-0.00048619
-0.000512393
0.000170987
-9.93688e-07
1.06498e-05
-1.6272e-06
1.80979e-05
9.62814e-07
1.53369e-05
2.74218e-05
-4.71308e-05
6.47294e-05
-0.00016206
9.27682e-05
-0.00024916
0.000111378
-0.000308089
0.000123324
-0.000347119
0.000131322
-0.000375241
0.000137333
-0.000398862
0.000142673
-0.000420727
0.000147738
-0.000443596
0.000152804
-0.000465945
0.00015807
-0.000491456
-0.000517178
0.000162856
-8.80381e-07
1.15302e-05
-1.77091e-06
1.89884e-05
6.38792e-06
7.17805e-06
3.93637e-05
-8.01066e-05
7.09271e-05
-0.000193623
9.43711e-05
-0.000272604
0.000109592
-0.00032331
0.000119312
-0.000356839
0.000126046
-0.000381976
0.000131366
-0.000404182
0.00013624
-0.0004256
0.000140917
-0.000448274
0.000145618
-0.000470646
0.000150308
-0.000496146
-0.000521483
0.000154613
-7.50169e-07
1.22804e-05
-1.75616e-06
1.99944e-05
1.21417e-05
-6.71985e-06
4.80427e-05
-0.000116008
7.53047e-05
-0.000220885
9.44376e-05
-0.000291737
0.000106808
-0.00033568
0.000114807
-0.000364838
0.000120576
-0.000387745
0.000125345
-0.000408951
0.000129816
-0.00043007
0.000134087
-0.000452545
0.000138369
-0.000474927
0.000142693
-0.00050047
-0.000525454
0.000146664
-3.79706e-07
1.26601e-05
-5.83981e-07
2.01987e-05
1.94633e-05
-2.67671e-05
5.31472e-05
-0.000149691
7.77913e-05
-0.000245529
9.35061e-05
-0.000307452
0.000103396
-0.00034557
0.000109987
-0.000371429
0.000114985
-0.000392742
0.000119284
-0.00041325
0.000123359
-0.000434145
0.000127266
-0.000456452
0.000131221
-0.000478882
0.00013505
-0.0005043
-0.000528906
0.000138502
-1.7081e-07
1.28309e-05
2.26546e-06
1.77624e-05
2.76168e-05
-5.21185e-05
5.7203e-05
-0.000179278
7.84535e-05
-0.00026678
9.14878e-05
-0.000320486
9.948e-05
-0.000353562
0.000104963
-0.000376912
0.000109336
-0.000397115
0.000113221
-0.000417136
0.000116942
-0.000437866
0.000120487
-0.000459998
0.000124015
-0.00048241
0.000127427
-0.000507711
-0.000532121
0.000130642
-1.518e-07
1.29827e-05
5.62226e-06
1.19883e-05
3.47878e-05
-8.12841e-05
6.0134e-05
-0.000204624
7.78459e-05
-0.000284492
8.86263e-05
-0.000331267
9.52044e-05
-0.00036014
9.98307e-05
-0.000381538
0.00010367
-0.000400955
0.00010717
-0.000420636
0.000110521
-0.000441216
0.000113699
-0.000463175
0.000116886
-0.000485597
0.000119878
-0.000510703
-0.000534854
0.000122611
-2.08774e-07
1.31915e-05
9.0204e-06
2.75916e-06
3.97723e-05
-0.000112036
6.19362e-05
-0.000226788
7.64229e-05
-0.000298979
8.51795e-05
-0.000340023
9.06389e-05
-0.0003656
9.46121e-05
-0.000385511
9.80065e-05
-0.00040435
0.00010114
-0.000423769
0.000104143
-0.00044422
0.000106977
-0.000466009
0.000109752
-0.000488372
0.000112309
-0.00051326
-0.000537306
0.000114761
-3.04155e-07
1.34956e-05
1.269e-05
-1.0235e-05
4.23154e-05
-0.000141661
6.2513e-05
-0.000246985
7.4413e-05
-0.000310879
8.14217e-05
-0.000347032
8.59314e-05
-0.000370109
8.93633e-05
-0.000388943
9.23608e-05
-0.000407347
9.51446e-05
-0.000426553
9.7789e-05
-0.000446864
0.000100252
-0.000468472
0.000102669
-0.00049079
0.00010485
-0.000515441
-0.000539316
0.00010686
-6.0436e-07
1.41e-05
1.71238e-05
-2.79632e-05
4.36002e-05
-0.000168138
6.17379e-05
-0.000265123
7.18279e-05
-0.000320969
7.74554e-05
-0.000352659
8.11546e-05
-0.000373809
8.41043e-05
-0.000391893
8.67372e-05
-0.00040998
8.91771e-05
-0.000428993
9.14738e-05
-0.000449161
9.35958e-05
-0.000470594
9.56209e-05
-0.000492815
9.73856e-05
-0.000517206
-0.000541016
9.90855e-05
-2.83289e-07
1.43833e-05
2.09921e-05
-4.92386e-05
4.45014e-05
-0.000191647
6.01178e-05
-0.000280739
6.86888e-05
-0.00032954
7.33233e-05
-0.000357294
7.6376e-05
-0.000376861
7.88832e-05
-0.0003944
8.11539e-05
-0.000412251
8.32542e-05
-0.000431093
8.51992e-05
-0.000451106
8.69516e-05
-0.000472346
8.86072e-05
-0.00049447
9.00171e-05
-0.000518616
-0.000542344
9.13453e-05
4.96637e-07
1.38866e-05
2.42194e-05
-7.29614e-05
4.47695e-05
-0.000212197
5.79958e-05
-0.000293966
6.51672e-05
-0.000336711
6.90401e-05
-0.000361167
7.15914e-05
-0.000379413
7.37003e-05
-0.000396509
7.56158e-05
-0.000414166
7.73695e-05
-0.000432847
7.8963e-05
-0.000452699
8.03711e-05
-0.000473754
8.16483e-05
-0.000495748
8.2667e-05
-0.000519634
-0.000543355
8.36775e-05
1.65809e-06
1.22285e-05
2.65353e-05
-9.78386e-05
4.45816e-05
-0.000230243
5.5576e-05
-0.00030496
6.14503e-05
-0.000342585
6.46723e-05
-0.000364389
6.68156e-05
-0.000381556
6.85682e-05
-0.000398262
7.01324e-05
-0.00041573
7.15388e-05
-0.000434253
7.27787e-05
-0.000453939
7.38186e-05
-0.000474794
7.47232e-05
-0.000496652
7.53965e-05
-0.000520308
-0.000544006
7.60484e-05
3.42354e-06
8.805e-06
2.78684e-05
-0.000122283
4.39805e-05
-0.000246355
5.29798e-05
-0.000313959
5.76652e-05
-0.000347271
6.02799e-05
-0.000367004
6.20525e-05
-0.000383329
6.34743e-05
-0.000399684
6.47e-05
-0.000416956
6.57563e-05
-0.00043531
6.66379e-05
-0.000454821
6.73262e-05
-0.000475482
6.7858e-05
-0.000497184
6.81439e-05
-0.000520594
-0.000544271
6.84081e-05
5.64099e-06
3.16401e-06
2.82039e-05
-0.000144846
4.28819e-05
-0.000261034
5.02631e-05
-0.000321341
5.38804e-05
-0.000350888
5.59156e-05
-0.000369039
5.73254e-05
-0.000384738
5.84276e-05
-0.000400786
5.93206e-05
-0.000417849
6.0031e-05
-0.00043602
6.0557e-05
-0.000455347
6.08772e-05
-0.000475803
6.10318e-05
-0.000497338
6.09485e-05
-0.00052051
-0.000544115
6.07929e-05
8.21645e-06
-5.05243e-06
2.81393e-05
-0.000164769
4.12e-05
-0.000274094
4.7375e-05
-0.000327516
5.01146e-05
-0.000353627
5.16094e-05
-0.000370534
5.26484e-05
-0.000385777
5.34269e-05
-0.000401564
5.39926e-05
-0.000418415
5.43583e-05
-0.000436386
5.45251e-05
-0.000455514
5.44861e-05
-0.000475764
5.42645e-05
-0.000497117
5.37864e-05
-0.000520032
-0.000543548
5.32192e-05
1.05398e-05
-1.55922e-05
2.81341e-05
-0.000182364
3.92098e-05
-0.00028517
4.42812e-05
-0.000332587
4.63419e-05
-0.000355688
4.73644e-05
-0.000371556
4.80359e-05
-0.000386449
4.84852e-05
-0.000402014
4.87212e-05
-0.000418651
4.87454e-05
-0.00043641
4.85571e-05
-0.000455325
4.81471e-05
-0.000475354
4.7543e-05
-0.000496513
4.66898e-05
-0.000519179
-0.000542557
4.56985e-05
1.21976e-05
-2.77898e-05
2.77775e-05
-0.000197943
3.70048e-05
-0.000294397
4.1026e-05
-0.000336608
4.25358e-05
-0.000357198
4.31685e-05
-0.000372189
4.34911e-05
-0.000386771
4.36063e-05
-0.000402129
4.35104e-05
-0.000418555
4.31919e-05
-0.000436091
4.26446e-05
-0.000454778
4.18667e-05
-0.000474576
4.08786e-05
-0.000495525
3.96384e-05
-0.000517939
-0.000541149
3.82314e-05
1.31454e-05
-4.09351e-05
2.70131e-05
-0.000211811
3.46326e-05
-0.000302017
3.77016e-05
-0.000339677
3.87257e-05
-0.000358222
3.90173e-05
-0.00037248
3.90131e-05
-0.000386767
3.87974e-05
-0.000401913
3.83664e-05
-0.000418124
3.77055e-05
-0.00043543
3.68039e-05
-0.000453876
3.56526e-05
-0.000473424
3.42703e-05
-0.000494142
3.26466e-05
-0.000516315
-0.000539333
3.08306e-05
1.34586e-05
-5.43938e-05
2.58714e-05
-0.000224224
3.21211e-05
-0.000308267
3.43609e-05
-0.000341917
3.49422e-05
-0.000358803
3.49169e-05
-0.000372455
3.4601e-05
-0.000386451
3.40588e-05
-0.000401371
3.32928e-05
-0.000417358
3.22878e-05
-0.000434426
3.10302e-05
-0.000452619
2.95131e-05
-0.000471907
2.77376e-05
-0.000492367
2.56874e-05
-0.000514265
-0.000537125
2.3479e-05
1.33134e-05
-6.77072e-05
2.4425e-05
-0.000235335
2.95112e-05
-0.000313353
3.10402e-05
-0.000343446
3.1211e-05
-0.000358974
3.08768e-05
-0.000372121
3.02563e-05
-0.000385831
2.93934e-05
-0.000400508
2.8293e-05
-0.000416257
2.69446e-05
-0.000433077
2.53363e-05
-0.000451011
2.34572e-05
-0.000470028
2.13021e-05
-0.000490212
1.8792e-05
-0.000511755
-0.000534503
1.61703e-05
1.28605e-05
-8.05677e-05
2.27543e-05
-0.000245229
2.68353e-05
-0.000317434
2.7755e-05
-0.000344366
2.75474e-05
-0.000358767
2.69078e-05
-0.000371481
2.59842e-05
-0.000384907
2.48026e-05
-0.000399327
2.33694e-05
-0.000414824
2.16771e-05
-0.000431385
1.97153e-05
-0.000449049
1.74781e-05
-0.000467791
1.497e-05
-0.000487704
1.20079e-05
-0.000508793
-0.000531354
8.85872e-06
1.22e-05
-9.27677e-05
2.09328e-05
-0.000253962
2.41331e-05
-0.000320634
2.45247e-05
-0.000344757
2.39639e-05
-0.000358206
2.30182e-05
-0.000370535
2.1789e-05
-0.000383678
2.029e-05
-0.000397828
1.8525e-05
-0.000413059
1.64897e-05
-0.00042935
1.41755e-05
-0.000446735
1.15812e-05
-0.000465197
8.70976e-06
-0.000484832
5.45285e-06
-0.000505536
-0.000527344
1.44259e-06
1.13931e-05
-0.000104161
1.90176e-05
-0.000261587
2.14386e-05
-0.000323055
2.13631e-05
-0.000344682
2.0468e-05
-0.000357311
1.92148e-05
-0.000369282
1.76764e-05
-0.00038214
1.58586e-05
-0.00039601
1.37622e-05
-0.000410963
1.13827e-05
-0.00042697
8.70954e-06
-0.000444061
5.76591e-06
-0.000462253
2.43747e-06
-0.000481504
-7.99906e-07
-0.000502299
-0.000522826
-5.31734e-06
1.04237e-05
-0.000114585
1.70577e-05
-0.000268221
1.87875e-05
-0.000324785
1.82874e-05
-0.000344182
1.70661e-05
-0.000356089
1.55017e-05
-0.000367718
1.3649e-05
-0.000380287
1.15093e-05
-0.00039387
9.0827e-06
-0.000408536
6.358e-06
-0.000424245
3.32654e-06
-0.00044103
-5.37538e-08
-0.000458873
-3.57723e-06
-0.00047798
-7.54604e-06
-0.00049833
-0.000518401
-1.19712e-05
9.42896e-06
-0.000124013
1.51024e-05
-0.000273894
1.62008e-05
-0.000325883
1.53056e-05
-0.000343286
1.37603e-05
-0.000354544
1.18815e-05
-0.000365839
9.70965e-06
-0.000378115
7.24086e-06
-0.000391401
4.48215e-06
-0.000405777
1.40207e-06
-0.000421165
-1.94832e-06
-0.00043768
-5.56275e-06
-0.000455258
-9.45689e-06
-0.000474086
-1.39693e-05
-0.000493817
-0.000513768
-1.8603e-05
8.50211e-06
-0.000132516
1.31947e-05
-0.000278587
1.3691e-05
-0.000326379
1.24151e-05
-0.000342011
1.05505e-05
-0.00035268
8.35438e-06
-0.000363643
5.8561e-06
-0.000375617
3.0475e-06
-0.000388593
-8.55878e-08
-0.000402644
-3.42841e-06
-0.000417822
-7.10189e-06
-0.000434006
-1.10509e-05
-0.000451309
-1.53341e-05
-0.000469803
-2.02198e-05
-0.000488932
-0.000508815
-2.51724e-05
7.59774e-06
-0.000140113
1.1354e-05
-0.000282343
1.12696e-05
-0.000326295
9.61909e-06
-0.00034036
7.43611e-06
-0.000350497
4.91625e-06
-0.000361123
2.07671e-06
-0.000372777
-1.05375e-06
-0.000385462
-4.43138e-06
-0.000399267
-8.15639e-06
-0.000414097
-1.21677e-05
-0.000429995
-1.64715e-05
-0.000447005
-2.11657e-05
-0.000465109
-2.63403e-05
-0.000483757
-0.000503491
-3.16643e-05
6.71613e-06
-0.000146829
9.58938e-06
-0.000285216
8.9406e-06
-0.000325646
6.92186e-06
-0.000338341
4.41404e-06
-0.000347989
1.54995e-06
-0.000358259
-1.58976e-06
-0.000369638
-5.00196e-06
-0.00038205
-8.73625e-06
-0.000395532
-1.27921e-05
-0.000410042
-1.71422e-05
-0.000425645
-2.18109e-05
-0.000442337
-2.69121e-05
-0.000460008
-3.23602e-05
-0.000478309
-0.000497789
-3.80622e-05
5.86407e-06
-0.000152694
7.90473e-06
-0.000287257
6.71189e-06
-0.000324453
4.32556e-06
-0.000335955
1.46802e-06
-0.000345131
-1.68842e-06
-0.000355102
-5.12303e-06
-0.000366203
-8.87855e-06
-0.000378295
-1.29514e-05
-0.00039146
-1.73365e-05
-0.000405656
-2.20275e-05
-0.000420954
-2.7057e-05
-0.000437307
-3.24994e-05
-0.000454565