/*--------------------------------*- C++ -*----------------------------------*\
  =========                 |
  \\      /  F ield         | OpenFOAM: The Open Source CFD Toolbox
   \\    /   O peration     | Website:  https://openfoam.org
    \\  /    A nd           | Version:  7
     \\/     M anipulation  |
\*---------------------------------------------------------------------------*/
FoamFile
{
    version     2.0;
    format      ascii;
    class       volScalarField;
    location    "5";
    object      p;
}
// * * * * * * * * * * * * * * * * * * * * * * * * * * * * * * * * * * * * * //

dimensions      [0 2 -2 0 0 0 0];

internalField   nonuniform List<scalar> 
8500
(
-0.298156
-0.309674
-0.32092
-0.33971
-0.365846
-0.398767
-0.437386
-0.479899
-0.523818
-0.565429
-0.301573
-0.312712
-0.323824
-0.34253
-0.368648
-0.401632
-0.440408
-0.483159
-0.527338
-0.569279
-0.308103
-0.318501
-0.329349
-0.347879
-0.373939
-0.407006
-0.446033
-0.489178
-0.533772
-0.576248
-0.317182
-0.326507
-0.336967
-0.355218
-0.381139
-0.414237
-0.453497
-0.497063
-0.542063
-0.585048
-0.328055
-0.33602
-0.345974
-0.363824
-0.389481
-0.422473
-0.461816
-0.505679
-0.550951
-0.594108
-0.339874
-0.346245
-0.355578
-0.372888
-0.398103
-0.430774
-0.469928
-0.513805
-0.559196
-0.601864
-0.351799
-0.356395
-0.364993
-0.381599
-0.406148
-0.438217
-0.47682
-0.52026
-0.565726
-0.606976
-0.363084
-0.365782
-0.373526
-0.389235
-0.412849
-0.443979
-0.481638
-0.524007
-0.569608
-0.608495
-0.373107
-0.373901
-0.38065
-0.395233
-0.417597
-0.4474
-0.483734
-0.524314
-0.569922
-0.606018
-0.381484
-0.380439
-0.386069
-0.399208
-0.419992
-0.448045
-0.482678
-0.521018
-0.565462
-0.599562
-0.388008
-0.385294
-0.389643
-0.401064
-0.419879
-0.445718
-0.478256
-0.513729
-0.556786
-0.58829
-0.392657
-0.388555
-0.391494
-0.400899
-0.417341
-0.440478
-0.470585
-0.502637
-0.544153
-0.572611
-0.395558
-0.390451
-0.391915
-0.399033
-0.412716
-0.432685
-0.460033
-0.488395
-0.528071
-0.55362
-0.396952
-0.391279
-0.391294
-0.395947
-0.406551
-0.422979
-0.447213
-0.471952
-0.509542
-0.532153
-0.39714
-0.391346
-0.390043
-0.392201
-0.399536
-0.41222
-0.433
-0.454504
-0.49007
-0.510547
-0.396443
-0.390928
-0.388526
-0.388334
-0.3924
-0.40138
-0.418467
-0.437368
-0.471001
-0.490193
-0.395175
-0.390246
-0.387013
-0.384777
-0.3858
-0.391384
-0.404742
-0.421778
-0.452962
-0.472914
-0.39363
-0.389477
-0.385681
-0.381811
-0.380226
-0.382932
-0.392838
-0.40887
-0.435977
-0.459198
-0.392089
-0.388775
-0.384643
-0.379589
-0.375972
-0.376419
-0.383435
-0.399028
-0.420639
-0.448021
-0.390835
-0.388311
-0.384013
-0.378204
-0.373185
-0.371979
-0.376814
-0.391698
-0.408074
-0.438216
-0.390143
-0.388288
-0.383937
-0.377757
-0.371934
-0.369598
-0.372922
-0.385865
-0.399017
-0.426877
-0.390283
-0.388887
-0.384583
-0.378343
-0.372207
-0.369104
-0.37118
-0.381299
-0.392709
-0.409852
-0.39144
-0.390265
-0.38607
-0.379988
-0.373856
-0.370163
-0.37084
-0.378291
-0.386008
-0.395206
-0.393707
-0.392508
-0.388406
-0.382595
-0.376545
-0.372253
-0.371514
-0.375977
-0.379554
-0.383024
-0.397071
-0.395596
-0.391524
-0.38595
-0.37985
-0.374921
-0.372736
-0.373911
-0.373378
-0.372075
-0.401454
-0.399442
-0.39532
-0.389817
-0.383434
-0.377894
-0.374047
-0.371787
-0.367339
-0.362431
-0.406779
-0.403991
-0.399679
-0.394003
-0.387184
-0.380953
-0.375101
-0.369408
-0.361516
-0.353478
-0.412924
-0.409245
-0.40458
-0.398419
-0.391157
-0.383889
-0.375694
-0.366729
-0.35577
-0.345155
-0.41989
-0.415209
-0.410048
-0.403133
-0.39538
-0.386534
-0.375753
-0.363712
-0.350104
-0.337225
-0.427699
-0.421953
-0.416112
-0.408336
-0.39976
-0.388784
-0.375265
-0.360377
-0.344439
-0.329583
-0.436392
-0.429562
-0.4228
-0.414188
-0.404151
-0.390575
-0.374254
-0.356723
-0.33874
-0.322106
-0.446014
-0.43808
-0.430176
-0.420667
-0.408412
-0.391869
-0.372738
-0.352758
-0.332946
-0.314692
-0.456583
-0.447487
-0.438327
-0.427566
-0.412407
-0.392637
-0.370727
-0.348466
-0.327001
-0.30725
-0.468076
-0.457695
-0.447297
-0.434603
-0.415988
-0.39284
-0.368207
-0.343817
-0.320838
-0.299687
-0.480409
-0.468571
-0.456984
-0.441505
-0.419003
-0.392419
-0.365145
-0.338765
-0.314385
-0.291924
-0.493425
-0.479958
-0.467097
-0.448019
-0.421308
-0.391299
-0.361487
-0.333248
-0.307566
-0.283878
-0.506884
-0.491687
-0.47721
-0.453879
-0.422761
-0.389388
-0.357159
-0.327195
-0.3003
-0.27548
-0.52046
-0.503538
-0.48684
-0.458793
-0.423208
-0.386585
-0.352078
-0.320524
-0.292512
-0.266669
-0.533753
-0.515212
-0.495511
-0.462459
-0.422486
-0.382776
-0.346152
-0.313153
-0.28413
-0.257405
-0.546307
-0.526301
-0.502795
-0.464591
-0.420424
-0.377842
-0.339284
-0.304996
-0.275091
-0.247655
-0.55763
-0.5363
-0.508315
-0.464938
-0.416856
-0.371661
-0.331373
-0.295969
-0.265337
-0.237385
-0.567226
-0.544648
-0.511746
-0.463291
-0.411628
-0.364114
-0.322322
-0.285987
-0.254801
-0.226541
-0.574621
-0.550794
-0.512785
-0.459474
-0.404607
-0.355094
-0.312043
-0.27497
-0.243401
-0.215026
-0.579382
-0.554256
-0.511137
-0.453335
-0.395678
-0.344509
-0.300464
-0.262853
-0.231047
-0.202665
-0.581128
-0.554628
-0.506543
-0.444738
-0.384744
-0.332279
-0.287518
-0.249592
-0.217689
-0.189218
-0.579536
-0.551587
-0.49881
-0.433581
-0.371733
-0.318336
-0.273139
-0.23515
-0.203377
-0.174545
-0.57434
-0.54489
-0.487809
-0.419791
-0.356589
-0.302623
-0.25727
-0.219484
-0.188187
-0.158887
-0.565334
-0.534379
-0.473465
-0.403327
-0.339273
-0.28511
-0.239916
-0.202628
-0.171957
-0.142828
-0.55237
-0.519966
-0.455761
-0.384176
-0.319763
-0.26582
-0.221182
-0.184824
-0.154454
-0.126318
-0.535362
-0.501632
-0.434732
-0.362361
-0.298076
-0.244854
-0.201197
-0.165813
-0.135953
-0.109196
-0.514282
-0.479419
-0.410476
-0.33796
-0.274312
-0.222302
-0.179859
-0.145625
-0.116605
-0.0914207
-0.489165
-0.453427
-0.383115
-0.311081
-0.248651
-0.198087
-0.157201
-0.124344
-0.0964811
-0.0730357
-0.460118
-0.423846
-0.35271
-0.281814
-0.221115
-0.172336
-0.1333
-0.102064
-0.0756329
-0.0541253
-0.427324
-0.390982
-0.319183
-0.250277
-0.191805
-0.14518
-0.108263
-0.0788741
-0.0541141
-0.0347619
-0.391009
-0.355145
-0.282643
-0.21658
-0.160869
-0.11676
-0.082211
-0.0548663
-0.0319849
-0.0149886
-0.351374
-0.316228
-0.243852
-0.180907
-0.128464
-0.0872265
-0.0552691
-0.0301323
-0.00934108
0.00505337
-0.308638
-0.27373
-0.203783
-0.143734
-0.09479
-0.0567233
-0.0275422
-0.00476186
0.0136079
0.0248533
-0.263128
-0.22857
-0.162163
-0.105359
-0.0600766
-0.0253965
0.000877915
0.0211309
0.0364894
0.043599
-0.215041
-0.181549
-0.119061
-0.0659844
-0.024554
0.00659156
0.0298617
0.047345
0.0589649
0.0612086
-0.164915
-0.133097
-0.0747572
-0.0258157
0.011561
0.0390547
0.0591836
0.0735384
0.0810717
0.0797581
-0.113228
-0.0835353
-0.0295907
0.0149039
0.0480518
0.0717829
0.0885571
0.0993529
0.102899
0.103525
-0.0604523
-0.0332335
0.0160857
0.0559054
0.0846917
0.104552
0.117759
0.124875
0.125391
0.12699
-0.00705498
0.0174173
0.0619183
0.0969048
0.121238
0.137137
0.146676
0.150308
0.148417
0.149228
0.046494
0.0680113
0.107554
0.137611
0.157442
0.169322
0.17517
0.175503
0.171366
0.170497
0.0997272
0.118141
0.152642
0.177731
0.193053
0.200911
0.203117
0.200301
0.19387
0.190818
0.152183
0.167404
0.196839
0.216976
0.227825
0.231701
0.230342
0.224485
0.215721
0.210299
0.20341
0.215408
0.239809
0.255061
0.26152
0.261494
0.256673
0.247866
0.236745
0.22888
0.252974
0.26177
0.281228
0.29171
0.293902
0.290094
0.28193
0.270279
0.25683
0.246511
0.30047
0.306111
0.320781
0.326658
0.324746
0.317306
0.305945
0.29157
0.275851
0.263112
0.34551
0.348072
0.358167
0.359652
0.353838
0.342949
0.328556
0.311601
0.293702
0.278606
0.387721
0.387321
0.393103
0.390454
0.380973
0.366846
0.349614
0.330243
0.310276
0.292919
0.426756
0.423553
0.425327
0.41884
0.405962
0.388837
0.36898
0.347376
0.325477
0.305982
0.462294
0.456488
0.454599
0.444608
0.428631
0.408773
0.386526
0.362892
0.339216
0.317733
0.494045
0.485874
0.4807
0.467571
0.448822
0.426519
0.402137
0.376692
0.351414
0.328119
0.521751
0.511487
0.503438
0.487565
0.466394
0.441956
0.415712
0.388687
0.361999
0.337096
0.545188
0.533133
0.522647
0.504448
0.481227
0.454981
0.427162
0.398802
0.370913
0.344625
0.564167
0.550648
0.538184
0.518101
0.493217
0.465506
0.436413
0.406972
0.378103
0.350679
0.578535
0.563901
0.549938
0.528426
0.502282
0.473462
0.443404
0.413146
0.383531
0.355236
0.588179
0.572792
0.557821
0.53535
0.508361
0.478795
0.44809
0.417283
0.387166
0.358281
0.59302
0.577254
0.561777
0.538824
0.51141
0.481471
0.450441
0.419359
0.388989
0.359806
0.59302
0.577254
0.561777
0.538824
0.51141
0.481471
0.450441
0.419359
0.388989
0.359806
0.588179
0.572792
0.557821
0.53535
0.508361
0.478795
0.44809
0.417283
0.387166
0.358281
0.578535
0.563901
0.549938
0.528426
0.502282
0.473462
0.443404
0.413146
0.383531
0.355236
0.564167
0.550648
0.538184
0.518101
0.493217
0.465506
0.436413
0.406972
0.378103
0.350679
0.545188
0.533133
0.522647
0.504449
0.481227
0.454981
0.427162
0.398802
0.370913
0.344625
0.521751
0.511487
0.503439
0.487565
0.466394
0.441956
0.415712
0.388687
0.361999
0.337096
0.494045
0.485874
0.4807
0.467571
0.448822
0.426519
0.402137
0.376692
0.351414
0.328119
0.462294
0.456488
0.454599
0.444608
0.428631
0.408773
0.386526
0.362892
0.339216
0.317733
0.426756
0.423553
0.425327
0.41884
0.405962
0.388837
0.36898
0.347376
0.325477
0.305982
0.387721
0.387321
0.393103
0.390454
0.380973
0.366846
0.349614
0.330243
0.310276
0.292919
0.34551
0.348072
0.358167
0.359652
0.353838
0.342949
0.328556
0.311601
0.293702
0.278606
0.30047
0.306111
0.320781
0.326658
0.324746
0.317307
0.305945
0.29157
0.275851
0.263112
0.252974
0.26177
0.281228
0.29171
0.293902
0.290094
0.28193
0.270279
0.25683
0.246511
0.20341
0.215408
0.239809
0.255061
0.26152
0.261494
0.256673
0.247866
0.236745
0.22888
0.152183
0.167404
0.196839
0.216976
0.227825
0.231701
0.230342
0.224485
0.215721
0.210299
0.0997274
0.118141
0.152642
0.177731
0.193053
0.200911
0.203117
0.200301
0.193871
0.190818
0.0464941
0.0680114
0.107554
0.137611
0.157442
0.169322
0.175171
0.175503
0.171366
0.170497
-0.00705483
0.0174175
0.0619184
0.0969049
0.121238
0.137137
0.146676
0.150308
0.148417
0.149228
-0.0604521
-0.0332333
0.0160859
0.0559056
0.0846918
0.104552
0.11776
0.124875
0.125391
0.12699
-0.113228
-0.0835352
-0.0295906
0.0149041
0.0480519
0.071783
0.0885572
0.099353
0.102899
0.103525
-0.164914
-0.133097
-0.0747571
-0.0258155
0.0115611
0.0390549
0.0591837
0.0735385
0.0810718
0.0797582
-0.215041
-0.181549
-0.119061
-0.0659842
-0.0245538
0.00659169
0.0298618
0.0473452
0.0589651
0.0612088
-0.263128
-0.22857
-0.162163
-0.105359
-0.0600764
-0.0253963
0.00087805
0.021131
0.0364895
0.0435991
-0.308637
-0.27373
-0.203783
-0.143734
-0.0947898
-0.0567231
-0.027542
-0.00476173
0.013608
0.0248535
-0.351374
-0.316227
-0.243852
-0.180907
-0.128464
-0.0872264
-0.055269
-0.0301321
-0.00934095
0.0050535
-0.391009
-0.355145
-0.282643
-0.21658
-0.160869
-0.11676
-0.0822108
-0.0548662
-0.0319848
-0.0149885
-0.427324
-0.390981
-0.319183
-0.250277
-0.191805
-0.145179
-0.108262
-0.078874
-0.0541139
-0.0347618
-0.460118
-0.423845
-0.35271
-0.281814
-0.221114
-0.172336
-0.1333
-0.102064
-0.0756327
-0.0541251
-0.489165
-0.453427
-0.383115
-0.31108
-0.248651
-0.198087
-0.157201
-0.124344
-0.0964809
-0.0730356
-0.514281
-0.479419
-0.410476
-0.33796
-0.274312
-0.222302
-0.179859
-0.145624
-0.116605
-0.0914205
-0.535361
-0.501632
-0.434732
-0.362361
-0.298075
-0.244854
-0.201197
-0.165813
-0.135953
-0.109196
-0.55237
-0.519966
-0.45576
-0.384175
-0.319762
-0.265819
-0.221182
-0.184824
-0.154454
-0.126317
-0.565334
-0.534378
-0.473465
-0.403327
-0.339272
-0.28511
-0.239916
-0.202628
-0.171957
-0.142828
-0.57434
-0.54489
-0.487808
-0.419791
-0.356589
-0.302623
-0.25727
-0.219483
-0.188187
-0.158887
-0.579536
-0.551586
-0.49881
-0.433581
-0.371733
-0.318336
-0.273139
-0.235149
-0.203376
-0.174544
-0.581128
-0.554628
-0.506542
-0.444738
-0.384744
-0.332279
-0.287518
-0.249592
-0.217689
-0.189218
-0.579382
-0.554256
-0.511136
-0.453334
-0.395677
-0.344509
-0.300464
-0.262853
-0.231047
-0.202665
-0.574621
-0.550794
-0.512785
-0.459474
-0.404607
-0.355094
-0.312043
-0.27497
-0.243401
-0.215026
-0.567226
-0.544648
-0.511745
-0.46329
-0.411628
-0.364114
-0.322321
-0.285987
-0.254801
-0.22654
-0.557629
-0.536299
-0.508315
-0.464937
-0.416855
-0.371661
-0.331373
-0.295969
-0.265337
-0.237385
-0.546306
-0.5263
-0.502794
-0.46459
-0.420424
-0.377841
-0.339284
-0.304996
-0.275091
-0.247654
-0.533753
-0.515212
-0.495511
-0.462459
-0.422486
-0.382775
-0.346152
-0.313152
-0.28413
-0.257404
-0.520459
-0.503538
-0.486839
-0.458793
-0.423208
-0.386584
-0.352078
-0.320524
-0.292512
-0.266669
-0.506883
-0.491686
-0.47721
-0.453879
-0.42276
-0.389388
-0.357159
-0.327194
-0.3003
-0.27548
-0.493425
-0.479958
-0.467097
-0.448018
-0.421308
-0.391299
-0.361486
-0.333248
-0.307565
-0.283878
-0.480409
-0.46857
-0.456983
-0.441505
-0.419003
-0.392419
-0.365145
-0.338765
-0.314385
-0.291923
-0.468076
-0.457695
-0.447297
-0.434603
-0.415987
-0.392839
-0.368207
-0.343817
-0.320838
-0.299687
-0.456583
-0.447487
-0.438326
-0.427566
-0.412406
-0.392637
-0.370727
-0.348465
-0.327001
-0.307249
-0.446014
-0.43808
-0.430175
-0.420667
-0.408411
-0.391869
-0.372738
-0.352758
-0.332946
-0.314692
-0.436392
-0.429561
-0.4228
-0.414188
-0.40415
-0.390574
-0.374254
-0.356723
-0.33874
-0.322106
-0.427698
-0.421953
-0.416112
-0.408336
-0.399759
-0.388783
-0.375265
-0.360376
-0.344438
-0.329583
-0.41989
-0.415209
-0.410048
-0.403133
-0.395379
-0.386534
-0.375753
-0.363712
-0.350104
-0.337225
-0.412924
-0.409245
-0.404579
-0.398419
-0.391157
-0.383889
-0.375694
-0.366728
-0.35577
-0.345155
-0.406778
-0.403991
-0.399679
-0.394003
-0.387183
-0.380953
-0.375101
-0.369407
-0.361516
-0.353477
-0.401454
-0.399441
-0.39532
-0.389816
-0.383433
-0.377893
-0.374047
-0.371786
-0.367339
-0.362431
-0.39707
-0.395596
-0.391524
-0.385949
-0.37985
-0.374921
-0.372736
-0.373911
-0.373378
-0.372074
-0.393706
-0.392508
-0.388406
-0.382594
-0.376544
-0.372252
-0.371513
-0.375976
-0.379553
-0.383024
-0.39144
-0.390265
-0.386069
-0.379988
-0.373856
-0.370163
-0.370839
-0.378291
-0.386008
-0.395205
-0.390282
-0.388887
-0.384583
-0.378342
-0.372206
-0.369103
-0.371179
-0.381299
-0.392709
-0.409852
-0.390143
-0.388287
-0.383936
-0.377756
-0.371933
-0.369598
-0.372922
-0.385864
-0.399016
-0.426877
-0.390835
-0.38831
-0.384013
-0.378204
-0.373185
-0.371979
-0.376814
-0.391697
-0.408074
-0.438216
-0.392089
-0.388774
-0.384643
-0.379589
-0.375971
-0.376419
-0.383435
-0.399027
-0.420638
-0.448021
-0.39363
-0.389476
-0.38568
-0.381811
-0.380225
-0.382932
-0.392838
-0.40887
-0.435977
-0.459197
-0.395175
-0.390246
-0.387013
-0.384777
-0.3858
-0.391383
-0.404742
-0.421778
-0.452962
-0.472914
-0.396443
-0.390928
-0.388526
-0.388333
-0.3924
-0.40138
-0.418466
-0.437368
-0.471
-0.490192
-0.39714
-0.391346
-0.390043
-0.392201
-0.399536
-0.412219
-0.432999
-0.454504
-0.49007
-0.510546
-0.396952
-0.391278
-0.391294
-0.395947
-0.406551
-0.422978
-0.447213
-0.471951
-0.509542
-0.532153
-0.395558
-0.390451
-0.391915
-0.399033
-0.412715
-0.432685
-0.460032
-0.488394
-0.528071
-0.55362
-0.392656
-0.388555
-0.391494
-0.400899
-0.41734
-0.440478
-0.470584
-0.502637
-0.544153
-0.572611
-0.388008
-0.385294
-0.389642
-0.401063
-0.419878
-0.445717
-0.478255
-0.513729
-0.556786
-0.588289
-0.381484
-0.380439
-0.386069
-0.399208
-0.419991
-0.448044
-0.482678
-0.521017
-0.565462
-0.599562
-0.373107
-0.3739
-0.38065
-0.395232
-0.417596
-0.4474
-0.483734
-0.524314
-0.569921
-0.606018
-0.363083
-0.365781
-0.373526
-0.389235
-0.412849
-0.443978
-0.481637
-0.524006
-0.569608
-0.608495
-0.351798
-0.356394
-0.364993
-0.381598
-0.406148
-0.438216
-0.47682
-0.52026
-0.565726
-0.606976
-0.339874
-0.346244
-0.355578
-0.372888
-0.398103
-0.430774
-0.469927
-0.513805
-0.559196
-0.601864
-0.328055
-0.33602
-0.345974
-0.363824
-0.38948
-0.422473
-0.461816
-0.505678
-0.550951
-0.594108
-0.317182
-0.326507
-0.336967
-0.355217
-0.381139
-0.414237
-0.453497
-0.497063
-0.542063
-0.585048
-0.308103
-0.3185
-0.329349
-0.347879
-0.373939
-0.407006
-0.446033
-0.489178
-0.533772
-0.576248
-0.301573
-0.312711
-0.323824
-0.34253
-0.368648
-0.401632
-0.440408
-0.483158
-0.527338
-0.569279
-0.298156
-0.309674
-0.32092
-0.33971
-0.365846
-0.398767
-0.437386
-0.479899
-0.523818
-0.565429
-0.599254
-0.619253
-0.624988
-0.612413
-0.584237
-0.538611
-0.475369
-0.390152
-0.282895
-0.163013
-0.0507369
0.0366594
0.0914662
0.118803
0.125738
0.120455
0.108971
0.0951664
0.0811991
0.0682167
0.056652
0.0466386
0.0379793
0.0305686
0.0241113
0.0186028
0.0137073
0.00951636
0.00553033
0.00197309
-0.603624
-0.623217
-0.628821
-0.616054
-0.587801
-0.542518
-0.479955
-0.395676
-0.288718
-0.168212
-0.0547464
0.0336741
0.0894561
0.117323
0.12467
0.119692
0.108431
0.0947865
0.0809311
0.0680248
0.0565125
0.0465368
0.0379054
0.030516
0.0240745
0.0185776
0.0136906
0.00950576
0.00552453
0.00197086
-0.611642
-0.630492
-0.635837
-0.622763
-0.59438
-0.54974
-0.488497
-0.406049
-0.299791
-0.178216
-0.0626233
0.0278461
0.0853571
0.114336
0.12251
0.118149
0.107339
0.0940215
0.0803932
0.0676415
0.0562348
0.0463345
0.0377589
0.0304116
0.0240014
0.0185276
0.0136573
0.00948463
0.00551296
0.00196645
-0.621979
-0.639942
-0.644936
-0.631572
-0.603072
-0.559291
-0.499924
-0.420117
-0.3151
-0.192334
-0.074133
0.0193821
0.0791697
0.109815
0.119234
0.115806
0.105685
0.0928647
0.0795833
0.0670676
0.0558214
0.0460345
0.037542
0.030257
0.023893
0.0184532
0.0136078
0.00945311
0.00549571
0.00196002
-0.632944
-0.650188
-0.654879
-0.641382
-0.612884
-0.570084
-0.512999
-0.43651
-0.333391
-0.209801
-0.0885548
0.00841534
0.0709802
0.103764
0.114831
0.112654
0.103462
0.0913133
0.0785016
0.0663057
0.0552761
0.0456406
0.0372575
0.030054
0.0237505
0.0183552
0.0135425
0.00941139
0.00547289
0.00195183
-0.642788
-0.65983
-0.664499
-0.651181
-0.622929
-0.581169
-0.526564
-0.453891
-0.353478
-0.229768
-0.104885
-0.00483453
0.0609221
0.096243
0.109331
0.108708
0.100679
0.0893726
0.0771523
0.0653604
0.0546038
0.0451571
0.0369091
0.0298052
0.0235754
0.0182344
0.0134618
0.00935972
0.00544472
0.00194248
-0.649963
-0.667565
-0.672783
-0.660128
-0.632502
-0.591856
-0.53974
-0.47122
-0.374296
-0.250275
-0.123029
-0.0198891
0.0491883
0.0873579
0.102794
0.104007
0.0973601
0.0870572
0.0755448
0.0642386
0.0538102
0.0445888
0.0365004
0.0295131
0.0233695
0.0180919
0.0133663
0.00929836
0.00541138
0.00192741
-0.653375
-0.672272
-0.67885
-0.667534
-0.641072
-0.601697
-0.551985
-0.487707
-0.393896
-0.271093
-0.142362
-0.0363518
0.0360265
0.0772557
0.0953085
0.0986059
0.0935425
0.08439
0.0736929
0.0629495
0.052902
0.0439408
0.0360351
0.0291802
0.0231343
0.0179286
0.0132567
0.00922762
0.00537289
0.00190957
-0.651793
-0.673321
-0.681929
-0.672819
-0.648095
-0.610229
-0.562775
-0.502102
-0.412673
-0.291615
-0.162251
-0.0538083
0.021715
0.0661115
0.0869846
0.0925738
0.0892705
0.0813994
0.071614
0.0615036
0.0518862
0.0432181
0.035517
0.0288093
0.0228717
0.0177455
0.0131334
0.00914779
0.00532935
0.00189054
-0.644708
-0.670011
-0.681399
-0.675275
-0.653243
-0.617477
-0.572173
-0.514808
-0.429591
-0.311213
-0.182103
-0.0718507
0.00654304
0.0541158
0.0779433
0.0859864
0.0845914
0.078116
0.0693271
0.0599126
0.0507703
0.0424258
0.0349495
0.0284026
0.0225833
0.0175438
0.0129972
0.00905921
0.00528096
0.00187038
-0.632252
-0.662212
-0.677253
-0.674687
-0.655956
-0.622972
-0.579893
-0.525463
-0.444412
-0.329393
-0.201459
-0.0901067
-0.00920559
0.0414639
0.0683123
0.0789231
0.0795524
0.074571
0.0668517
0.0581883
0.0495616
0.0415686
0.0343361
0.0279626
0.0222706
0.0173243
0.0128485
0.00896219
0.00522789
0.00184893
-0.614709
-0.650017
-0.669194
-0.670814
-0.65613
-0.626449
-0.585826
-0.533955
-0.456853
-0.3458
-0.219947
-0.108246
-0.0252629
0.028347
0.0582192
0.0714671
0.0741987
0.0707942
0.0642069
0.0563424
0.0482671
0.0406513
0.0336798
0.0274915
0.021935
0.017088
0.012688
0.00885705
0.00517032
0.00182608
-0.59346
-0.633907
-0.657501
-0.663693
-0.653596
-0.627771
-0.589843
-0.540243
-0.46672
-0.360146
-0.237274
-0.125989
-0.0413901
0.0149398
0.0477803
0.0636876
0.0685714
0.0668118
0.0614102
0.0543859
0.0468938
0.0396782
0.0329836
0.0269912
0.021578
0.0168359
0.0125161
0.00874412
0.0051084
0.00180183
-0.570429
-0.614854
-0.642782
-0.653678
-0.648387
-0.626828
-0.591876
-0.544393
-0.473909
-0.372202
-0.25322
-0.143128
-0.0574029
0.00138258
0.0370912
0.0556456
0.0627082
0.0626454
0.0584763
0.0523287
0.0454479
0.0386532
0.0322503
0.0264638
0.0212008
0.0165687
0.0123334
0.00862369
0.00504229
0.00177624
-0.547544
-0.594103
-0.625822
-0.641242
-0.640722
-0.623604
-0.59183
-0.546367
-0.47861
-0.381841
-0.267623
-0.159502
-0.0731455
-0.0121922
0.0262497
0.0474112
0.0566573
0.0583187
0.0554187
0.0501791
0.0439347
0.03758
0.0314821
0.0259108
0.0208046
0.0162873
0.0121403
0.00849607
0.00497211
0.00174937
-0.526176
-0.572794
-0.607433
-0.626922
-0.63085
-0.618104
-0.589583
-0.546148
-0.481064
-0.389037
-0.280226
-0.174816
-0.0883352
-0.0255544
0.0154174
0.0390898
0.0504878
0.0538693
0.0522574
0.0479469
0.0423592
0.036461
0.0306807
0.0253333
0.0203902
0.0159921
0.0119372
0.00836141
0.00489791
0.00172127
-0.507171
-0.551723
-0.58817
-0.611132
-0.618986
-0.610298
-0.584973
-0.543621
-0.481246
-0.393904
-0.290724
-0.188712
-0.1027
-0.0385203
0.00470243
0.0307385
0.0442236
0.0493165
0.0490141
0.0456475
0.0407301
0.0353012
0.0298488
0.024733
0.0199585
0.0156838
0.0117243
0.00821994
0.00481978
0.00169199
-0.490857
-0.531465
-0.56852
-0.593983
-0.605206
-0.600248
-0.578078
-0.539026
-0.479699
-0.397324
-0.300033
-0.202061
-0.117049
-0.051713
-0.00631048
0.0221093
0.0377266
0.0445784
0.0456612
0.0432831
0.0390577
0.0341108
0.0289945
0.0241159
0.0195139
0.0153654
0.0115038
0.00807301
0.0047385
0.00166186
-0.476912
-0.511999
-0.548601
-0.576243
-0.58958
-0.587907
-0.569026
-0.532998
-0.477775
-0.401293
-0.309996
-0.21636
-0.132476
-0.0658876
-0.0180868
0.012948
0.0308774
0.0395827
0.0421182
0.0408057
0.037321
0.0328833
0.028118
0.0234847
0.0190594
0.0150398
0.0112777
0.0079221
0.00465499
0.00163135
-0.466771
-0.493919
-0.526349
-0.553673
-0.569861
-0.570522
-0.554996
-0.522269
-0.471058
-0.400026
-0.31429
-0.224758
-0.142968
-0.0767093
-0.0278545
0.00486132
0.02453
0.0347631
0.038523
0.0381999
0.0354559
0.0315496
0.0271607
0.0227941
0.0185622
0.0146835
0.0110303
0.00775674
0.00456324
0.00159846
-0.447775
-0.477799
-0.509592
-0.535372
-0.549998
-0.550639
-0.535142
-0.502223
-0.451533
-0.383288
-0.302528
-0.219068
-0.142811
-0.0803123
-0.0334438
-0.0012506
0.0187931
0.0298157
0.0345263
0.0351028
0.0331108
0.0297914
0.0258537
0.0218276
0.0178576
0.0141738
0.0106758
0.00751837
0.00443035
0.00155078
-0.432255
-0.462194
-0.48814
-0.507404
-0.517752
-0.516457
-0.500589
-0.46876
-0.421181
-0.358947
-0.286438
-0.211603
-0.142535
-0.0847875
-0.0403996
-0.00891882
0.0115264
0.0234876
0.0293079
0.0309524
0.0298996
0.0273497
0.0240223
0.0204649
0.0168593
0.0134517
0.0101743
0.00718403
0.00424344
0.0014827
-0.414548
-0.442233
-0.461464
-0.474642
-0.481763
-0.479337
-0.464266
-0.435025
-0.391937
-0.336474
-0.272145
-0.205258
-0.142591
-0.089073
-0.0469361
-0.0161856
0.00452745
0.0172718
0.0240751
0.0267134
0.0265662
0.0247786
0.0220693
0.0189964
0.0157737
0.0126611
0.00962167
0.00681479
0.0040359
0.00140844
-0.394215
-0.418674
-0.433031
-0.441796
-0.445902
-0.442529
-0.428558
-0.402287
-0.36384
-0.314646
-0.257724
-0.198202
-0.141692
-0.0924597
-0.0527582
-0.0229672
-0.00219702
0.0111729
0.0188553
0.0224267
0.0231546
0.0221198
0.0200318
0.0174533
0.0146257
0.0118209
0.00903139
0.00641942
0.00381317
0.00132985
-0.37151
-0.393597
-0.404675
-0.410009
-0.411543
-0.407375
-0.394573
-0.37127
-0.337284
-0.293933
-0.243874
-0.191191
-0.140425
-0.0952761
-0.0579918
-0.0292699
-0.008606
0.00523835
0.0136854
0.0181143
0.0196748
0.0193758
0.0179082
0.015832
0.0134112
0.010927
0.0084002
0.00599553
0.00357355
0.00124583
-0.348205
-0.368237
-0.376937
-0.379746
-0.379322
-0.374574
-0.362904
-0.342363
-0.312533
-0.274538
-0.23064
-0.184093
-0.13859
-0.0973458
-0.062524
-0.0350233
-0.0146467
-0.000488107
0.00860062
0.0138024
0.0161445
0.0165571
0.0157034
0.0141338
0.0121292
0.00997762
0.00772612
0.00554146
0.00331581
0.00115592
-0.325152
-0.34311
-0.35011
-0.351238
-0.349475
-0.344357
-0.333709
-0.315651
-0.289606
-0.256428
-0.218
-0.176955
-0.136298
-0.0987801
-0.0664193
-0.0402399
-0.0202976
-0.00597242
0.00363528
0.00952002
0.0125859
0.0136789
0.013427
0.012364
0.0107825
0.00897394
0.00700933
0.00505707
0.00303974
0.00106016
-0.302531
-0.318626
-0.324415
-0.324505
-0.321915
-0.316624
-0.306909
-0.291061
-0.268404
-0.239519
-0.205946
-0.169826
-0.133597
-0.0995923
-0.069663
-0.0448901
-0.0255214
-0.0111755
-0.00117438
0.00529793
0.00902266
0.0107581
0.0110903
0.0105297
0.00937504
0.00791792
0.00625067
0.00454264
0.00274537
0.000958588
-0.280679
-0.2951
-0.299984
-0.299477
-0.29645
-0.29118
-0.282347
-0.268458
-0.248801
-0.223726
-0.194459
-0.162732
-0.130527
-0.0998214
-0.0722782
-0.048976
-0.0303004
-0.0160683
-0.00579609
0.00116605
0.00547954
0.0078134
0.00870607
0.00863916
0.00791174
0.00681232
0.00545148
0.00399877
0.00243288
0.000851241
-0.259808
-0.272669
-0.276918
-0.276084
-0.272901
-0.267815
-0.259835
-0.247686
-0.230671
-0.208964
-0.183505
-0.15569
-0.127137
-0.0995139
-0.0742899
-0.0524987
-0.0346171
-0.0206223
-0.010198
-0.00284536
0.0019823
0.0048647
0.00628877
0.00670208
0.00639883
0.00566086
0.00461386
0.00342656
0.00210277
0.000738266
-0.239937
-0.251395
-0.255154
-0.25423
-0.251107
-0.246336
-0.239186
-0.228592
-0.213898
-0.195153
-0.173055
-0.14872
-0.123476
-0.0987185
-0.0757285
-0.0554669
-0.0384617
-0.0248154
-0.014352
-0.00670753
-0.00144322
0.00193311
0.00385429
0.00472974
0.00484385
0.00446836
0.00374069
0.00282764
0.00175584
0.000619907
-0.221143
-0.231354
-0.23473
-0.233852
-0.230935
-0.226573
-0.220232
-0.211028
-0.19837
-0.182219
-0.163082
-0.141845
-0.119591
-0.0974866
-0.0766299
-0.0578958
-0.0418308
-0.0286303
-0.0182332
-0.0103933
-0.00477139
-0.000959557
0.00141975
0.00273477
0.00325562
0.00324071
0.0028357
0.00220422
0.00139325
0.000496514
-0.2035
-0.212574
-0.215644
-0.214898
-0.21228
-0.208382
-0.202818
-0.194862
-0.183987
-0.170103
-0.153572
-0.135089
-0.115533
-0.0958706
-0.0770348
-0.0598072
-0.0447276
-0.0320554
-0.0218208
-0.013878
-0.00797752
-0.00379125
-0.000996807
0.000730989
0.0016442
0.00198486
0.00190348
0.00155914
0.00101652
0.000368549
-0.187012
-0.195056
-0.19788
-0.197317
-0.195049
-0.191639
-0.186811
-0.179971
-0.170659
-0.158756
-0.144516
-0.128477
-0.111349
-0.0939236
-0.0769874
-0.0612285
-0.0471617
-0.0350851
-0.0250988
-0.01714
-0.0110384
-0.0065402
-0.00337676
-0.00126677
2.07497e-05
0.000708838
0.000949503
0.000895843
0.00062757
0.000236597
-0.171681
-0.178801
-0.18142
-0.181062
-0.17916
-0.176237
-0.172096
-0.166253
-0.158311
-0.14814
-0.135911
-0.122038
-0.107085
-0.0916985
-0.076535
-0.0621925
-0.0491489
-0.03772
-0.0280559
-0.0201611
-0.013933
-0.00918545
-0.00570131
-0.00324295
-0.00160259
-0.000578359
-1.99032e-05
0.000218447
0.000228712
0.000101376
-0.157507
-0.163791
-0.166233
-0.166078
-0.164539
-0.162084
-0.158576
-0.153623
-0.146882
-0.138222
-0.127755
-0.115795
-0.102785
-0.0892475
-0.0757269
-0.0627366
-0.0507111
-0.0399667
-0.0306864
-0.0229271
-0.0166429
-0.0117073
-0.00795196
-0.00518157
-0.0032129
-0.00186686
-0.000997603
-0.000468315
-0.00017735
-3.62635e-05
-0.144462
-0.149993
-0.152274
-0.152313
-0.151119
-0.149103
-0.146173
-0.142009
-0.13632
-0.128978
-0.120051
-0.109773
-0.0984907
-0.0866222
-0.074614
-0.0629026
-0.0518755
-0.0418377
-0.03299
-0.0254283
-0.0191525
-0.0140881
-0.0101109
-0.00706655
-0.00479671
-0.00314606
-0.00197573
-0.0011591
-0.000587522
-0.000175331
-0.132508
-0.137366
-0.139499
-0.139715
-0.138839
-0.137228
-0.134818
-0.131352
-0.12658
-0.120384
-0.112799
-0.103996
-0.094244
-0.0838734
-0.0732481
-0.0627351
-0.0526743
-0.0433511
-0.0349719
-0.0276597
-0.0214501
-0.0163122
-0.0121617
-0.00888219
-0.00634031
-0.0044048
-0.00294577
-0.00184803
-0.000998345
-0.000314705
-0.121608
-0.125865
-0.127861
-0.128232
-0.127645
-0.126399
-0.124454
-0.121599
-0.117625
-0.112422
-0.106001
-0.098488
-0.090084
-0.0810508
-0.0716814
-0.0622812
-0.0531438
-0.0445301
-0.0366426
-0.0296209
-0.0235274
-0.0183669
-0.0140893
-0.0106134
-0.00783001
-0.00563154
-0.00389873
-0.00252873
-0.00140603
-0.000453141
-0.111719
-0.115444
-0.117311
-0.117816
-0.117485
-0.116566
-0.115029
-0.112707
-0.109423
-0.105076
-0.099663
-0.0932702
-0.0860492
-0.0782031
-0.0699659
-0.0615895
-0.0533236
-0.0454024
-0.0380175
-0.0313165
-0.0253806
-0.0202423
-0.0158807
-0.0122463
-0.00925247
-0.00681466
-0.00482525
-0.00319444
-0.0018065
-0.000589282
-0.102798
-0.106055
-0.107802
-0.108419
-0.108313
-0.10768
-0.106501
-0.104638
-0.101947
-0.0983347
-0.0937886
-0.0883656
-0.0821765
-0.0753775
-0.0681534
-0.0607097
-0.0532564
-0.0459999
-0.039117
-0.0327559
-0.0270097
-0.021932
-0.0175255
-0.0137683
-0.010595
-0.00794264
-0.00571578
-0.0038381
-0.00219543
-0.000721678
-0.0948084
-0.0976556
-0.0992898
-0.100002
-0.100087
-0.0997019
-0.0988301
-0.0973619
-0.0951754
-0.0921907
-0.0883861
-0.083797
-0.0785024
-0.0726202
-0.0662946
-0.059692
-0.0529866
-0.0463578
-0.0399653
-0.0339527
-0.0284188
-0.0234327
-0.0190154
-0.0151685
-0.0118457
-0.00900426
-0.00656076
-0.00445246
-0.00256833
-0.000848798
-0.0877162
-0.090218
-0.0917758
-0.0925351
-0.0927736
-0.0925972
-0.0919871
-0.0908532
-0.0890943
-0.0866405
-0.0834654
-0.0795882
-0.0750627
-0.0699763
-0.0644399
-0.0585868
-0.0525602
-0.0465143
-0.0405905
-0.0349245
-0.0296161
-0.0247446
-0.0203448
-0.0164377
-0.0129939
-0.0099888
-0.00735074
-0.00503021
-0.00292053
-0.000969045
-0.0814759
-0.0836675
-0.0851166
-0.0859494
-0.0863297
-0.0863348
-0.0859472
-0.0850946
-0.0836943
-0.0816856
-0.07904
-0.0757645
-0.0718937
-0.0674904
-0.0626387
-0.0574446
-0.0520244
-0.0465095
-0.0410237
-0.0356923
-0.030613
-0.025871
-0.0215107
-0.0175687
-0.01403
-0.0108861
-0.00807643
-0.00556399
-0.00324733
-0.00108078
-0.0760744
-0.0780056
-0.0793706
-0.0802498
-0.0807439
-0.0808996
-0.080697
-0.0800776
-0.0789737
-0.0773334
-0.0751274
-0.0723539
-0.0690325
-0.0652072
-0.0609402