/*--------------------------------*- C++ -*----------------------------------*\
  =========                 |
  \\      /  F ield         | OpenFOAM: The Open Source CFD Toolbox
   \\    /   O peration     | Website:  https://openfoam.org
    \\  /    A nd           | Version:  7
     \\/     M anipulation  |
\*---------------------------------------------------------------------------*/
FoamFile
{
    version     2.0;
    format      ascii;
    class       surfaceScalarField;
    location    "5";
    object      phi;
}
// * * * * * * * * * * * * * * * * * * * * * * * * * * * * * * * * * * * * * //

dimensions      [0 3 -1 0 0 0 0];

internalField   nonuniform List<scalar> 
16735
(
-9.57865e-06
9.57868e-06
-3.36528e-11
-2.80423e-05
1.84637e-05
-4.37599e-11
-5.11766e-05
2.31342e-05
-2.7466e-11
-7.75449e-05
2.63684e-05
2.42333e-12
-0.000107043
2.94978e-05
4.25921e-11
-0.000139755
3.27122e-05
9.27484e-11
-0.000175549
3.57943e-05
1.52306e-10
-0.000213983
3.8433e-05
2.19478e-10
-0.000254303
4.03197e-05
2.90223e-10
4.12686e-05
3.57595e-10
-0.000295572
-9.10011e-06
1.86788e-05
-2.68853e-05
3.6249e-05
-4.92994e-05
4.55483e-05
-7.48545e-05
5.19234e-05
-0.000103355
5.79979e-05
-0.000134807
6.41642e-05
-0.000168998
6.99862e-05
-0.000205394
7.48282e-05
-0.000243105
7.80307e-05
7.92547e-05
-0.000281091
-8.17475e-06
2.68535e-05
-2.46325e-05
5.27067e-05
-4.56365e-05
6.65523e-05
-6.96093e-05
7.58963e-05
-9.61837e-05
8.45723e-05
-0.000125222
9.32028e-05
-0.000156373
0.000101137
-0.000188949
0.000107405
-0.00022184
0.000110921
0.000111193
-0.000253778
-6.8641e-06
3.37176e-05
-2.14028e-05
6.72454e-05
-4.03632e-05
8.55127e-05
-6.20664e-05
9.75995e-05
-8.59122e-05
0.000108418
-0.000111573
0.000118864
-0.000138525
0.000128088
-0.000165927
0.000134807
-0.000192446
0.00013744
0.000135164
-0.000216416
-5.25577e-06
3.89734e-05
-1.73664e-05
7.9356e-05
-3.37271e-05
0.000101873
-5.25789e-05
0.000116451
-7.30513e-05
0.00012889
-9.46016e-05
0.000140414
-0.000116527
0.000150014
-0.000137861
0.000156141
-0.000157198
0.000156776
0.000150155
-0.000172188
-3.45833e-06
4.24317e-05
-1.27367e-05
8.86343e-05
-2.60335e-05
0.00011517
-4.15688e-05
0.000131987
-5.81905e-05
0.000145512
-7.51312e-05
0.000157355
-9.15284e-05
0.000166411
-0.000106292
0.000170905
-0.0001183
0.000168784
0.000155931
-0.000124077
-1.59572e-06
4.40275e-05
-7.76084e-06
9.47995e-05
-1.7632e-05
0.000125041
-2.95032e-05
0.000143858
-4.19574e-05
0.000157966
-5.39987e-05
0.000169396
-6.46498e-05
0.000177062
-7.26192e-05
0.000178874
-7.74912e-05
0.000173656
0.000153022
-7.45821e-05
2.22478e-07
4.3805e-05
-2.70752e-06
9.77295e-05
-8.90721e-06
0.000131241
-1.68784e-05
0.000151829
-2.49923e-05
0.00016608
-3.20189e-05
0.000176423
-3.6932e-05
0.000181975
-3.81513e-05
0.000180094
-3.59513e-05
0.000171456
0.000142944
-2.58733e-05
1.83914e-06
4.19658e-05
2.12252e-06
9.74461e-05
-3.02656e-07
0.000133666
-4.21755e-06
0.000155744
-7.94415e-06
0.000169807
-1.00046e-05
0.000178483
-9.32954e-06
0.0001813
-4.46528e-06
0.000175229
5.69382e-06
0.000161297
0.000127093
2.15451e-05
3.17991e-06
3.87859e-05
6.47886e-06
9.41471e-05
7.86222e-06
0.000132283
7.98592e-06
0.00015562
8.58423e-06
0.000169209
1.13349e-05
0.000175733
1.73572e-05
0.000175278
2.87032e-05
0.000163883
4.44477e-05
0.000145553
0.000103811
6.77289e-05
4.16025e-06
3.46257e-05
1.00892e-05
8.82182e-05
1.50589e-05
0.000127313
1.91546e-05
0.000151525
2.39325e-05
0.000164431
3.12415e-05
0.000168424
4.21132e-05
0.000164406
5.90771e-05
0.000146919
8.0636e-05
0.000123994
7.41587e-05
0.000110289
4.74118e-06
2.98845e-05
1.27469e-05
8.02125e-05
2.0917e-05
0.000119143
2.87303e-05
0.000143711
3.74187e-05
0.000155742
4.88824e-05
0.00015696
6.40751e-05
0.000149213
8.57864e-05
0.000125208
0.000111875
9.79056e-05
3.86879e-05
0.000147345
4.92668e-06
2.49578e-05
1.43253e-05
7.08139e-05
2.50919e-05
0.000108376
3.6178e-05
0.000132625
4.83769e-05
0.000143543
6.34622e-05
0.000141875
8.2346e-05
0.00013033
0.000107939
9.96148e-05
0.00013653
6.93151e-05
-1.35593e-06
0.000176574
4.75819e-06
2.01996e-05
1.47951e-05
6.0777e-05
2.73518e-05
9.58198e-05
4.10327e-05
0.000118944
5.61628e-05
0.000128413
7.41622e-05
0.000123875
9.59679e-05
0.000108524
0.000124444
7.11385e-05
0.000153574
4.01855e-05
-4.48583e-05
0.000197076
4.30206e-06
1.58976e-05
1.4229e-05
5.08501e-05
2.76263e-05
8.24225e-05
4.29911e-05
0.000103579
6.02436e-05
0.000111161
8.02541e-05
0.000103865
0.000104103
8.46753e-05
0.000133977
4.12637e-05
0.000163142
1.10211e-05
-9.19051e-05
0.000210189
3.63328e-06
1.22643e-05
1.27836e-05
4.16998e-05
2.60322e-05
6.91738e-05
4.20076e-05
8.7604e-05
6.03504e-05
9.28181e-05
8.13286e-05
8.28864e-05
0.000106308
5.9696e-05
0.00013579
1.17817e-05
0.000167091
-2.02805e-05
-0.000144887
0.000220073
2.8225e-06
9.44179e-06
1.06694e-05
3.38528e-05
2.28679e-05
5.69753e-05
3.83628e-05
7.21091e-05
5.66685e-05
7.45123e-05
7.76602e-05
6.18947e-05
0.000102976
3.43799e-05
0.000131523
-1.67653e-05
0.000170471
-5.92283e-05
-0.0002062
0.000231785
1.93274e-06
7.50905e-06
8.12654e-06
2.7659e-05
1.85865e-05
4.65153e-05
3.26907e-05
5.8005e-05
5.00207e-05
5.71823e-05
7.05673e-05
4.1348e-05
9.62489e-05
8.69831e-06
0.000126774
-4.72909e-05
0.00018002
-0.000112474
-0.000273993
0.000247813
1.0267e-06
6.48235e-06
5.41872e-06
2.3267e-05
1.37722e-05
3.81618e-05
2.59773e-05
4.57999e-05
4.19766e-05
4.11831e-05
6.25716e-05
2.0753e-05
9.04099e-05
-1.91399e-05
0.000129263
-8.61441e-05
0.000199424
-0.000182635
-0.000340582
0.000266013
1.79521e-07
6.30283e-06
2.8411e-06
2.06054e-05
9.11877e-06
3.18842e-05
1.95144e-05
3.54043e-05
3.4741e-05
2.59564e-05
5.70969e-05
-1.60296e-06
9.06171e-05
-5.26601e-05
0.000143289
-0.000138816
0.000223555
-0.000262901
-0.000402531
0.000285504
-5.35009e-07
6.83784e-06
7.15008e-07
1.93554e-05
5.36451e-06
2.72347e-05
1.47078e-05
2.6061e-05
3.06544e-05
1.00099e-05
5.73527e-05
-2.83012e-05
0.000100519
-9.58259e-05
0.000166472
-0.00020477
0.000245527
-0.000341956
-0.000481971
0.000324967
-1.02205e-06
7.85989e-06
-6.92661e-07
1.9026e-05
3.14222e-06
2.33998e-05
1.27134e-05
1.64898e-05
3.14154e-05
-8.6921e-06
6.50073e-05
-6.18932e-05
0.000119308
-0.000150126
0.000192079
-0.000277541
0.000269644
-0.000419521
-0.000556764
0.000344438
-1.23908e-06
9.09897e-06
-1.21891e-06
1.90059e-05
2.80337e-06
1.93775e-05
1.40881e-05
5.20505e-06
3.75313e-05
-3.21354e-05
7.9527e-05
-0.000103889
0.000142429
-0.000213028
0.000216461
-0.000351573
0.000286926
-0.000489986
-0.000615596
0.000345758
-1.18187e-06
1.02808e-05
-8.36339e-07
1.86603e-05
4.34942e-06
1.41917e-05
1.87091e-05
-9.15458e-06
4.83331e-05
-6.17594e-05
9.84297e-05
-0.000153985
0.000165486
-0.000280084
0.000235285
-0.000421373
0.000295614
-0.000550315
-0.000664208
0.000344225
-8.98399e-07
1.11792e-05
3.17455e-07
1.74445e-05
7.50032e-06
7.00887e-06
2.5998e-05
-2.76522e-05
6.24114e-05
-9.81729e-05
0.000118527
-0.000210101
0.000185021
-0.000346578
0.000247373
-0.000483725
0.000298274
-0.000601216
-0.000703144
0.000337211
-4.7112e-07
1.16504e-05
2.00012e-06
1.49732e-05
1.18482e-05
-2.83923e-06
3.52315e-05
-5.10355e-05
7.80664e-05
-0.000141008
0.000137068
-0.000269102
0.000199405
-0.000408915
0.000253347
-0.000537667
0.000295341
-0.000643209
-0.000734357
0.000326553
6.66729e-08
1.15837e-05
4.06363e-06
1.09763e-05
1.7038e-05
-1.58137e-05
4.57148e-05
-7.97122e-05
9.36352e-05
-0.000188928
0.000152285
-0.000327752
0.000208432
-0.000465062
0.000253987
-0.000583223
0.000288414
-0.000677636
-0.000759886
0.000313943
6.05238e-07
1.09785e-05
6.35431e-06
5.22721e-06
2.28369e-05
-3.22962e-05
5.67721e-05
-0.000113647
0.00010771
-0.000239866
0.000163406
-0.000383448
0.000212516
-0.000514172
0.000250432
-0.000621138
0.000278597
-0.000705802
-0.000780806
0.000299517
1.16807e-06
9.81039e-06
8.8179e-06
-2.42262e-06
2.9106e-05
-5.25843e-05
6.76957e-05
-0.000152237
0.000119302
-0.000291472
0.000170349
-0.000434495
0.0002124
-0.000556224
0.000243643
-0.000652381
0.000266714
-0.000728873
-0.000798373
0.000284281
1.75424e-06
8.05615e-06
1.14593e-05
-1.21277e-05
3.56969e-05
-7.6822e-05
7.77545e-05
-0.000194295
0.000127899
-0.000341617
0.00017343
-0.000480026
0.000208866
-0.00059166
0.000234471
-0.000677986
0.000253509
-0.000747911
-0.000813252
0.000268388
2.38265e-06
5.6735e-06
1.43003e-05
-2.40453e-05
4.23685e-05
-0.00010489
8.63028e-05
-0.000238229
0.000133401
-0.000388715
0.000173155
-0.00051978
0.000202663
-0.000621167
0.000223607
-0.00069893
0.000239407
-0.000763711
-0.000826022
0.000252178
3.07116e-06
2.60234e-06
1.73379e-05
-3.83121e-05
4.87814e-05
-0.000136334
9.29047e-05
-0.000282352
0.000135972
-0.000431782
0.000170097
-0.000553905
0.000194442
-0.000645512
0.000211567
-0.000716056
0.000224775
-0.00077692
-0.000837033
0.000235786
3.82805e-06
-1.22571e-06
2.05152e-05
-5.49993e-05
5.45474e-05
-0.000170366
9.73794e-05
-0.000325184
0.000135927
-0.000470329
0.000164808
-0.000582786
0.000184744
-0.000665448
0.000198752
-0.000730064
0.000209823
-0.00078799
-0.000846514
0.000219303
4.65016e-06
-5.87587e-06
2.37184e-05
-7.40675e-05
5.93214e-05
-0.000205969
9.97581e-05
-0.000365621
0.000133647
-0.000504218
0.000157789
-0.000606928
0.000174
-0.000681659
0.000185443
-0.000741507
0.000194706
-0.000797254
-0.000854612
0.000202804
5.52502e-06
-1.14009e-05
2.67917e-05
-9.53342e-05
6.28701e-05
-0.000242047
0.000100199
-0.00040295
0.000129528
-0.000533547
0.000149468
-0.000626868
0.000162545
-0.000694737
0.000171845
-0.000750807
0.000179522
-0.000804931
-0.000861403
0.000186314
6.43261e-06
-1.78335e-05
2.95655e-05
-0.000118467
6.50959e-05
-0.000277578
9.89238e-05
-0.000436777
0.000123941
-0.000558564
0.0001402
-0.000643128
0.000150633
-0.000705169
0.000158099
-0.000758273
0.000164336
-0.000811167
-0.000866935
0.000169868
7.34743e-06
-2.51809e-05
3.18867e-05
-0.000143006
6.60233e-05
-0.000311714
9.61848e-05
-0.000466939
0.000117218
-0.000579596
0.000130274
-0.000656184
0.00013845
-0.000713346
0.000144304
-0.000764127
0.000149191
-0.000816054
-0.000871224
0.00015348
8.24007e-06
-3.3421e-05
3.36416e-05
-0.000168408
6.57583e-05
-0.000343831
9.22378e-05
-0.000493418
0.000109643
-0.000597001
0.000119913
-0.000666454
0.000126137
-0.00071957
0.000130528
-0.000768518
0.000134119
-0.000819645
-0.000874278
0.000137174
9.0785e-06
-4.24995e-05
3.47653e-05
-0.000194095
6.44385e-05
-0.000373504
8.7325e-05
-0.000516305
0.000101453
-0.00061113
0.000109292
-0.000674292
0.000113791
-0.00072407
0.000116821
-0.000771548
0.000119146
-0.000821971
-0.000876099
0.000120967
9.82905e-06
-5.23285e-05
3.52397e-05
-0.000219505
6.22135e-05
-0.000400478
8.16637e-05
-0.000535755
9.28444e-05
-0.00062231
9.85413e-05
-0.000679989
0.000101485
-0.000727013
0.000103216
-0.000773279
0.000104291
-0.000823046
-0.000876691
0.000104884
1.04575e-05
-6.27861e-05
3.50855e-05
-0.000244133
5.92312e-05
-0.000424624
7.54423e-05
-0.000551966
8.39726e-05
-0.000630841
8.77615e-05
-0.000683778
8.92694e-05
-0.000728521
8.97398e-05
-0.00077375
8.95724e-05
-0.000822879
-0.000876047
8.89278e-05
1.09316e-05
-7.37177e-05
3.43491e-05
-0.000267551
5.56305e-05
-0.000445905
6.88201e-05
-0.000565156
7.49628e-05
-0.000636983
7.70271e-05
-0.000685842
7.71812e-05
-0.000728675
7.64098e-05
-0.000772978
7.49985e-05
-0.000821467
-0.000874129
7.30805e-05
1.12255e-05
-8.49432e-05
3.30913e-05
-0.000289416
5.154e-05
-0.000464354
6.19297e-05
-0.000575545
6.59132e-05
-0.000640967
6.63951e-05
-0.000686324
6.52491e-05
-0.000727529
6.32396e-05
-0.000770969
6.0577e-05
-0.000818805
-0.000870905
5.73535e-05
1.13259e-05
-9.62691e-05
3.14081e-05
-0.000309499
4.70796e-05
-0.000480025
5.48797e-05
-0.000583346
5.68984e-05
-0.000642986
5.59083e-05
-0.000685334
5.34993e-05
-0.00072512
5.02459e-05
-0.000767716
4.63126e-05
-0.000814871
-0.000866344
4.17515e-05
1.12311e-05
-0.0001075
2.93762e-05
-0.000327644
4.23544e-05
-0.000493004
4.77583e-05
-0.000588749
4.7975e-05
-0.000643202
4.55979e-05
-0.000682957
4.19561e-05
-0.000721478
3.7463e-05
-0.000763222
3.22101e-05
-0.000809619
-0.000860395
2.62613e-05
1.09483e-05
-0.000118448
2.70608e-05
-0.000343756
3.74525e-05
-0.000503395
4.06369e-05
-0.000591934
3.91864e-05
-0.000641752
3.54857e-05
-0.000679256
3.06337e-05
-0.000716626
2.49385e-05
-0.000757527
1.83159e-05
-0.000802996
-0.000852893
1.08135e-05
1.04921e-05
-0.000128941
2.45229e-05
-0.000357787
3.2447e-05
-0.000511319
3.35724e-05
-0.000593059
3.05663e-05
-0.000638746
2.55903e-05
-0.00067428
1.95323e-05
-0.000710568
1.26616e-05
-0.000750657
4.86999e-06
-0.000795204
-0.000843591
-4.43177e-06
9.88247e-06
-0.000138823
2.18181e-05
-0.000369723
2.73986e-05
-0.0005169
2.66094e-05
-0.00059227
2.21403e-05
-0.000634277
1.59289e-05
-0.000668069
8.65891e-06
-0.000703298
3.22924e-07
-0.000742321
-8.51137e-06
-0.00078637
-0.000833396
-1.87065e-05
9.14266e-06
-0.000147966
1.8997e-05
-0.000379577
2.23575e-05
-0.00052026
1.97807e-05
-0.000589693
1.39269e-05
-0.000628423
6.49533e-06
-0.000660637
-1.98473e-06
-0.000694818
-1.11614e-05
-0.000733144
-2.1648e-05
-0.000775883
-0.000822137
-3.29073e-05
8.29716e-06
-0.000156263
1.61056e-05
-0.000387385
1.73651e-05
-0.00052152
1.31097e-05
-0.000585438
5.92709e-06
-0.00062124
-2.68737e-06
-0.000652023
-1.217e-05
-0.000685336
-2.26402e-05
-0.000722674
-3.43609e-05
-0.000764163
-0.000809625
-4.68727e-05
7.36957e-06
-0.000163632
1.31854e-05
-0.000393201
1.2455e-05
-0.000520789
6.62154e-06
-0.000579605
-1.86443e-06
-0.000612754
-1.1509e-05
-0.000642378
-2.21582e-05
-0.000674686
-3.38494e-05
-0.000710982
-4.67363e-05
-0.000751276
-0.000795845
-6.0516e-05
6.38209e-06
-0.000170015
1.02713e-05
-0.00039709
7.65684e-06
-0.000518175
3.52247e-07
-0.0005723
-9.2683e-06
-0.000603134
-2.00986e-05
-0.000631548
-3.18826e-05
-0.000662902
-4.47431e-05
-0.000698122
-5.87923e-05
-0.000737227
-0.000780819
-7.38189e-05
5.35905e-06
-0.000175374
7.39059e-06
-0.000399122
3.01952e-06
-0.000513804
-5.70044e-06
-0.00056358
-1.64909e-05
-0.000592343
-2.84242e-05
-0.000619615
-4.13216e-05
-0.000650005
-5.53173e-05
-0.000684126
-7.05204e-05
-0.000722023
-0.000764591
-8.67483e-05
4.3307e-06
-0.000179704
4.57883e-06
-0.00039937
-1.50111e-06
-0.000507724
-1.15523e-05
-0.000553529
-2.34755e-05
-0.00058042
-3.64803e-05
-0.00060661
-5.04655e-05
-0.00063602
-6.55711e-05
-0.000669021
-8.1908e-05
-0.000705687
-0.000747242
-9.9257e-05
3.31869e-06
-0.000183023
1.93946e-06
-0.000397991
-5.89795e-06
-0.000499887
-1.72076e-05
-0.000542219
-3.02151e-05
-0.000567413
-4.42633e-05
-0.000592562
-5.93081e-05
-0.000620975
-7.54992e-05
-0.00065283
-9.29289e-05
-0.000688257
-0.000728866
-0.000111304
2.29131e-06
-0.000185314
-5.22037e-07
-0.000395178
-1.0024e-05
-0.000490385
-2.26446e-05
-0.000529599
-3.67104e-05
-0.000553347
-5.17708e-05
-0.000577501
-6.78452e-05
-0.000604901
-8.50886e-05
-0.000635586
-0.000103572
-0.000669773
-0.000709457
-0.000122982
1.19629e-06
-0.000186511
-3.64631e-06
-0.000390335
-1.41441e-05
-0.000479887
-2.78603e-05
-0.000515882
-4.29503e-05
-0.000538257
-5.90007e-05
-0.000561451
-7.60786e-05
-0.000587823
-9.43411e-05
-0.000617324
-0.000113874
-0.00065024
-0.000688904
-0.000134428
1.90111e-07
-0.000186701
-6.33214e-06
-0.000383813
-1.81234e-05
-0.000468095
-3.28614e-05
-0.000501144
-4.89296e-05
-0.000522188
-6.59512e-05
-0.00054443
-8.40204e-05
-0.000569754
-0.000103279
-0.000598065
-0.000123806
-0.000629713
-0.000667294
-0.000145415
-9.32062e-07
-0.000185769
-8.84983e-06
-0.000375895
-2.19118e-05
-0.000455033
-3.7649e-05
-0.000485407
-5.46502e-05
-0.000505187
-7.26189e-05
-0.000526461
-9.16765e-05
-0.000550696
-0.000111932
-0.000577809
-0.000133172
-0.000608473
-0.000644836
-0.000155631
-1.98712e-06
-0.000183782
-1.12453e-05
-0.000366637
-2.55018e-05
-0.000440777
-4.22106e-05
-0.000468698
-6.01117e-05
-0.000487286
-7.89962e-05
-0.000507576
-9.90036e-05
-0.000530689
-0.000120244
-0.000556569
-0.000142756
-0.000585961
-0.000624362
-0.00016323
-2.98025e-06
-0.000180801
-1.35255e-05
-0.000356091
-2.89039e-05
-0.000425399
-4.65455e-05
-0.000451057
-6.53164e-05
-0.000468515
-8.5081e-05
-0.000487812
-0.00010595
-0.000509819
-0.000127806
-0.000534714
-0.000150174
-0.000563592
-0.000596227
-0.000178309
-3.92438e-06
-0.000176877
-1.56916e-05
-0.000344324
-3.21235e-05
-0.000408967
-5.06541e-05
-0.000432526
-7.02646e-05
-0.000448905
-9.08698e-05
-0.000467207
-0.000112522
-0.000488167
-0.00013508
-0.000512156
-0.000158863
-0.000539809
-0.000569039
-0.000186052
-4.82264e-06
-0.000172054
-1.77428e-05
-0.000331404
-3.51638e-05
-0.000391546
-5.45379e-05
-0.000413152
-7.4951e-05
-0.000428492
-9.6356e-05
-0.000445802
-0.00011882
-0.000465703
-0.000142421
-0.000488555
-0.000167715
-0.000514515
-0.000541777
-0.000194977
-5.67485e-06
-0.000166379
-1.96787e-05
-0.0003174
-3.80265e-05
-0.000373198
-5.81977e-05
-0.000392981
-7.93726e-05
-0.000407317
-0.000101532
-0.000423642
-0.000124758
-0.000442477
-0.000149202
-0.00046411
-0.000175298
-0.000488419
-0.000514061
-0.000203013
-6.4798e-06
-0.0001599
-2.14985e-05
-0.000302382
-4.07127e-05
-0.000353984
-6.16344e-05
-0.000372059
-8.3532e-05
-0.000385419
-0.000106419
-0.000400755
-0.000130414
-0.000418482
-0.000155714
-0.000438811
-0.000182604
-0.000461529
-0.000485734
-0.000210932
-7.23583e-06
-0.000152664
-2.32017e-05
-0.000286416
-4.32231e-05
-0.000333962
-6.48485e-05
-0.000350434
-8.74261e-05
-0.000362842
-0.000110997
-0.000377184
-0.000135698
-0.000393782
-0.000161722
-0.000412787
-0.000189286
-0.000433965
-0.00045671
-0.00021831
-7.94089e-06
-0.000144723
-2.47877e-05
-0.000269569
-4.55588e-05
-0.000313191
-6.78417e-05
-0.000328151
-9.10589e-05
-0.000339624
-0.000115278
-0.000352964
-0.000140649
-0.000368411
-0.000167357
-0.000386079
-0.000195576
-0.000405745
-0.000427018
-0.000225268
-8.59196e-06
-0.000136131
-2.62561e-05
-0.000251905
-4.77209e-05
-0.000291726
-7.06145e-05
-0.000305257
-9.44277e-05
-0.000315811
-0.00011925
-0.000328142
-0.000145234
-0.000342426
-0.000172562
-0.000358751
-0.000201394
-0.000376913
-0.000396681
-0.000231731
-9.19597e-06
-0.000126935
-2.76083e-05
-0.000233492
-4.9711e-05
-0.000269624
-7.31687e-05
-0.0002818
-9.75346e-05
-0.000291445
-0.000122915
-0.000302762
-0.000149468
-0.000315874
-0.000177368
-0.000330851
-0.000206773
-0.000347508
-0.000365744
-0.00023771
-9.75383e-06
-0.000117181
-2.88459e-05
-0.0002144
-5.153e-05
-0.00024694
-7.55049e-05
-0.000257825
-0.000100379
-0.000266572
-0.000126272
-0.000276869
-0.000153343
-0.000288802
-0.000181767
-0.000302428
-0.000211699
-0.000317576
-0.000334251
-0.000243192
-1.02628e-05
-0.000106918
-2.99693e-05
-0.000194694
-5.31795e-05
-0.000223729
-7.76245e-05
-0.00023338
-0.000102961
-0.000241235
-0.00012932
-0.000250509
-0.000156863
-0.000261259
-0.000185762
-0.000273528
-0.000216174
-0.000287165
-0.000302251
-0.000248174
-1.07218e-05
-9.61965e-05
-3.09789e-05
-0.000174437
-5.46604e-05
-0.000200048
-7.95283e-05
-0.000208512
-0.000105282
-0.000215482
-0.00013206
-0.00022373
-0.000160027
-0.000233292
-0.000189354
-0.000244202
-0.000220196
-0.000256323
-0.000269795
-0.000252652
-1.11303e-05
-8.50662e-05
-3.1875e-05
-0.000153692
-5.59739e-05
-0.000175949
-8.12175e-05
-0.000183268
-0.000107342
-0.000189358
-0.000134493
-0.000196578
-0.000162836
-0.00020495
-0.000192541
-0.000214496
-0.000223765
-0.000225099
-0.000236934
-0.000256626
-1.14879e-05
-7.35783e-05
-3.2658e-05
-0.000132522
-5.7121e-05
-0.000151486
-8.2693e-05
-0.000157696
-0.000109142
-0.000162909
-0.00013662
-0.0001691
-0.000165291
-0.000176278
-0.000195326
-0.000184461
-0.000226881
-0.000193545
-0.000203722
-0.000260093
-1.17945e-05
-6.17838e-05
-3.33282e-05
-0.000110988
-5.81023e-05
-0.000126712
-8.39557e-05
-0.000131843
-0.000110682
-0.000136183
-0.00013844
-0.000141343
-0.000167392
-0.000147326
-0.000197709
-0.000154144
-0.000229545
-0.000161709
-0.000170211
-0.000263055
-1.20501e-05
-4.97337e-05
-3.3886e-05
-8.91524e-05
-5.89189e-05
-0.000101679
-8.50065e-05
-0.000105755
-0.000111965
-0.000109224
-0.000139955
-0.000113353
-0.000169141
-0.00011814
-0.000199692
-0.000123593
-0.00023176
-0.00012964
-0.000136456
-0.000265515
-1.22545e-05
-3.74792e-05
-3.43319e-05
-6.70751e-05
-5.95712e-05
-7.64395e-05
-8.58462e-05
-7.94801e-05
-0.00011299
-8.20802e-05
-0.000141166
-8.51772e-05
-0.000170538
-8.87681e-05
-0.000201275
-9.28564e-05
-0.000233527
-9.73887e-05
-0.000102508
-0.000267475
-1.24079e-05
-2.50713e-05
-3.46659e-05
-4.4817e-05
-6.006e-05
-5.10455e-05
-8.64753e-05
-5.30647e-05
-0.000113758
-5.47973e-05
-0.000142073
-5.68621e-05
-0.000171585
-5.92561e-05
-0.000202461
-6.1981e-05
-0.000234849
-6.50007e-05
-6.84166e-05
-0.00026894
-1.25101e-05
-1.25612e-05
-3.48885e-05
-2.24386e-05
-6.03855e-05
-2.55485e-05
-8.68945e-05
-2.65557e-05
-0.00011427
-2.74218e-05
-0.000142678
-2.84542e-05
-0.000172283
-2.96513e-05
-0.00020325
-3.10135e-05
-0.000235728
-3.25227e-05
-3.42316e-05
-0.000269913
-1.25612e-05
-6.33826e-12
-3.49998e-05
-9.65285e-12
-6.05483e-05
-9.82368e-12
-8.7104e-05
-9.40504e-12
-0.000114526
-8.94146e-12
-0.00014298
-8.42678e-12
-0.000172631
-7.864e-12
-0.000203645
-7.25597e-12
-0.000236167
-6.57782e-12
-5.82934e-12
-0.000270399
-1.25612e-05
1.25612e-05
-3.49998e-05
2.24386e-05
-6.05483e-05
2.55485e-05
-8.7104e-05
2.65557e-05
-0.000114526
2.74218e-05
-0.00014298
2.84542e-05
-0.000172631
2.96513e-05
-0.000203645
3.10135e-05
-0.000236167
3.25227e-05
3.42315e-05
-0.000270399
-1.25101e-05
2.50713e-05
-3.48885e-05
4.4817e-05
-6.03855e-05
5.10455e-05
-8.68945e-05
5.30647e-05
-0.00011427
5.47973e-05
-0.000142678
5.68621e-05
-0.000172283
5.92561e-05
-0.00020325
6.1981e-05
-0.000235728
6.50007e-05
6.84166e-05
-0.000269913
-1.24079e-05
3.74792e-05
-3.46659e-05
6.7075e-05
-6.006e-05
7.64395e-05
-8.64753e-05
7.948e-05
-0.000113758
8.20802e-05
-0.000142073
8.51771e-05
-0.000171585
8.87681e-05
-0.000202461
9.28564e-05
-0.000234849
9.73887e-05
0.000102508
-0.00026894
-1.22545e-05
4.97337e-05
-3.43319e-05
8.91524e-05
-5.95712e-05
0.000101679
-8.58462e-05
0.000105755
-0.00011299
0.000109224
-0.000141166
0.000113353
-0.000170538
0.00011814
-0.000201275
0.000123593
-0.000233527
0.00012964
0.000136456
-0.000267475
-1.20501e-05
6.17838e-05
-3.3886e-05
0.000110988
-5.89189e-05
0.000126712
-8.50065e-05
0.000131843
-0.000111965
0.000136183
-0.000139955
0.000141343
-0.000169141
0.000147326
-0.000199692
0.000154144
-0.00023176
0.000161709
0.000170211
-0.000265515
-1.17945e-05
7.35783e-05
-3.33282e-05
0.000132522
-5.81023e-05
0.000151486
-8.39557e-05
0.000157696
-0.000110682
0.000162909
-0.00013844
0.0001691
-0.000167392
0.000176278
-0.000197709
0.000184461
-0.000229545
0.000193545
0.000203722
-0.000263055
-1.14879e-05
8.50662e-05
-3.2658e-05
0.000153692
-5.7121e-05
0.000175949
-8.2693e-05
0.000183268
-0.000109142
0.000189358
-0.00013662
0.000196578
-0.000165291
0.00020495
-0.000195326
0.000214496
-0.000226881
0.000225099
0.000236934
-0.000260093
-1.11303e-05
9.61964e-05
-3.1875e-05
0.000174437
-5.59739e-05
0.000200048
-8.12175e-05
0.000208512
-0.000107342
0.000215482
-0.000134493
0.00022373
-0.000162836
0.000233292
-0.000192541
0.000244202
-0.000223765
0.000256323
0.000269795
-0.000256626
-1.07218e-05
0.000106918
-3.09789e-05
0.000194694
-5.46604e-05
0.000223729
-7.95283e-05
0.00023338
-0.000105282
0.000241235
-0.00013206
0.000250509
-0.000160027
0.000261259
-0.000189354
0.000273528
-0.000220196
0.000287165
0.000302251
-0.000252652
-1.02628e-05
0.000117181
-2.99693e-05
0.0002144
-5.31795e-05
0.000246939
-7.76245e-05
0.000257825
-0.000102961
0.000266572
-0.00012932
0.000276868
-0.000156863
0.000288802
-0.000185762
0.000302427
-0.000216174
0.000317576
0.000334251
-0.000248174
-9.75383e-06
0.000126935
-2.88459e-05
0.000233492
-5.153e-05
0.000269624
-7.55049e-05
0.0002818
-0.000100379
0.000291445
-0.000126272
0.000302762
-0.000153343
0.000315873
-0.000181767
0.000330851
-0.000211699
0.000347508
0.000365744
-0.000243192
-9.19597e-06
0.000136131
-2.76083e-05
0.000251905
-4.9711e-05
0.000291726
-7.31687e-05
0.000305257
-9.75346e-05
0.000315811
-0.000122915
0.000328142
-0.000149468
0.000342426
-0.000177368
0.000358751
-0.000206773
0.000376913
0.000396681
-0.00023771
-8.59196e-06
0.000144723
-2.62561e-05
0.000269569
-4.77209e-05
0.000313191
-7.06145e-05
0.000328151
-9.44277e-05
0.000339624
-0.00011925
0.000352964
-0.000145234
0.000368411
-0.000172562
0.000386079
-0.000201394
0.000405745
0.000427018
-0.000231731
-7.94089e-06
0.000152664
-2.47877e-05
0.000286416
-4.55588e-05
0.000333962
-6.78417e-05
0.000350434
-9.10589e-05
0.000362841
-0.000115278
0.000377184
-0.000140649
0.000393782
-0.000167357
0.000412787
-0.000195576
0.000433965
0.00045671
-0.000225268
-7.23582e-06
0.0001599
-2.32017e-05
0.000302382
-4.32231e-05
0.000353984
-6.48485e-05
0.000372059
-8.74261e-05
0.000385419
-0.000110997
0.000400755
-0.000135698
0.000418482
-0.000161722
0.000438811
-0.000189286
0.000461529
0.000485734
-0.00021831
-6.4798e-06
0.000166379
-2.14985e-05
0.0003174
-4.07127e-05
0.000373198
-6.16344e-05
0.000392981
-8.3532e-05
0.000407317
-0.000106419
0.000423642
-0.000130414
0.000442477
-0.000155714
0.00046411
-0.000182604
0.000488419
0.000514061
-0.000210932
-5.67485e-06
0.000172054
-1.96787e-05
0.000331404
-3.80265e-05
0.000391546
-5.81977e-05
0.000413152
-7.93726e-05
0.000428492
-0.000101532
0.000445802
-0.000124758
0.000465703
-0.000149202
0.000488555
-0.000175298
0.000514515
0.000541777
-0.000203013
-4.82263e-06
0.000176877
-1.77428e-05
0.000344324
-3.51638e-05
0.000408967
-5.45379e-05
0.000432526
-7.4951e-05
0.000448905
-9.6356e-05
0.000467207
-0.00011882
0.000488167
-0.000142421
0.000512156
-0.000167715
0.000539809
0.000569038
-0.000194977
-3.92438e-06
0.000180801
-1.56916e-05
0.000356091
-3.21235e-05
0.000425399
-5.06541e-05
0.000451057
-7.02646e-05
0.000468515
-9.08697e-05
0.000487812
-0.000112522
0.000509819
-0.00013508
0.000534714
-0.000158863
0.000563592
0.000596227
-0.000186052
-2.98025e-06
0.000183781
-1.35255e-05
0.000366637
-2.89039e-05
0.000440777
-4.65455e-05
0.000468698
-6.53164e-05
0.000487286
-8.5081e-05
0.000507576
-0.00010595
0.000530689
-0.000127806
0.000556569
-0.000150174
0.000585961
0.000624362
-0.000178309
-1.98712e-06
0.000185769
-1.12453e-05
0.000375895
-2.55018e-05
0.000455033
-4.22106e-05
0.000485407
-6.01117e-05
0.000505187
-7.89962e-05
0.000526461
-9.90036e-05
0.000550696
-0.000120244
0.000577809
-0.000142756
0.000608473
0.000644836
-0.00016323
-9.32061e-07
0.000186701
-8.84983e-06
0.000383813
-2.19118e-05
0.000468095
-3.7649e-05
0.000501144
-5.46502e-05
0.000522188
-7.26189e-05
0.000544429
-9.16765e-05
0.000569754
-0.000111932
0.000598065
-0.000133172
0.000629713
0.000667294
-0.000155631
1.90112e-07
0.000186511
-6.33213e-06
0.000390335
-1.81234e-05
0.000479887
-3.28614e-05
0.000515882
-4.89296e-05
0.000538257
-6.59512e-05
0.000561451
-8.40204e-05
0.000587823
-0.000103279
0.000617324
-0.000123806
0.00065024
0.000688904
-0.000145415
1.19629e-06
0.000185314
-3.64631e-06
0.000395177
-1.41441e-05
0.000490384
-2.78602e-05
0.000529599
-4.29503e-05
0.000553347
-5.90007e-05
0.000577501
-7.60786e-05
0.000604901
-9.43411e-05
0.000635586
-0.000113874
0.000669773
0.000709457
-0.000134428
2.29131e-06
0.000183023
-5.22033e-07
0.000397991
-1.0024e-05
0.000499886
-2.26446e-05
0.000542219
-3.67104e-05
0.000567413
-5.17708e-05
0.000592562
-6.78452e-05
0.000620975
-8.50885e-05
0.00065283
-0.000103572
0.000688257
0.000728866
-0.000122982
3.31869e-06
0.000179704
1.93947e-06
0.00039937
-5.89794e-06
0.000507724
-1.72076e-05
0.000553529
-3.02151e-05
0.00058042
-4.42633e-05
0.00060661
-5.93081e-05
0.00063602
-7.54991e-05
0.000669021
-9.29289e-05
0.000705687
0.000747242
-0.000111304
4.3307e-06
0.000175374
4.57883e-06
0.000399122
-1.5011e-06
0.000513804
-1.15523e-05
0.00056358
-2.34755e-05
0.000592343
-3.64803e-05
0.000619615
-5.04655e-05
0.000650005
-6.55711e-05
0.000684126
-8.1908e-05
0.000722023
0.000764591
-9.9257e-05
5.35905e-06
0.000170015
7.39059e-06
0.00039709
3.01952e-06
0.000518175
-5.70043e-06
0.0005723
-1.64909e-05
0.000603134
-2.84241e-05
0.000631548
-4.13216e-05
0.000662902
-5.53173e-05
0.000698122
-7.05204e-05
0.000737226
0.000780819
-8.67482e-05
6.3821e-06
0.000163632
1.02713e-05
0.000393201
7.65685e-06
0.000520789
3.52256e-07
0.000579605
-9.26829e-06
0.000612754
-2.00986e-05
0.000642378
-3.18825e-05
0.000674686
-4.47431e-05
0.000710982
-5.87923e-05
0.000751276
0.000795845
-7.38188e-05
7.36957e-06
0.000156263
1.31854e-05
0.000387385
1.2455e-05
0.00052152
6.62155e-06
0.000585438
-1.86442e-06
0.00062124
-1.1509e-05
0.000652023
-2.21582e-05
0.000685336
-3.38494e-05
0.000722674
-4.67363e-05
0.000764163
0.000809625
-6.0516e-05
8.29716e-06
0.000147966
1.61056e-05
0.000379577
1.73651e-05
0.00052026
1.31097e-05
0.000589693
5.9271e-06
0.000628423
-2.68735e-06
0.000660637
-1.217e-05
0.000694818
-2.26402e-05
0.000733144
-3.43609e-05
0.000775883
0.000822137
-4.68727e-05
9.14266e-06
0.000138823
1.8997e-05
0.000369723
2.23575e-05
0.0005169
1.97807e-05
0.00059227
1.39269e-05
0.000634277
6.49534e-06
0.000668069
-1.98472e-06
0.000703298
-1.11613e-05
0.000742321
-2.1648e-05
0.00078637
0.000833396
-3.29072e-05
9.88247e-06
0.000128941
2.18181e-05
0.000357787
2.73986e-05
0.000511319
2.66094e-05
0.000593059
2.21403e-05
0.000638746
1.59289e-05
0.00067428
8.65893e-06
0.000710568
3.22944e-07
0.000750656
-8.51136e-06
0.000795204
0.000843591
-1.87065e-05
1.04921e-05
0.000118448
2.45229e-05
0.000343756
3.2447e-05
0.000503395
3.35725e-05
0.000591934
3.05663e-05
0.000641752
2.55903e-05
0.000679256
1.95323e-05
0.000716626
1.26616e-05
0.000757527
4.87001e-06
0.000802996
0.000852893
-4.43175e-06
1.09483e-05
0.0001075
2.70608e-05
0.000327644
3.74525e-05
0.000493004
4.06369e-05
0.000588749
3.91865e-05
0.000643202
3.54857e-05
0.000682957
3.06338e-05
0.000721478
2.49386e-05
0.000763222
1.8316e-05
0.000809619
0.000860395
1.08135e-05
1.12311e-05
9.62691e-05
2.93762e-05
0.000309498
4.23545e-05
0.000480025
4.77583e-05
0.000583346
4.7975e-05
0.000642986
4.55979e-05
0.000685334
4.19561e-05
0.00072512
3.7463e-05
0.000767715
3.22101e-05
0.000814871
0.000866344
2.62613e-05
1.13259e-05
8.49432e-05
3.14081e-05
0.000289416
4.70796e-05
0.000464354
5.48797e-05
0.000575545
5.68984e-05
0.000640967
5.59083e-05
0.000686324
5.34993e-05
0.000727529
5.02459e-05
0.000770969
4.63126e-05
0.000818805
0.000870905
4.17515e-05
1.12255e-05
7.37176e-05
3.30913e-05
0.000267551
5.154e-05
0.000445905
6.19297e-05
0.000565156