/*--------------------------------*- C++ -*----------------------------------*\
  =========                 |
  \\      /  F ield         | OpenFOAM: The Open Source CFD Toolbox
   \\    /   O peration     | Website:  https://openfoam.org
    \\  /    A nd           | Version:  7
     \\/     M anipulation  |
\*---------------------------------------------------------------------------*/
FoamFile
{
    version     2.0;
    format      ascii;
    class       volScalarField;
    location    "0.46875";
    object      p;
}
// * * * * * * * * * * * * * * * * * * * * * * * * * * * * * * * * * * * * * //

dimensions      [0 2 -2 0 0 0 0];

internalField   nonuniform List<scalar> 
10000
(
4.71231e-09
8.61149e-07
-1.36933e-05
-4.39506e-05
-8.62678e-05
-0.000136456
-0.000190995
-0.000246997
-0.000302275
-0.000355104
-0.000404113
-0.000448253
-0.000486761
-0.000519089
-0.000544816
-0.000563642
-0.000575392
-0.000579986
-0.000577391
-0.000567583
-0.000550541
-0.000526281
-0.000494869
-0.000456384
-0.000410891
-0.000358416
-0.000298971
-0.000232584
-0.000159303
-7.91866e-05
7.71493e-06
0.000101368
0.000201749
0.00030883
0.000422561
0.000542855
0.000669595
0.000802631
0.000941795
0.0010869
0.00123773
0.00139403
0.00155552
0.00172184
0.00189257
0.00206725
0.00224534
0.00242626
0.00260939
0.00279407
0.0029796
0.00316523
0.00335018
0.00353363
0.00371471
0.00389254
0.00406621
0.00423481
0.00439741
0.0045531
0.00470101
0.00484028
0.00497011
0.00508975
0.00519852
0.00529581
0.00538112
0.00545401
0.00551415
0.00556133
0.00559544
0.00561649
0.00562463
0.00562011
0.00560331
0.00557473
0.00553499
0.00548481
0.00542505
0.00535664
0.0052806
0.00519805
0.00511018
0.00501824
0.00492354
0.00482743
0.00473132
0.00463663
0.0045448
0.00445731
0.00437563
0.00430122
0.00423553
0.00417994
0.00413574
0.00410399
0.00408525
0.00407929
0.00408452
0.00409589
6.01019e-06
6.6884e-06
-6.2519e-06
-3.17211e-05
-6.65619e-05
-0.000107959
-0.000153333
-0.000200352
-0.000247083
-0.000291948
-0.000333677
-0.000371294
-0.000404057
-0.000431372
-0.000452764
-0.0004679
-0.000476576
-0.000478667
-0.000474077
-0.000462728
-0.000444562
-0.000419574
-0.000387811
-0.000349332
-0.000304166
-0.000252314
-0.000193781
-0.000128593
-5.68023e-05
2.15295e-05
0.000106353
0.000197636
0.000295353
0.000399469
0.000509923
0.000626617
0.000749419
0.000878174
0.00101271
0.00115283
0.00129832
0.00144895
0.00160441
0.00176436
0.0019284
0.00209606
0.00226682
0.00244013
0.0026154
0.002792
0.00296925
0.00314645
0.00332288
0.00349775
0.00367025
0.00383955
0.00400481
0.00416516
0.00431974
0.00446772
0.00460827
0.0047406
0.00486398
0.00497771
0.00508117
0.00517383
0.0052552
0.0053249
0.00538264
0.00542823
0.0054616
0.00548277
0.00549189
0.00548922
0.00547511
0.00545006
0.00541465
0.00536959
0.00531565
0.00525374
0.00518482
0.00510992
0.00503017
0.00494673
0.00486082
0.0047737
0.00468666
0.00460101
0.00451806
0.00443914
0.00436556
0.0042986
0.00423947
0.00418932
0.00414911
0.0041196
0.00410105
0.00409319
0.00409582
0.00410721
3.06376e-05
2.76837e-05
1.33353e-05
-1.07055e-05
-4.19948e-05
-7.85159e-05
-0.000118286
-0.000159461
-0.000200379
-0.000239617
-0.000276046
-0.000308798
-0.000337174
-0.000360569
-0.0003785
-0.000390645
-0.000396802
-0.000396815
-0.000390536
-0.00037785
-0.00035869
-0.000333049
-0.000300965
-0.000262469
-0.000217559
-0.000166216
-0.000108441
-4.42707e-05
2.62372e-05
0.000103026
0.000186055
0.000275302
0.000370743
0.000472337
0.00058001
0.000693654
0.00081313
0.000938283
0.00106894
0.00120492
0.00134602
0.00149198
0.00164252
0.00179729
0.00195591
0.00211791
0.0022828
0.00245004
0.00261905
0.00278924
0.00295997
0.00313056
0.00330032
0.0034685
0.00363434
0.00379704
0.00395579
0.00410978
0.0042582
0.00440025
0.00453515
0.00466216
0.00478059
0.00488979
0.00498919
0.00507827
0.00515659
0.00522381
0.00527965
0.00532395
0.00535665
0.00537779
0.00538752
0.00538608
0.00537385
0.0053513
0.00531898
0.00527757
0.00522783
0.00517062
0.00510684
0.0050375
0.00496364
0.00488638
0.00480685
0.00472626
0.00464579
0.00456666
0.0044901
0.00441732
0.00434949
0.00428776
0.00423321
0.00418681
0.0041494
0.0041216
0.00410367
0.00409554
0.00409832
0.00411248
7.0639e-05
6.08214e-05
4.28612e-05
1.78304e-05
-1.27238e-05
-4.71567e-05
-8.39003e-05
-0.000121488
-0.000158537
-0.000193835
-0.00022642
-0.000255523
-0.000280484
-0.000300731
-0.000315831
-0.0003255
-0.000329536
-0.000327754
-0.000319983
-0.000306101
-0.000286047
-0.00025982
-0.000227444
-0.000188923
-0.00014423
-9.33341e-05
-3.62396e-05
2.70083e-05
9.63468e-05
0.000171726
0.000253123
0.000340525
0.000433912
0.000533238
0.000638418
0.000749337
0.000865855
0.000987823
0.00111508
0.00124745
0.00138472
0.00152666
0.00167299
0.00182336
0.00197739
0.00213462
0.00229459
0.00245678
0.00262062
0.00278554
0.00295093
0.00311614
0.0032805
0.00344328
0.00360376
0.00376117
0.00391474
0.00406367
0.0042072
0.00434456
0.004475
0.00459781
0.00471234
0.00481797
0.00491414
0.00500038
0.00507627
0.00514148
0.00519575
0.00523894
0.005271
0.00529198
0.00530202
0.00530138
0.00529041
0.00526958
0.00523944
0.00520064
0.00515391
0.00510008
0.00504003
0.00497471
0.00490514
0.00483237
0.0047575
0.00468164
0.00460594
0.00453154
0.00445957
0.00439117
0.00432741
0.00426935
0.00421796
0.00417412
0.00413862
0.00411206
0.00409477
0.00408692
0.00409046
0.0041069
0.000120959
0.000102368
7.93373e-05
5.19259e-05
2.0604e-05
-1.32822e-05
-4.84515e-05
-8.37189e-05
-0.000117987
-0.000150303
-0.000179865
-0.00020598
-0.000228045
-0.000245567
-0.00025819
-0.000265666
-0.000267785
-0.000264342
-0.000255168
-0.000240161
-0.000219278
-0.000192513
-0.000159867
-0.000121323
-7.68385e-05
-2.63843e-05
3.00287e-05
9.23513e-05
0.000160526
0.000234515
0.000314309
0.000399907
0.000491289
0.000588402
0.000691154
0.000799429
0.000913093
0.00103201
0.00115602
0.00128496
0.00141863
0.00155681
0.0016992
0.00184548
0.00199526
0.00214813
0.0023036
0.00246119
0.00262035
0.00278054
0.00294115
0.00310157
0.00326114
0.00341917
0.00357494
0.00372772
0.00387676
0.0040213
0.00416058
0.00429387
0.00442045
0.00453965
0.00465081
0.00475335
0.00484674
0.00493051
0.00500427
0.0050677
0.00512056
0.00516272
0.00519412
0.00521484
0.005225
0.00522488
0.00521482
0.00519527
0.00516677
0.00512996
0.00508556
0.00503435
0.00497722
0.00491506
0.00484886
0.00477963
0.00470841
0.00463629
0.00456433
0.00449363
0.00442525
0.00436023
0.0042996
0.00424431
0.00419527
0.00415329
0.00411912
0.00409336
0.0040764
0.00406858
0.0040722
0.00408917
0.000178332
0.000149773
0.000120536
8.96715e-05
5.64525e-05
2.19262e-05
-1.28164e-05
-4.68412e-05
-7.93236e-05
-0.000109538
-0.000136817
-0.000160552
-0.000180235
-0.000195478
-0.000206
-0.000211579
-0.000211997
-0.000207052
-0.000196604
-0.000180583
-0.000158962
-0.000131725
-9.88472e-05
-6.02939e-05
-1.60239e-05
3.39832e-05
8.97074e-05
0.0001511
0.000218117
0.000290739
0.00036897
0.000452814
0.00054225
0.000637216
0.00073762
0.000843348
0.000954279
0.00107029
0.00119123
0.00131695
0.00144727
0.00158194
0.00172069
0.00186321
0.00200912
0.002158
0.00230942
0.00246288
0.00261788
0.00277387
0.00293027
0.00308649
0.00324189
0.00339579
0.0035475
0.00369631
0.00384148
0.00398228
0.00411796
0.00424782
0.00437115
0.00448729
0.00459562
0.00469556
0.0047866
0.00486828
0.00494022
0.00500211
0.00505372
0.00509493
0.00512569
0.00514605
0.00515618
0.00515633
0.00514683
0.00512814
0.00510078
0.00506539
0.00502266
0.00497337
0.00491837
0.00485854
0.00479483
0.00472822
0.00465973
0.00459037
0.00452118
0.0044532
0.00438743
0.00432487
0.00426645
0.00421309
0.00416561
0.0041248
0.00409134
0.00406586
0.00404877
0.00404049
0.00404334
0.00405923
0.000239889
0.000200729
0.000164551
0.000129368
9.33255e-05
5.72412e-05
2.20054e-05
-1.1709e-05
-4.33001e-05
-7.21986e-05
-9.78578e-05
-0.00011979
-0.000137612
-0.000151037
-0.000159837
-0.000163811
-0.000162754
-0.000156496
-0.000144938
-0.000128045
-0.000105796
-7.81607e-05
-4.50985e-05
-6.56845e-06
3.74629e-05
8.70033e-05
0.000142026
0.000202488
0.000268361
0.000339645
0.000416356
0.000498502
0.000586056
0.000678953
0.000777103
0.0008804
0.000988738
0.00110201
0.00122008
0.00134281
0.00147001
0.00160146
0.0017369
0.001876
0.00201841
0.00216374
0.00231155
0.00246138
0.00261273
0.00276507
0.00291785
0.00307047
0.00322232
0.00337274
0.00352105
0.00366655
0.00380852
0.00394623
0.00407897
0.00420602
0.00432671
0.00444037
0.00454641
0.00464425
0.00473338
0.00481336
0.00488381
0.00494441
0.00499496
0.00503532
0.00506545
0.00508542
0.00509537
0.00509555
0.0050863
0.00506807
0.00504139
0.00500686
0.00496518
0.00491713
0.00486351
0.0048052
0.00474314
0.00467827
0.00461157
0.00454404
0.00447668
0.00441048
0.00434639
0.00428536
0.00422829
0.00417602
0.00412934
0.00408899
0.00405562
0.00402985
0.0040121
0.00400281
0.00400411
0.00401768
0.000302921
0.000253032
0.000209518
0.00016944
0.000129907
9.15631e-05
5.50912e-05
2.09277e-05
-1.04868e-05
-3.87042e-05
-6.33118e-05
-8.39673e-05
-0.000100415
-0.000112447
-0.000119869
-0.000122509
-0.000120203
-0.000112832
-0.000100348
-8.2736e-05
-5.99744e-05
-3.202e-05
1.17078e-06
3.96314e-05
8.33817e-05
0.000132419
0.000186715
0.00024624
0.000310982
0.000380955
0.000456186
0.000536681
0.000622411
0.000713311
0.000809296
0.000910275
0.00101616
0.00112685
0.00124224
0.00136219
0.00148653
0.00161503
0.00174745
0.00188347
0.00202275
0.00216492
0.00230955
0.0024562
0.00260439
0.00275361
0.00290331
0.00305292
0.00320181
0.00334936
0.00349489
0.00363771
0.0037771
0.00391235
0.00404276
0.00416761
0.00428624
0.00439799
0.00450225
0.00459847
0.00468613
0.00476478
0.00483405
0.00489363
0.00494331
0.00498294
0.00501249
0.00503202
0.00504167
0.0050417
0.00503244
0.00501432
0.00498788
0.00495373
0.00491255
0.00486509
0.00481217
0.00475466
0.00469346
0.00462951
0.00456378
0.00449722
0.00443081
0.0043655
0.00430224
0.0042419
0.00418536
0.00413341
0.00408681
0.00404625
0.00401237
0.00398574
0.00396679
0.00395595
0.00395505
0.00396543
0.000365215
0.000304699
0.000253701
0.000208415
0.000164942
0.000123783
8.54729e-05
5.02764e-05
1.84947e-05
-9.55741e-06
-3.36133e-05
-5.34706e-05
-6.89769e-05
-7.99812e-05
-8.63289e-05
-8.78908e-05
-8.45661e-05
-7.62969e-05
-6.30742e-05
-4.48978e-05
-2.17393e-05
6.44785e-06
3.96988e-05
7.80298e-05
0.000121443
0.00016993
0.000223469
0.000282044
0.000345661
0.000414345
0.000488127
0.000567011
0.000650968
0.000739937
0.000833841
0.000932607
0.00103616
0.00114443
0.00125732
0.0013747
0.0014964
0.00162222
0.0017519
0.00188515
0.00202165
0.00216103
0.0023029
0.00244682
0.00259232
0.0027389
0.00288604
0.00303317
0.00317967
0.00332493
0.00346826
0.00360899
0.00374641
0.00387981
0.00400847
0.0041317
0.00424883
0.00435919
0.00446219
0.00455725
0.00464385
0.00472156
0.00478998
0.0048488
0.00489781
0.00493685
0.00496588
0.00498497
0.00499425
0.00499397
0.00498447
0.00496617
0.0049396
0.00490538
0.00486418
0.00481676
0.00476393
0.00470654
0.00464549
0.00458172
0.00451617
0.00444978
0.00438352
0.00431832
0.00425506
0.00419464
0.00413787
0.00408552
0.00403832
0.00399692
0.00396194
0.00393392
0.00391328
0.00390041
0.0038968
0.0039034
0.000424937
0.000354026
0.000295553
0.000244886
0.000197164
0.000152775
0.000112185
7.55276e-05
4.29558e-05
1.46326e-05
-9.31551e-06
-2.87953e-05
-4.3728e-05
-5.40156e-05
-5.95572e-05
-6.02891e-05
-5.61815e-05
-4.723e-05
-3.34539e-05
-1.48604e-05
8.57959e-06
3.69045e-05
7.01322e-05
0.000108257
0.000151266
0.000199148
0.000251895
0.000309505
0.000371996
0.000439404
0.000511759
0.000589065
0.000671293
0.00075839
0.000850294
0.000946949
0.0010483
0.0011543
0.00126486
0.00137986
0.00149915
0.00162252
0.00174974
0.00188052
0.00201457
0.00215152
0.00229101
0.0024326
0.00257586
0.00272029
0.00286536
0.00301053
0.00315518
0.00329869
0.00344039
0.00357961
0.00371563
0.00384774
0.00397524
0.00409741
0.00421357
0.00432308
0.0044253
0.00451967
0.00460565
0.00468279
0.00475069
0.00480903
0.00485758
0.00489619
0.00492481
0.00494348
0.00495234
0.00495164
0.0049417
0.00492296
0.00489594
0.00486126
0.0048196
0.0047717
0.00471839
0.00466051
0.00459896
0.00453468
0.00446859
0.00440165
0.00433479
0.00426892
0.00420494
0.00414369
0.00408598
0.00403255
0.00398411
0.00394128
0.00390465
0.00387474
0.00385195
0.00383665
0.00382995
0.00383243
0.000480553
0.000399533
0.000333656
0.000277505
0.000225332
0.000177456
0.000134298
9.58636e-05
6.21521e-05
3.31812e-05
8.96436e-06
-1.04839e-05
-2.51445e-05
-3.49815e-05
-3.99664e-05
-4.01128e-05
-3.5456e-05
-2.60317e-05
-1.18762e-05
6.99562e-06
3.06019e-05
5.89625e-05
9.20704e-05
0.000129898
0.000172425
0.000219644
0.000271559
0.000328183
0.000389545
0.000455681
0.000526622
0.000602372
0.000682907
0.000768186
0.000858163
0.000952804
0.00105208
0.00115594
0.00126434
0.00137715
0.00149422
0.00161538
0.00174039
0.00186899
0.00200089
0.00213576
0.00227323
0.0024129
0.00255434
0.00269706
0.00284054
0.00298423
0.00312754
0.00326984
0.00341046
0.00354871
0.00368389
0.00381528
0.00394216
0.00406382
0.00417956
0.00428872
0.00439066
0.0044848
0.00457059
0.00464755
0.00471528
0.00477344
0.00482177
0.00486013
0.00488844
0.00490675
0.00491519
0.00491398
0.00490347
0.00488408
0.00485634
0.00482085
0.00477832
0.00472949
0.00467518
0.00461625
0.00455361
0.00448817
0.00442088
0.00435269
0.00428453
0.00421731
0.00415189
0.00408913
0.00402981
0.00397466
0.00392437
0.00387954
0.00384075
0.00380849
0.00378314
0.00376507
0.00375501
0.0037532
0.000530666
0.00043986
0.000366684
0.000305019
0.000248308
0.000196818
0.000150905
0.00011044
7.529e-05
4.53599e-05
2.05789e-05
8.9412e-07
-1.37398e-05
-2.33628e-05
-2.80296e-05
-2.78276e-05
-2.28431e-05
-1.31389e-05
1.23534e-06
2.02514e-05
4.39052e-05
7.21894e-05
0.00010507
0.000142502
0.000184463
0.000230955
0.000281995
0.000337608
0.000397825
0.000462683
0.000532211
0.000606418
0.000685288
0.000768794
0.000856912
0.000949626
0.00104693
0.00114879
0.00125516
0.00136595
0.00148101
0.00160016
0.0017232
0.00184989
0.00197994
0.00211304
0.00224885
0.00238698
0.00252699
0.00266843
0.00281077
0.00295347
0.00309593
0.00323751
0.00337757
0.00351539
0.00365028
0.00378149
0.0039083
0.00402998
0.00414583
0.00425516
0.00435732
0.0044517
0.00453773
0.00461492
0.00468284
0.00474112
0.00478951
0.00482782
0.00485599
0.00487403
0.00488207
0.00488033
0.00486913
0.00484892
0.00482022
0.00478364
0.00473988
0.00468971
0.00463394
0.00457345
0.00450915
0.00444198
0.00437288
0.0043028
0.00423268
0.00416342
0.00409592
0.00403099
0.00396942
0.00391194
0.00385922
0.00381187
0.00377043
0.00373538
0.00370712
0.00368599
0.00367239
0.00366621
0.000573981
0.000473735
0.00039343
0.000326311
0.000265064
0.000209898
0.000161088
0.000118389
8.15635e-05
5.04401e-05
2.48775e-05
4.74959e-06
-1.00677e-05
-1.96987e-05
-2.42768e-05
-2.39482e-05
-1.88355e-05
-9.02236e-06
5.42387e-06
2.44513e-05
4.80262e-05
7.61105e-05
0.000108646
0.000145577
0.000186886
0.000232585
0.000282704
0.00033727
0.000396316
0.000459877
0.000527983
0.000600649
0.000677872
0.000759641
0.000845955
0.00093682
0.00103225
0.00113222
0.00123671
0.00134562
0.00145884
0.00157619
0.00169748
0.00182249
0.00195096
0.0020826
0.00221708
0.00235402
0.00249299
0.00263355
0.00277518
0.00291733
0.0030594
0.00320078
0.00334077
0.00347869
0.0036138
0.00374537
0.00387264
0.00399489
0.00411138
0.0042214
0.00432428
0.00441938
0.00450611
0.00458395
0.00465244
0.00471119
0.00475992
0.00479844
0.00482665
0.00484455
0.00485226
0.00484998
0.00483805
0.0048169
0.00478705
0.00474914
0.00470385
0.00465197
0.00459432
0.00453181
0.00446535
0.00439588
0.00432439
0.00425182
0.00417912
0.00410721
0.00403697
0.00396925
0.00390482
0.00384443
0.00378873
0.00373835
0.00369381
0.00365558
0.00362407
0.00359963
0.00358235
0.00357181
0.000609345
0.000500018
0.000412819
0.000340365
0.000274617
0.000215728
0.000163914
0.000118834
8.01778e-05
4.77054e-05
2.1203e-05
4.61175e-07
-1.47327e-05
-2.45824e-05
-2.92846e-05
-2.90271e-05
-2.396e-05
-1.41897e-05
1.90661e-07
1.90954e-05
4.24567e-05
7.02081e-05
0.000102275
0.000138599
0.000179168
0.000224007
0.000273148
0.000326623
0.00038446
0.000446692
0.000513353
0.000584468
0.00066005
0.000740109
0.000824665
0.000913744
0.00100737
0.00110556
0.00120827
0.00131545
0.00142697
0.0015427
0.00166244
0.00178601
0.00191316
0.00204361
0.00217706
0.00231313
0.00245142
0.00259148
0.0027328
0.00287483
0.00301698
0.00315861
0.00329903
0.00343754
0.0035734
0.00370585
0.00383414
0.00395748
0.00407514
0.00418638
0.0042905
0.00438681
0.00447472
0.00455365
0.00462311
0.00468271
0.00473212
0.00477112
0.0047996
0.00481753
0.00482502
0.00482226
0.00480959
0.00478742
0.0047563
0.00471684
0.00466977
0.00461586
0.00455597
0.00449101
0.00442191
0.00434966
0.00427523
0.00419959
0.00412373
0.00404856
0.00397499
0.00390388
0.00383601
0.00377214
0.00371294
0.00365902
0.00361094
0.00356915
0.00353408
0.00350611
0.00348503
0.00347016
0.000635754
0.000517707
0.000423857
0.000346202
0.000275994
0.000213356
0.000158475
0.000110941
7.03703e-05
3.6448e-05
8.8791e-06
-1.26337e-05
-2.83851e-05
-3.86442e-05
-4.36543e-05
-4.36354e-05
-3.87637e-05
-2.91756e-05
-1.49992e-05
3.64234e-06
2.66478e-05
5.39282e-05
8.54013e-05
0.000121012
0.000160754
0.000204658
0.000252759
0.000305084
0.000361658
0.000422515
0.000487695
0.000557237
0.000631173
0.000709535
0.000792362
0.000879702
0.000971597
0.00106807
0.00116911
0.00127466
0.00138462
0.00149887
0.00161725
0.00173957
0.00186562
0.00199514
0.00212783
0.00226335
0.00240129
0.0025412
0.0026826
0.00282492
0.00296756
0.00310989
0.00325122
0.00339082
0.00352793
0.00366179
0.00379161
0.00391659
0.00403597
0.00414896
0.00425484
0.00435289
0.00444246
0.00452296
0.00459385
0.0046547
0.00470516
0.00474497
0.00477398
0.00479217
0.0047996
0.00479647
0.00478309
0.00475989
0.00472741
0.00468627
0.00463719
0.00458099
0.00451853
0.00445074
0.00437859
0.00430307
0.00422519
0.00414596
0.00406637
0.00398737
0.00390989
0.0038348
0.00376293
0.00369503
0.0036318
0.00357387
0.0035218
0.00347608
0.00343715
0.00340542
0.00338044
0.00336127
0.000652304
0.000525871
0.000425585
0.000342849
0.000268246
0.000201882
0.000143939
9.39363e-05
5.14096e-05
1.59596e-05
-1.27929e-05
-3.52245e-05
-5.16968e-05
-6.25275e-05
-6.79961e-05
-6.83545e-05
-6.38116e-05
-5.45408e-05
-4.07108e-05
-2.24809e-05
2.04475e-08
2.66912e-05
5.74471e-05
9.22372e-05
0.00013106
0.000173948
0.000220931
0.000272032
0.000327274
0.000386694
0.000450343
0.000518275
0.000590544
0.000667205
0.000748315
0.000833941
0.000924143
0.00101896
0.00111839
0.0012224
0.00133091
0.0014438
0.00156096
0.0016822
0.00180735
0.00193616
0.00206835
0.00220358
0.00234147
0.00248157
0.00262339
0.00276637
0.00290993
0.00305339
0.00319608
0.00333724
0.00347611
0.00361189
0.00374378
0.00387095
0.00399259
0.00410789
0.00421608
0.00431641
0.00440818
0.00449076
0.00456356
0.00462612
0.00467804
0.00471903
0.00474891
0.00476763
0.00477523
0.00477188
0.0047579
0.0047337
0.00469982
0.0046569
0.00460567
0.00454696
0.00448165
0.00441069
0.0043351
0.00425588
0.00417409
0.00409075
0.00400689
0.00392351
0.00384155
0.00376192
0.00368547
0.003613
0.00354523
0.00348281
0.00342633
0.00337629
0.00333319
0.00329748
0.00326847
0.003245
0.000658123
0.000523606
0.000417076
0.000329388
0.000250491
0.000180482
0.000119526
6.70676e-05
2.25556e-05
-1.44947e-05
-4.45397e-05
-6.8019e-05
-8.53452e-05
-9.68758e-05
-0.000102925
-0.000103781
-9.96943e-05
-9.08796e-05
-7.75449e-05
-5.98796e-05
-3.80306e-05
-1.21059e-05
1.78117e-05
5.16741e-05
8.94793e-05
0.000131255
0.000177027
0.000226812
0.000280635
0.000338538
0.000400588
0.000466858
0.000537423
0.000612357
0.00069174
0.000775653
0.000864173
0.000957356
0.00105522
0.00115774
0.00126486
0.0013765
0.00149254
0.00161285
0.00173726
0.00186554
0.00199743
0.00213262
0.00227072
0.0024113
0.00255387
0.00269788
0.00284272
0.00298773
0.00313221
0.0032754
0.00341652
0.00355474
0.00368923
0.00381913
0.00394359
0.00406178
0.00417286
0.00427604
0.00437058
0.00445579
0.00453104
0.00459581
0.00464967
0.00469228
0.00472342
0.004743
0.00475105
0.00474772
0.0047333
0.00470821
0.00467297
0.00462824
0.00457475
0.00451335
0.00444496
0.00437055
0.00429116
0.00420785
0.00412169
0.00403376
0.00394512
0.00385682
0.00376983
0.0036851
0.00360353
0.00352595
0.00345311
0.00338571
0.00332437
0.00326962
0.00322203
0.00318209
0.0031489
0.00312108
0.00065235
0.000510038
0.00039747
0.000304984
0.000221932
0.000148387
8.44818e-05
2.95794e-05
-1.69524e-05
-5.56718e-05
-8.70986e-05
-0.000111723
-0.000130002
-0.00014233
-0.000149063
-0.000150533
-0.000147032
-0.000138818
-0.000126132
-0.000109185
-8.8133e-05
-6.30856e-05
-3.41267e-05
-1.30551e-06
3.53713e-05
7.59243e-05
0.000120373
0.000168733
0.00022103
0.00027732
0.000337686
0.000402221
0.000471021
0.00054418
0.000621796
0.000703967
0.000790786
0.000882324
0.000978619
0.00107967
0.00118544
0.00129587
0.00141088
0.00153035
0.00165413
0.00178203
0.0019138
0.00204914
0.00218768
0.002329
0.0024726
0.00261795
0.00276442
0.00291136
0.00305805
0.00320372
0.00334756
0.00348873
0.00362635
0.00375955
0.00388742
0.00400908
0.00412365
0.0042303
0.00432822
0.00441666
0.00449495
0.0045625
0.00461883
0.00466356
0.00469643
0.0047173
0.00472616
0.00472315
0.00470853
0.00468272
0.00464622
0.00459971
0.00454392
0.00447973
0.00440808
0.00432998
0.00424649
0.00415872
0.00406778
0.0039748
0.00388089
0.00378713
0.00369457
0.00360419
0.00351694
0.0034337
0.00335526
0.00328239
0.00321573
0.00315586
0.00310342
0.00305897
0.0030214
0.00298913
0.000634181
0.000484368
0.000365989
0.000268885
0.000181825
0.000104848
3.80456e-05
-1.92946e-05
-6.78756e-05
-0.000108314
-0.000141183
-0.000167018
-0.00018632
-0.000199529
-0.000207045
-0.000209246
-0.000206469
-0.000199006
-0.000187122
-0.000171042
-0.000150926
-0.000126887
-9.90116e-05
-6.73554e-05
-3.19333e-05
7.26625e-06
5.02595e-05
9.70619e-05
0.000147708
0.000202268
0.000260842
0.000323546
0.000390495
0.0004618
0.000537576
0.000617939
0.000702998
0.000792843
0.00088753
0.000987084
0.0010915
0.00120073
0.00131473
0.0014334
0.00155663
0.00168425
0.00181602
0.00195166
0.00209081
0.00223307
0.00237795
0.00252491
0.00267333
0.00282255
0.00297184
0.00312041
0.00326744
0.00341206
0.00355336
0.00369041
0.00382229
0.00394804
0.00406675
0.00417751
0.00427947
0.0043718
0.00445378
0.00452476
0.00458418
0.00463162
0.00466676
0.00468942
0.00469955
0.00469724
0.00468275
0.00465647
0.00461891
0.00457072
0.00451268
0.00444565
0.00437062
0.00428864
0.00420079
0.00410823
0.00401213
0.00391367
0.003814
0.00371428
0.0036156
0.00351901
0.00342552
0.00333605
0.00325148
0.0031726
0.00310013
0.00303471
0.00297703
0.00292774
0.00288555
0.00284865
0.000602885
0.00044587
0.000321918
0.000220373
0.000129433
4.91055e-05
-2.05513e-05
-8.03179e-05
-0.000130956
-0.000173135
-0.000207475
-0.000234564
-0.000254947
-0.000269117
-0.00027752
-0.00028058
-0.00027867
-0.000272108
-0.000261175
-0.000246104
-0.000227061
-0.000204164
-0.000177507
-0.000147157
-0.000113138
-7.54442e-05
-3.40617e-05
1.10302e-05
5.98774e-05
0.000112566
0.000169218
0.000229965
0.000294942
0.000364279
0.000438104
0.000516551
0.000599746
0.000687799
0.000780792
0.000878773
0.000981761
0.00108975
0.00120271
0.00132058
0.00144328
0.00157064
0.00170247
0.0018385
0.0019784
0.00212176
0.00226811
0.00241691
0.00256755
0.00271936
0.0028716
0.00302348
0.00317415
0.0033227
0.00346821
0.0036097
0.00374618
0.00387668
0.0040002
0.00411578
0.00422249
0.00431944
0.00440584
0.00448095
0.00454418
0.004595
0.00463306
0.00465811
0.00467006
0.00466896
0.00465502
0.00462863
0.00459028
0.00454062
0.00448043
0.0044106
0.00433215
0.00424614
0.00415372
0.00405609
0.00395448
0.00385012
0.00374424
0.00363805
0.00353272
0.00342936
0.00332905
0.00323279
0.00314151
0.00305608
0.00297728
0.00290582
0.00284247
0.00278798
0.00274083
0.00269903
0.000557782
0.000393849
0.00026454
0.000158711
6.40043e-05
-1.9601e-05
-9.2064e-05
-0.000154224
-0.0002069
-0.000250814
-0.000286639
-0.000315015
-0.000336541
-0.00035176
-0.000361165
-0.000365216
-0.000364314
-0.000358797
-0.000348957
-0.000335034
-0.000317203
-0.000295592
-0.000270307
-0.000241424
-0.000208978
-0.000172965
-0.000133372
-9.01669e-05
-4.32901e-05
7.36207e-06
6.19282e-05
0.00012056
0.000183409
0.000250619
0.000322337
0.00039871
0.000479886
0.000565998
0.000657152
0.000753426
0.000854869
0.000961505
0.00107334
0.00119033
0.00131243
0.00143952
0.0015714
0.00170785
0.00184854
0.00199309
0.00214104
0.00229185
0.00244492
0.00259959
0.00275511
0.00291066
0.00306539
0.00321836
0.00336859
0.0035151
0.00365683
0.00379274
0.00392178
0.00404293
0.00415517
0.00425754
0.00434916
0.00442923
0.00449705
0.00455205
0.00459379
0.00462195
0.00463638
0.0046371
0.00462427
0.00459823
0.00455948
0.00450865
0.00444653
0.00437402
0.00429217
0.00420207
0.00410493
0.004002
0.00389456
0.00378392
0.00367139
0.00355823
0.00344571
0.00333501
0.00322729
0.00312364
0.00302507
0.00293251
0.00284682
0.00276879
0.00269929
0.00263915
0.00258666
0.00253959
0.000498197
0.000327607
0.000193134
8.31584e-05
-1.52071e-05
-0.000102001
-0.000177199
-0.000241695
-0.000296371
-0.000342005
-0.000379327
-0.000409031
-0.000431773
-0.00044814
-0.000458665
-0.000463837
-0.00046408
-0.000459745
-0.000451135
-0.000438502
-0.000422033
-0.000401869
-0.000378128
-0.000350898
-0.000320219
-0.000286088
-0.000248485
-0.000207368
-0.00016266
-0.000114241
-6.19565e-05
-5.63815e-06
5.48802e-05
0.000119758
0.000189158
0.000263245
0.000342189
0.000426148
0.000515257
0.000609624
0.00070933
0.000814433
0.000924967
0.00104094
0.00116231
0.001289
0.00142086
0.00155767
0.00169913
0.00184488
0.00199447
0.0021474
0.00230306
0.00246079
0.00261984
0.0027794
0.00293857
0.0030964
0.00325188
0.00340398
0.00355159
0.00369362
0.00382894
0.00395646
0.00407507
0.00418374
0.00428149
0.00436742
0.00444076
0.00450085
0.00454715
0.00457927
0.004597
0.00460028
0.00458924
0.00456417
0.00452554
0.00447396
0.00441023
0.00433527
0.00425013
0.00415597
0.00405403
0.00394561
0.00383208
0.00371481
0.00359519
0.00347459
0.00335434
0.00323573
0.00312001
0.00300835
0.00290185
0.00280154
0.00270836
0.00262318
0.00254697
0.00248069
0.00242239
0.00236959
0.000423457
0.000246453
0.000106993
-6.99163e-06
-0.000108891
-0.000198764
-0.000276604
-0.00034337
-0.000400004
-0.000447348
-0.00048619
-0.000517279
-0.000541318
-0.000558937
-0.000570699
-0.000577118
-0.000578634
-0.000575615
-0.000568377
-0.000557187
-0.000542246
-0.000523711
-0.000501713
-0.000476346
-0.000447653
-0.00041563
-0.000380245
-0.000341443
-0.000299133
-0.000253182
-0.000203417
-0.000149657
-9.17226e-05
-2.94388e-05
3.73722e-05
0.000108898
0.000185331
0.000266856
0.00035364
0.000445823
0.000543521
0.000646827
0.000755811
0.000870515
0.000990941
0.00111703
0.00124868
0.00138569
0.0015278
0.00167467
0.00182588
0.00198093
0.00213926
0.00230018
0.00246296
0.00262679
0.00279074
0.00295385
0.00311508
0.00327334
0.00342748
0.00357635
0.00371875
0.00385349
0.0039794
0.00409532
0.0042002
0.00429303
0.00437294
0.00443915
0.00449105
0.00452815
0.00455015
0.00455691
0.0045485
0.00452516
0.00448731
0.00443556
0.00437068
0.00429361
0.00420542
0.00410731
0.00400056
0.00388655
0.00376671
0.00364251
0.00351541
0.00338689
0.00325838
0.00313128
0.00300693
0.00288661
0.00277153
0.0026628
0.00256147
0.0024685
0.00238497
0.00231198
0.00224731
0.0021882
0.000332892
0.000149717
5.45747e-06
-0.000112384
-0.000217675
-0.000310502
-0.000390892
-0.000459864
-0.000518429
-0.000567488
-0.000607887
-0.000640425
-0.000665848
-0.000684818
-0.000697928
-0.000705712
-0.00070863
-0.000707064
-0.000701352
-0.000691775
-0.000678552
-0.000661854
-0.000641822
-0.000618556
-0.000592095
-0.00056243
-0.000529519
-0.000493293
-0.000453649
-0.000410439
-0.00036348
-0.000312578
-0.00025754
-0.000198177
-0.000134291
-6.56729e-05
7.89486e-06
8.66276e-05
0.000170724
0.000260359
0.000355685
0.000456835
0.000563915
0.000677007
0.000796152
0.000921334
0.00105248
0.00118942
0.00133195
0.00147975
0.00163244
0.00178953
0.00195048
0.00211464
0.00228128
0.00244956
0.00261858
0.00278734
0.00295478
0.00311976
0.00328108
0.00343753
0.00358784
0.00373072
0.0038649
0.00398915
0.00410226
0.00420315
0.00429081
0.00436437
0.00442307
0.00446633
0.00449374
0.00450508
0.00450033
0.00447966
0.00444345
0.00439227
0.00432686
0.00424818
0.0041573
0.00405546
0.00394401
0.00382438
0.00369809
0.00356669
0.00343176
0.00329487
0.00315758
0.0030214
0.00288779
0.00275813
0.00263376
0.0025159
0.00240571
0.00230424
0.00221272
0.00213235
0.00206066
0.00199456
0.000225871
3.67773e-05
-0.00011208
-0.000233608
-0.000342145
-0.00043781
-0.000520665
-0.000591798
-0.000652282
-0.000703075
-0.000745076
-0.000779129
-0.000806016
-0.000826433
-0.000840996
-0.000850262
-0.000854712
-0.000854752
-0.000850737
-0.000842967
-0.000831677
-0.000817051
-0.000799236
-0.000778331
-0.000754373
-0.000727345
-0.000697194
-0.000663842
-0.000627173
-0.000587029
-0.000543217
-0.000495532
-0.000443769
-0.00038772
-0.00032717
-0.000261885
-0.000191619
-0.000116127
-3.51741e-05
5.14508e-05
0.000143939
0.000242462
0.00034717
0.000458187
0.000575595
0.000699424
0.000829639
0.000966132
0.00110872
0.00125713
0.00141101
0.00156994
0.00173338
0.0019007
0.0020712
0.00224405
0.00241833
0.00259305
0.00276711
0.00293933
0.00310848
0.00327326
0.00343233
0.00358431
0.00372784
0.00386155
0.00398415
0.00409439
0.00419115
0.00427342
0.00434032
0.00439113
0.00442532
0.00444255
0.0044427
0.00442587
0.00439236
0.00434268
0.00427756
0.00419793
0.00410489
0.0039997
0.00388377
0.0037586
0.00362579
0.003487
0.00334393
0.00319826
0.00305168
0.00290583
0.00276229
0.0026226
0.00248819
0.00236044
0.00224061
0.00212986
0.00202958
0.00194112
0.00186166
0.00178776
0.000101813
-9.29375e-05
-0.000246179
-0.000371225
-0.000482874
-0.000581277
-0.000666533
-0.000739795
-0.000802195
-0.000854746
-0.000898392
-0.000934021
-0.000962448
-0.0009844
-0.00100052
-0.00101139
-0.00101752
-0.00101934
-0.00101722
-0.00101147
-0.00100236
-0.000990062
-0.000974737
-0.00095648
-0.000935324
-0.000911243
-0.000884176
-0.000854037
-0.000820701
-0.000784003
-0.000743741
-0.000699699
-0.000651659
-0.000599397
-0.000542674
-0.000481233
-0.000414798
-0.000343091
-0.000265842
-0.000182801
-9.37368e-05
1.56656e-06
0.000103304
0.000211645
0.00032672
0.000448608
0.000577325
0.000712814
0.000854941
0.00100349
0.00115816
0.00131855