/*--------------------------------*- C++ -*----------------------------------*\
  =========                 |
  \\      /  F ield         | OpenFOAM: The Open Source CFD Toolbox
   \\    /   O peration     | Website:  https://openfoam.org
    \\  /    A nd           | Version:  7
     \\/     M anipulation  |
\*---------------------------------------------------------------------------*/
FoamFile
{
    version     2.0;
    format      ascii;
    class       surfaceScalarField;
    location    "0.46875";
    object      phi;
}
// * * * * * * * * * * * * * * * * * * * * * * * * * * * * * * * * * * * * * //

dimensions      [0 3 -1 0 0 0 0];

internalField   nonuniform List<scalar> 
19800
(
8.15265e-11
-8.15798e-11
2.08317e-10
-1.26779e-10
2.97055e-10
-8.87359e-11
3.03455e-10
-6.40472e-12
2.09666e-10
9.37863e-11
1.11761e-11
1.98494e-10
-2.89388e-10
3.00561e-10
-6.85655e-10
3.96271e-10
-1.16947e-09
4.83816e-10
-1.73206e-09
5.62582e-10
-2.36451e-09
6.32455e-10
-3.05815e-09
6.93639e-10
-3.8048e-09
7.46656e-10
-4.59694e-09
7.92145e-10
-5.42766e-09
8.30724e-10
-6.29064e-09
8.62985e-10
-7.18016e-09
8.89519e-10
-8.09106e-09
9.10911e-10
-9.01877e-09
9.27715e-10
-9.95917e-09
9.40399e-10
-1.09085e-08
9.49346e-10
-1.18634e-08
9.54881e-10
-1.28207e-08
9.57304e-10
-1.37776e-08
9.56894e-10
-1.47315e-08
9.53845e-10
-1.56797e-08
9.48281e-10
-1.662e-08
9.4027e-10
-1.75499e-08
9.29854e-10
-1.84669e-08
9.17052e-10
-1.93688e-08
9.01865e-10
-2.0253e-08
8.84254e-10
-2.11172e-08
8.64154e-10
-2.19587e-08
8.41478e-10
-2.27748e-08
8.16123e-10
-2.35628e-08
7.87976e-10
-2.43197e-08
7.56923e-10
-2.50425e-08
7.22865e-10
-2.57283e-08
6.85716e-10
-2.63737e-08
6.45402e-10
-2.69755e-08
6.01851e-10
-2.75305e-08
5.55005e-10
-2.80354e-08
5.04828e-10
-2.84867e-08
4.51313e-10
-2.88811e-08
3.9449e-10
-2.92156e-08
3.34432e-10
-2.94868e-08
2.71246e-10
-2.96919e-08
2.05081e-10
-2.9828e-08
1.36126e-10
-2.98926e-08
6.46118e-11
-2.98835e-08
-9.18472e-12
-2.97985e-08
-8.49431e-11
-2.96362e-08
-1.62302e-10
-2.93954e-08
-2.40851e-10
-2.90752e-08
-3.20136e-10
-2.86756e-08
-3.99667e-10
-2.81966e-08
-4.78916e-10
-2.76393e-08
-5.57321e-10
-2.7005e-08
-6.34296e-10
-2.62958e-08
-7.09231e-10
-2.55143e-08
-7.81502e-10
-2.46638e-08
-8.5049e-10
-2.37482e-08
-9.15566e-10
-2.27721e-08
-9.7611e-10
-2.17406e-08
-1.03153e-09
-2.06594e-08
-1.08125e-09
-1.95346e-08
-1.12475e-09
-1.83731e-08
-1.16152e-09
-1.7182e-08
-1.19115e-09
-1.59687e-08
-1.21325e-09
-1.47412e-08
-1.2275e-09
-1.35075e-08
-1.23369e-09
-1.22759e-08
-1.23164e-09
-1.10546e-08
-1.22129e-09
-9.85193e-09
-1.20265e-09
-8.6761e-09
-1.17582e-09
-7.53512e-09
-1.14098e-09
-6.43671e-09
-1.09841e-09
-5.38827e-09
-1.04844e-09
-4.39674e-09
-9.91532e-10
-3.46855e-09
-9.28185e-10
-2.60957e-09
-8.58984e-10
-1.82498e-09
-7.8458e-10
-1.11929e-09
-7.05692e-10
-4.962e-10
-6.2309e-10
4.14055e-11
-5.37607e-10
4.91575e-10
-4.50164e-10
8.53267e-10
-3.61685e-10
1.12651e-09
-2.73239e-10
1.31248e-09
-1.85968e-10
1.41363e-09
-1.01146e-10
1.43387e-09
-2.024e-11
1.37885e-09
5.50212e-11
1.25633e-09
1.22516e-10
1.07678e-09
1.79543e-10
8.54273e-10
2.22517e-10
6.07665e-10
2.46609e-10
3.62249e-10
2.4541e-10
1.51865e-10
2.10391e-10
2.02819e-11
1.31616e-10
2.03104e-11
1.32589e-10
-2.14156e-10
2.76576e-10
-2.70785e-10
2.97028e-10
-1.09178e-10
1.17679e-10
1.7294e-10
-3.02657e-10
5.14115e-10
-9.80067e-10
8.75908e-10
-1.91403e-09
1.23451e-09
-3.09384e-09
1.57608e-09
-4.50311e-09
1.89308e-09
-6.12226e-09
2.18174e-09
-7.93041e-09
2.4406e-09
-9.90652e-09
2.66974e-09
-1.20301e-08
2.87023e-09
-1.42816e-08
3.04367e-09
-1.66428e-08
3.19188e-09
-1.90966e-08
3.31682e-09
-2.16276e-08
3.42044e-09
-2.42213e-08
3.50469e-09
-2.6865e-08
3.57136e-09
-2.95466e-08
3.62205e-09
-3.22554e-08
3.65819e-09
-3.49816e-08
3.68101e-09
-3.77158e-08
3.69159e-09
-4.04498e-08
3.69083e-09
-4.31753e-08
3.67941e-09
-4.58849e-08
3.65785e-09
-4.85711e-08
3.62649e-09
-5.12268e-08
3.58554e-09
-5.38448e-08
3.53508e-09
-5.6418e-08
3.47509e-09
-5.89392e-08
3.40544e-09
-6.1401e-08
3.32593e-09
-6.37958e-08
3.23628e-09
-6.61158e-08
3.13616e-09
-6.83531e-08
3.02525e-09
-7.04994e-08
2.90318e-09
-7.25461e-08
2.76961e-09
-7.44846e-08
2.62424e-09
-7.6306e-08
2.46679e-09
-7.80012e-08
2.29706e-09
-7.95611e-08
2.11489e-09
-8.09765e-08
1.92023e-09
-8.22383e-08
1.71314e-09
-8.33376e-08
1.49378e-09
-8.42656e-08
1.26244e-09
-8.50139e-08
1.01956e-09
-8.55746e-08
7.65739e-10
-8.59402e-08
5.01707e-10
-8.61039e-08
2.28371e-10
-8.60599e-08
-5.32101e-11
-8.58031e-08
-3.41808e-10
-8.53293e-08
-6.3603e-10
-8.46359e-08
-9.34329e-10
-8.3721e-08
-1.235e-09
-8.25845e-08
-1.53619e-09
-8.12274e-08
-1.83595e-09
-7.96526e-08
-2.13218e-09
-7.78641e-08
-2.42272e-09
-7.5868e-08
-2.70532e-09
-7.36719e-08
-2.9777e-09
-7.12848e-08
-3.23754e-09
-6.87178e-08
-3.48254e-09
-6.59835e-08
-3.71046e-09
-6.30959e-08
-3.91909e-09
-6.00708e-08
-4.10636e-09
-5.69252e-08
-4.27032e-09
-5.36776e-08
-4.40919e-09
-5.03474e-08
-4.52136e-09
-4.69552e-08
-4.60547e-09
-4.35223e-08
-4.66039e-09
-4.00707e-08
-4.68527e-09
-3.66228e-08
-4.67955e-09
-3.32011e-08
-4.64295e-09
-2.98282e-08
-4.57552e-09
-2.65264e-08
-4.47763e-09
-2.33175e-08
-4.34996e-09
-2.02224e-08
-4.19349e-09
-1.72613e-08
-4.00954e-09
-1.44531e-08
-3.79972e-09
-1.18153e-08
-3.56593e-09
-9.36397e-09
-3.31034e-09
-7.11317e-09
-3.03538e-09
-5.07513e-09
-2.74375e-09
-3.25987e-09
-2.43835e-09
-1.67512e-09
-2.12236e-09
-3.26084e-10
-1.7992e-09
7.84779e-10
-1.47254e-09
1.65795e-09
-1.14641e-09
2.29717e-09
-8.25186e-10
2.70978e-09
-5.13755e-10
2.90718e-09
-2.17651e-10
2.90549e-09
5.66997e-11
2.72634e-09
3.01668e-10
2.39793e-09
5.07955e-10
1.95642e-09
6.64036e-10
1.44742e-09
7.55612e-10
9.2734e-10
7.65467e-10
4.63606e-10
6.74093e-10
1.30706e-10
4.64461e-10
1.51033e-10
9.30992e-11
-3.07253e-10
1.17476e-10
-2.95152e-10
-7.5331e-11
8.36343e-11
-5.72829e-10
6.70444e-10
-1.42507e-09
1.36636e-09
-2.6536e-09
2.10443e-09
-4.25974e-09
2.84066e-09
-6.23127e-09
3.5476e-09
-8.54714e-09
4.20895e-09
-1.11811e-08
4.81572e-09
-1.41043e-08
5.36378e-09
-1.72867e-08
5.85221e-09
-2.06987e-08
6.28224e-09
-2.43114e-08
6.65638e-09
-2.80974e-08
6.97784e-09
-3.20308e-08
7.25026e-09
-3.60878e-08
7.47741e-09
-4.02461e-08
7.663e-09
-4.44854e-08
7.81057e-09
-4.87867e-08
7.92335e-09
-5.31327e-08
8.00425e-09
-5.75075e-08
8.05581e-09
-6.18962e-08
8.08023e-09
-6.62847e-08
8.07935e-09
-7.06599e-08
8.05462e-09
-7.50092e-08
8.00714e-09
-7.93203e-08
7.93766e-09
-8.35815e-08
7.84666e-09
-8.77808e-08
7.73436e-09
-9.19064e-08
7.60075e-09
-9.59466e-08
7.4456e-09
-9.98892e-08
7.26851e-09
-1.03722e-07
7.06898e-09
-1.07432e-07
6.84638e-09
-1.11007e-07
6.60005e-09
-1.14433e-07
6.32932e-09
-1.17697e-07
6.03354e-09
-1.20785e-07
5.71211e-09
-1.23683e-07
5.36454e-09
-1.26376e-07
4.99043e-09
-1.28851e-07
4.58957e-09
-1.31092e-07
4.16193e-09
-1.33087e-07
3.70771e-09
-1.3482e-07
3.22733e-09
-1.3628e-07
2.72151e-09
-1.37451e-07
2.19126e-09
-1.38323e-07
1.63789e-09
-1.38885e-07
1.06306e-09
-1.39125e-07
4.68741e-10
-1.39036e-07
-1.42736e-10
-1.38609e-07
-7.68705e-10
-1.37839e-07
-1.40615e-09
-1.36721e-07
-2.05174e-09
-1.35254e-07
-2.70182e-09
-1.33438e-07
-3.35243e-09
-1.31275e-07
-3.99939e-09
-1.28769e-07
-4.63827e-09
-1.25927e-07
-5.26443e-09
-1.22759e-07
-5.87314e-09
-1.19277e-07
-6.45954e-09
-1.15496e-07
-7.01876e-09
-1.11433e-07
-7.54593e-09
-1.07107e-07
-8.03631e-09
-1.02541e-07
-8.48529e-09
-9.77584e-08
-8.88847e-09
-9.2787e-08
-9.24175e-09
-8.76548e-08
-9.54138e-09
-8.23921e-08
-9.78402e-09
-7.70308e-08
-9.96678e-09
-7.16039e-08
-1.00873e-08
-6.61454e-08
-1.01438e-08
-6.06899e-08
-1.01351e-08
-5.52722e-08
-1.00606e-08
-4.99274e-08
-9.92038e-09
-4.46897e-08
-9.71528e-09
-3.9593e-08
-9.44671e-09
-3.46697e-08
-9.11678e-09
-2.9951e-08
-8.72825e-09
-2.54661e-08
-8.28455e-09
-2.12424e-08
-7.78971e-09
-1.73043e-08
-7.24836e-09
-1.3674e-08
-6.6657e-09
-1.03703e-08
-6.04747e-09
-7.40867e-09
-5.39997e-09
-4.80101e-09
-4.73002e-09
-2.55522e-09
-4.04498e-09
-6.74932e-10
-3.35283e-09
8.40876e-10
-2.66222e-09
1.9983e-09
-1.98262e-09
2.80901e-09
-1.32446e-09
3.29086e-09
-6.99501e-10
3.46866e-09
-1.21111e-10
3.37513e-09
3.9519e-10
3.05196e-09
8.31133e-10
2.55097e-09
1.16502e-09
1.93531e-09
1.37128e-09
1.28015e-09
1.42066e-09
6.723e-10
1.28196e-09
2.08466e-10
9.28263e-10
3.59503e-10
9.84703e-12
-3.17105e-10
-1.68522e-10
-1.16785e-10
-6.69304e-10
5.84419e-10
-1.5763e-09
1.57742e-09
-2.93809e-09
2.72816e-09
-4.77604e-09
3.94238e-09
-7.09079e-09
5.15541e-09
-9.86821e-09
6.32501e-09
-1.30839e-08
7.42468e-09
-1.67071e-08
8.43889e-09
-2.07031e-08
9.35976e-09
-2.50355e-08
1.01846e-08
-2.96677e-08
1.09144e-08
-3.45635e-08
1.15522e-08
-3.96883e-08
1.21026e-08
-4.5009e-08
1.2571e-08
-5.04947e-08
1.29631e-08
-5.61165e-08
1.32848e-08
-6.18473e-08
1.35414e-08
-6.76623e-08
1.37383e-08
-7.3538e-08
1.388e-08
-7.9453e-08
1.39708e-08
-8.5387e-08
1.40142e-08
-9.13208e-08
1.40132e-08
-9.72363e-08
1.39702e-08
-1.03116e-07
1.3887e-08
-1.08944e-07
1.37651e-08
-1.14702e-07
1.36051e-08
-1.20375e-07
1.34075e-08
-1.25947e-07
1.31724e-08
-1.31401e-07
1.28993e-08
-1.3672e-07
1.25878e-08
-1.41888e-07
1.2237e-08
-1.46887e-07
1.1846e-08
-1.51701e-07
1.14137e-08
-1.56311e-07
1.09392e-08
-1.60699e-07
1.04214e-08
-1.64846e-07
9.85936e-09
-1.68734e-07
9.25246e-09
-1.72344e-07
8.60012e-09
-1.75656e-07
7.90209e-09
-1.78653e-07
7.15842e-09
-1.81314e-07
6.36958e-09
-1.83624e-07
5.53642e-09
-1.85562e-07
4.66027e-09
-1.87114e-07
3.74294e-09
-1.88263e-07
2.78677e-09
-1.88994e-07
1.79465e-09
-1.89296e-07
7.70036e-10
-1.89155e-07
-2.83048e-10
-1.88564e-07
-1.36001e-09
-1.87515e-07
-2.45569e-09
-1.86002e-07
-3.56437e-09
-1.84024e-07
-4.67984e-09
-1.81581e-07
-5.79541e-09
-1.78676e-07
-6.90394e-09
-1.75317e-07
-7.99793e-09
-1.71512e-07
-9.06961e-09
-1.67274e-07
-1.01109e-08
-1.6262e-07
-1.11137e-08
-1.57569e-07
-1.20698e-08
-1.52143e-07
-1.29711e-08
-1.4637e-07
-1.38095e-08
-1.40278e-07
-1.45772e-08
-1.339e-07
-1.52671e-08
-1.27269e-07
-1.58721e-08
-1.20425e-07
-1.6386e-08
-1.13406e-07
-1.68032e-08
-1.06253e-07
-1.71188e-08
-9.90118e-08
-1.7329e-08
-9.17249e-08
-1.74307e-08
-8.4438e-08
-1.74219e-08
-7.71969e-08
-1.73017e-08
-7.00471e-08
-1.70702e-08
-6.30337e-08
-1.67287e-08
-5.62007e-08
-1.62797e-08
-4.95907e-08
-1.57267e-08
-4.32445e-08
-1.50744e-08
-3.72005e-08
-1.43285e-08
-3.14943e-08
-1.34959e-08
-2.61583e-08
-1.25844e-08
-2.12213e-08
-1.16028e-08
-1.67079e-08
-1.05608e-08
-1.26386e-08
-9.46926e-09
-9.02892e-09
-8.33973e-09
-5.88908e-09
-7.18481e-09
-3.22382e-09
-6.0181e-09
-1.03171e-09
-4.85433e-09
6.95225e-10
-3.70956e-09
1.97216e-09
-2.6014e-09
2.82206e-09
-1.54941e-09
3.27651e-09
-5.75569e-10
3.37654e-09
2.95166e-10
3.17352e-09
1.03415e-09
2.73012e-09
1.60841e-09
2.12113e-09
1.98026e-09
1.4341e-09
2.10769e-09
7.69885e-10
1.94619e-09
2.44226e-10
1.45391e-09
6.03727e-10
-9.32777e-11
-2.2383e-10
-5.21314e-10
3.11241e-10
-1.38967e-09
1.45278e-09
-2.76722e-09
2.95498e-09
-4.69368e-09
4.65461e-09
-7.18486e-09
6.43356e-09
-1.02377e-08
8.20828e-09
-1.38349e-08
9.92214e-09
-1.79485e-08
1.15383e-08
-2.25439e-08
1.30343e-08
-2.75819e-08
1.43978e-08
-3.30212e-08
1.56239e-08
-3.88196e-08
1.67128e-08
-4.49355e-08
1.76681e-08
-5.13283e-08
1.84953e-08
-5.7959e-08
1.92018e-08
-6.4791e-08
1.97951e-08
-7.17895e-08
2.02832e-08
-7.89219e-08
2.06739e-08
-8.61578e-08
2.09742e-08
-9.34688e-08
2.1191e-08
-1.00828e-07
2.13301e-08
-1.0821e-07
2.13966e-08
-1.15592e-07
2.13949e-08
-1.2295e-07
2.13284e-08
-1.30263e-07
2.12e-08
-1.3751e-07
2.10114e-08
-1.44669e-07
2.0764e-08
-1.5172e-07
2.04585e-08
-1.58642e-07
2.00948e-08
-1.65415e-07
1.96726e-08
-1.72019e-07
1.91912e-08
-1.78431e-07
1.86494e-08
-1.84631e-07
1.8046e-08
-1.90597e-07
1.73795e-08
-1.96306e-07
1.66486e-08
-2.01737e-07
1.58519e-08
-2.06866e-07
1.49882e-08
-2.1167e-07
1.40566e-08
-2.16126e-07
1.30564e-08
-2.20212e-07
1.19873e-08
-2.23903e-07
1.08498e-08
-2.27178e-07
9.64458e-09
-2.30015e-07
8.3731e-09
-2.32392e-07
7.0375e-09
-2.3429e-07
5.64064e-09
-2.35689e-07
4.18617e-09
-2.36573e-07
2.67855e-09
-2.36926e-07
1.12304e-09
-2.36735e-07
-4.74229e-10
-2.35988e-07
-2.10629e-09
-2.34679e-07
-3.76537e-09
-2.328e-07
-5.44287e-09
-2.30351e-07
-7.12946e-09
-2.27331e-07
-8.81511e-09
-2.23746e-07
-1.04892e-08
-2.19603e-07
-1.21405e-08
-2.14915e-07
-1.37574e-08
-2.09698e-07
-1.5328e-08
-2.03972e-07
-1.68401e-08
-1.9776e-07
-1.82816e-08
-1.91091e-07
-1.96404e-08
-1.83996e-07
-2.09046e-08
-1.7651e-07
-2.20628e-08
-1.68673e-07
-2.31041e-08
-1.60527e-07
-2.40182e-08
-1.52117e-07
-2.4796e-08
-1.43491e-07
-2.5429e-08
-1.347e-07
-2.59103e-08
-1.25795e-07
-2.62338e-08
-1.1683e-07
-2.63952e-08
-1.07861e-07
-2.63915e-08
-9.89412e-08
-2.62213e-08
-9.01265e-08
-2.58849e-08
-8.14712e-08
-2.5384e-08
-7.30285e-08
-2.47225e-08
-6.48499e-08
-2.39054e-08
-5.69846e-08
-2.29397e-08
-4.94792e-08
-2.1834e-08
-4.23766e-08
-2.05985e-08
-3.57161e-08
-1.92449e-08
-2.95325e-08
-1.77863e-08
-2.3856e-08
-1.62373e-08
-1.87111e-08
-1.46141e-08
-1.41167e-08
-1.29341e-08
-1.00855e-08
-1.12161e-08
-6.62307e-09
-9.48049e-09
-3.72805e-09
-7.74935e-09
-1.39108e-09
-6.04653e-09
4.05611e-10
-4.39809e-09
1.68883e-09
-2.83264e-09
2.49516e-09
-1.38189e-09
2.87165e-09
-8.13058e-11
2.87653e-09
1.02926e-09
2.58002e-09
1.90492e-09
2.06492e-09
2.49536e-09
1.42757e-09
2.74503e-09
7.7928e-10
2.59448e-09
2.49766e-10
1.98343e-09
8.53491e-10
-2.03622e-10
-2.02001e-11
-9.04958e-10
1.01258e-09
-2.175e-09
2.72281e-09
-4.06083e-09
4.8408e-09
-6.58786e-09
7.18163e-09
-9.76226e-09
9.60796e-09
-1.35743e-08
1.20203e-08
-1.80016e-08
1.43494e-08
-2.30121e-08
1.65488e-08
-2.85671e-08
1.85893e-08
-3.46234e-08
2.04541e-08
-4.11356e-08
2.21361e-08
-4.80569e-08
2.36342e-08
-5.53412e-08
2.49523e-08
-6.29431e-08
2.60972e-08
-7.08189e-08
2.70776e-08
-7.8927e-08
2.79032e-08
-8.72278e-08
2.8584e-08
-9.56838e-08
2.91299e-08
-1.0426e-07
2.95505e-08
-1.12923e-07
2.98542e-08
-1.21642e-07
3.00491e-08
-1.30388e-07
3.01418e-08
-1.39131e-07
3.01381e-08
-1.47845e-07
3.00427e-08
-1.56504e-07
2.98591e-08
-1.65083e-07
2.95901e-08
-1.73556e-07
2.92374e-08
-1.819e-07
2.88019e-08
-1.90089e-07
2.82838e-08
-1.98099e-07
2.76825e-08
-2.05905e-07
2.69972e-08
-2.13482e-07
2.62265e-08
-2.20805e-07
2.53688e-08
-2.27847e-07
2.44223e-08
-2.34584e-07
2.33851e-08
-2.40988e-07
2.22557e-08
-2.47032e-07
2.10325e-08
-2.5269e-07
1.97144e-08
-2.57934e-07
1.83008e-08
-2.62738e-07
1.67916e-08
-2.67076e-07
1.51873e-08
-2.70921e-07
1.34893e-08
-2.74247e-07
1.16997e-08
-2.77031e-07
9.82175e-09
-2.7925e-07
7.85955e-09
-2.80883e-07
5.8183e-09
-2.81908e-07
3.7043e-09
-2.8231e-07
1.525e-09
-2.82073e-07
-7.1102e-10
-2.81186e-07
-2.99404e-09
-2.79638e-07
-5.31322e-09
-2.77424e-07
-7.65664e-09
-2.74542e-07
-1.00114e-08
-2.70994e-07
-1.23635e-08
-2.66784e-07
-1.46985e-08
-2.61924e-07
-1.70007e-08
-2.56427e-07
-1.92543e-08
-2.50312e-07
-2.14428e-08
-2.43603e-07
-2.35495e-08
-2.36327e-07
-2.55578e-08
-2.28516e-07
-2.74511e-08
-2.20208e-07
-2.9213e-08
-2.11443e-07
-3.08279e-08
-2.02266e-07
-3.22809e-08
-1.92726e-07
-3.3558e-08
-1.82875e-07
-3.46465e-08
-1.72769e-07
-3.5535e-08
-1.62466e-07
-3.62137e-08
-1.52025e-07
-3.66746e-08
-1.41509e-07
-3.69115e-08
-1.3098e-07
-3.69205e-08
-1.20502e-07
-3.66994e-08
-1.10138e-07
-3.62488e-08
-9.9951e-08
-3.5571e-08
-9.00024e-08
-3.4671e-08
-8.03516e-08
-3.35561e-08
-7.10555e-08
-3.22358e-08
-6.21678e-08
-3.07217e-08
-5.37384e-08
-2.9028e-08
-4.58126e-08
-2.71707e-08
-3.84309e-08
-2.5168e-08
-3.16281e-08
-2.30401e-08
-2.54329e-08
-2.08093e-08
-1.98674e-08
-1.84996e-08
-1.49463e-08
-1.61372e-08
-1.06768e-08
-1.37501e-08
-7.05745e-09
-1.13686e-08
-4.07833e-09
-9.02566e-09
-1.71986e-09
-6.75655e-09
4.74525e-11
-4.59995e-09
1.26373e-09
-2.59816e-09
1.98026e-09
-7.97843e-10
2.26013e-09
7.49385e-10
2.1788e-09
1.98627e-09
1.82474e-09
2.84943e-09
1.3005e-09
3.26926e-09
7.24557e-10
3.17043e-09
2.35036e-10
2.47295e-09
1.08852e-09
-3.14654e-10
2.94449e-10
-1.29858e-09
1.9965e-09
-2.9866e-09
4.41083e-09
-5.40086e-09
7.25506e-09
-8.54889e-09
1.03297e-08
-1.24242e-08
1.34833e-08
-1.7008e-08
1.66041e-08
-2.2271e-08
1.96124e-08
-2.81759e-08
2.24537e-08
-3.46795e-08
2.50928e-08
-4.17345e-08
2.75091e-08
-4.92914e-08
2.9693e-08
-5.72998e-08
3.16426e-08
-6.57094e-08
3.3362e-08
-7.4471e-08
3.48588e-08
-8.35368e-08
3.61434e-08
-9.2861e-08
3.72274e-08
-1.024e-07
3.81229e-08
-1.12112e-07
3.88422e-08
-1.21958e-07
3.93967e-08
-1.31902e-07
3.97973e-08
-1.41906e-07
4.00537e-08
-1.51939e-07
4.01744e-08
-1.61967e-07
4.01666e-08
-1.71961e-07
4.00362e-08
-1.81889e-07
3.97878e-08
-1.91724e-07
3.94247e-08
-2.01436e-07
3.89493e-08
-2.10997e-07
3.83627e-08
-2.20378e-07
3.76652e-08
-2.29552e-07
3.68564e-08
-2.3849e-07
3.59349e-08
-2.47163e-07
3.48993e-08
-2.55541e-07
3.37475e-08
-2.63596e-07
3.24775e-08
-2.71298e-07
3.1087e-08
-2.78617e-07
2.95741e-08
-2.85521e-07
2.7937e-08
-2.91982e-07
2.61746e-08
-2.97967e-07
2.42862e-08
-3.03447e-07
2.22719e-08
-3.08393e-07
2.01327e-08
-3.12774e-07
1.78705e-08
-3.16563e-07
1.54885e-08
-3.19732e-07
1.29911e-08
-3.22256e-07
1.03837e-08
-3.24111e-07
7.67351e-09
-3.25276e-07
4.86886e-09
-3.25731e-07
1.97968e-09
-3.25459e-07
-9.82675e-10
-3.24448e-07
-4.00537e-09
-3.22687e-07
-7.07412e-09
-3.2017e-07
-1.01733e-08
-3.16895e-07
-1.32859e-08
-3.12865e-07
-1.63938e-08
-3.08086e-07
-1.94778e-08
-3.02569e-07
-2.25177e-08
-2.9633e-07
-2.54928e-08
-2.89392e-07
-2.83815e-08
-2.81779e-07
-3.11623e-08
-2.73523e-07
-3.38133e-08
-2.64661e-07
-3.63129e-08
-2.55234e-07
-3.86401e-08
-2.45288e-07
-4.07744e-08
-2.34872e-07
-4.26964e-08
-2.24042e-07
-4.43879e-08
-2.12857e-07
-4.58324e-08
-2.01376e-07
-4.70151e-08
-1.89667e-07
-4.79232e-08
-1.77795e-07
-4.85463e-08
-1.6583e-07
-4.88763e-08
-1.53843e-07
-4.89079e-08
-1.41904e-07
-4.86385e-08
-1.30084e-07
-4.80684e-08
-1.18454e-07
-4.7201e-08
-1.07083e-07
-4.60426e-08
-9.60365e-08
-4.46024e-08
-8.53793e-08
-4.2893e-08
-7.51716e-08
-4.09295e-08
-6.54694e-08
-3.87302e-08
-5.63239e-08
-3.63161e-08
-4.77808e-08
-3.37111e-08
-3.98794e-08
-3.09415e-08
-3.26523e-08
-2.80364e-08
-2.61246e-08
-2.50273e-08
-2.03135e-08
-2.19483e-08
-1.52275e-08
-1.88361e-08
-1.0866e-08
-1.57301e-08
-7.21874e-09
-1.26729e-08
-4.26522e-09
-9.71008e-09
-1.97417e-09
-6.89099e-09
-3.03138e-10
-4.2692e-09
8.02114e-10
-1.9031e-09
1.408e-09
1.43496e-10
1.59362e-09
1.80066e-09
1.45136e-09
2.9917e-09
1.0879e-09
3.6327e-09
6.25969e-10
3.63237e-09
2.07379e-10
2.89154e-09
1.2959e-09
-4.23587e-10
7.18033e-10
-1.69037e-09
3.26328e-09
-3.80076e-09
6.52122e-09
-6.75087e-09
1.02052e-08
-1.05285e-08
1.41073e-08
-1.51124e-08
1.80673e-08
-2.04728e-08
2.19645e-08
-2.65719e-08
2.57116e-08
-3.33662e-08
2.92479e-08
-4.0807e-08
3.25336e-08
-4.88428e-08
3.55449e-08
-5.74201e-08
3.82703e-08
-6.64847e-08
4.07073e-08
-7.59829e-08
4.28602e-08
-8.58619e-08
4.47378e-08
-9.60704e-08
4.63519e-08
-1.06559e-07
4.77161e-08
-1.17281e-07
4.88447e-08
-1.28191e-07
4.9752e-08
-1.39246e-07
5.04517e-08
-1.50405e-07
5.09568e-08
-1.6163e-07
5.12789e-08
-1.72884e-07
5.14283e-08
-1.84131e-07
5.14135e-08
-1.95337e-07
5.12417e-08
-2.06467e-07
5.09186e-08
-2.17491e-07
5.04482e-08
-2.28375e-07
4.98333e-08
-2.39088e-07
4.90754e-08
-2.49597e-07
4.81749e-08
-2.59872e-07
4.71313e-08
-2.6988e-07
4.59432e-08
-2.7959e-07
4.46087e-08
-2.88968e-07
4.31255e-08
-2.97981e-07
4.14911e-08
-3.06597e-07
3.9703e-08
-3.14782e-07
3.7759e-08
-3.22503e-07
3.56572e-08
-3.29724e-07
3.33962e-08
-3.36413e-07
3.09756e-08
-3.42537e-07
2.83956e-08
-3.48062e-07
2.56579e-08
-3.52957e-07
2.27651e-08
-3.5719e-07
1.97214e-08
-3.60731e-07
1.65326e-08
-3.63554e-07
1.32058e-08
-3.6563e-07
9.75024e-09
-3.66938e-07
6.17655e-09
-3.67456e-07
2.49741e-09
-3.67166e-07
-1.27276e-09
-3.66053e-07
-5.11769e-09
-3.64108e-07
-9.01933e-09
-3.61323e-07
-1.29579e-08
-3.57697e-07
-1.69122e-08
-3.53232e-07
-2.08592e-08
-3.47935e-07
-2.47748e-08
-3.41819e-07
-2.86338e-08
-3.34902e-07
-3.241e-08
-3.27207e-07
-3.60765e-08
-3.18763e-07
-3.96063e-08
-3.09604e-07
-4.2972e-08
-2.9977e-07
-4.61466e-08
-2.89307e-07
-4.91037e-08
-2.78263e-07
-5.18176e-08
-2.66696e-07
-5.42641e-08
-2.54663e-07
-5.64204e-08
-2.4223e-07
-5.82658e-08
-2.29463e-07
-5.97816e-08
-2.16435e-07
-6.09519e-08
-2.03218e-07
-6.17634e-08
-1.89888e-07
-6.2206e-08
-1.76523e-07
-6.22731e-08
-1.632e-07
-6.19611e-08
-1.49998e-07
-6.12705e-08
-1.36994e-07
-6.02052e-08
-1.24263e-07
-5.87732e-08
-1.1188e-07
-5.69859e-08
-9.99138e-08
-5.48588e-08
-8.84321e-08
-5.24112e-08
-7.74966e-08
-4.96657e-08
-6.7164e-08
-4.66487e-08
-5.7485e-08
-4.33902e-08
-4.85033e-08
-3.99232e-08
-4.02553e-08
-3.62844e-08
-3.27694e-08
-3.25132e-08
-2.60652e-08
-2.86525e-08
-2.0153e-08
-2.47483e-08
-1.50332e-08
-2.08499e-08
-1.06959e-08
-1.70102e-08
-7.1202e-09
-1.32857e-08
-4.27402e-09
-9.73717e-09
-2.11338e-09
-6.42985e-09
-5.82146e-10
-3.43434e-09
3.8831e-10
-8.26955e-10
8.79521e-10
1.30945e-09
9.8643e-10
2.88479e-09
8.18178e-10
3.80096e-09
4.99356e-10
3.95118e-09
1.72105e-10
3.21878e-09
1.46801e-09
-5.2887e-10
1.2469e-09
-2.07376e-09
4.80817e-09
-4.60331e-09
9.05077e-09
-8.08784e-09
1.36897e-08
-1.24948e-08
1.85142e-08
-1.77869e-08
2.33594e-08
-2.3922e-08
2.80995e-08
-3.08529e-08
3.26425e-08
-3.85284e-08
3.69234e-08
-4.6894e-08
4.08993e-08
-5.58933e-08
4.45442e-08
-6.54686e-08
4.78456e-08
-7.55622e-08
5.08008e-08
-8.61167e-08
5.34147e-08
-9.70762e-08
5.56973e-08
-1.08386e-07
5.76621e-08
-1.19995e-07
5.93245e-08
-1.31851e-07
6.07011e-08
-1.43907e-07
6.18083e-08
-1.56118e-07
6.26621e-08
-1.68438e-07
6.32775e-08
-1.80827e-07
6.3668e-08
-1.93245e-07
6.38455e-08
-2.05651e-07
6.38202e-08
-2.1801e-07
6.36004e-08
-2.30284e-07
6.31928e-08
-2.42438e-07
6.26021e-08
-2.54437e-07
6.18318e-08
-2.66245e-07
6.08835e-08
-2.77828e-07
5.97577e-08
-2.8915e-07
5.84538e-08
-3.00177e-07
5.69704e-08
-3.10874e-07
5.53052e-08
-3.21204e-07
5.34556e-08
-3.31132e-07
5.14188e-08
-3.40621e-07
4.91919e-08
-3.49634e-07
4.67725e-08
-3.58135e-07
4.41584e-08
-3.66087e-07
4.13484e-08
-3.73454e-07
3.83421e-08
-3.80198e-07
3.51401e-08
-3.86285e-07
3.17447e-08
-3.91679e-07
2.81594e-08
-3.96348e-07
2.43896e-08
-4.00258e-07
2.04425e-08
-4.03379e-07
1.63272e-08
-4.05684e-07
1.20549e-08
-4.07146e-07
7.6391e-09
-4.07744e-07
3.09521e-09
-4.07458e-07
-1.55894e-09
-4.06272e-07
-6.30341e-09
-4.04175e-07
-1.11161e-08
-4.0116e-07
-1.59728e-08
-3.97225e-07
-2.08475e-08
-3.92372e-07
-2.57122e-08
-3.86609e-07
-3.05376e-08
-3.7995e-07
-3.52929e-08
-3.72414e-07
-3.99462e-08
-3.64026e-07
-4.44648e-08
-3.54816e-07
-4.88156e-08
-3.44823e-07
-5.29655e-08
-3.34088e-07
-5.68816e-08
-3.2266e-07
-6.05317e-08
-3.10593e-07
-6.38845e-08
-2.97946e-07
-6.69105e-08
-2.84785e-07
-6.9582e-08
-2.71177e-07
-7.18736e-08
-2.57196e-07
-7.37626e-08
-2.42918e-07
-7.52294e-08
-2.28424e-07
-7.62578e-08
-2.13795e-07
-7.68353e-08
-1.99114e-07
-7.69536e-08
-1.84467e-07
-7.66084e-08
-1.69938e-07
-7.57999e-08
-1.5561e-07
-7.45329e-08
-1.41566e-07
-7.28166e-08
-1.27887e-07
-7.06652e-08
-1.14649e-07
-6.80971e-08
-1.01924e-07
-6.51358e-08
-8.97811e-08
-6.18088e-08
-7.82814e-08
-5.81484e-08
-6.74809e-08
-5.41907e-08
-5.74278e-08
-4.99763e-08
-4.81625e-08
-4.55497e-08
-3.97165e-08
-4.09591e-08
-3.21123e-08
-3.62567e-08
-2.53622e-08
-3.14984e-08
-1.94681e-08
-2.6744e-08
-1.44209e-08
-2.20574e-08
-1.02001e-08
-1.75066e-08
-6.77305e-09
-1.31642e-08
-4.0952e-09
-9.10771e-09
-2.10928e-09
-5.42025e-09
-7.45296e-10
-2.19094e-09
7.98282e-11
4.84311e-10
4.62548e-10
2.50207e-09
5.13141e-10
3.75037e-09
3.56448e-10
4.10787e-09
1.32885e-10
3.44234e-09
1.60089e-09
-6.29903e-10
1.8768e-09
-2.44541e-09
6.62367e-09
-5.38614e-09
1.19915e-08
-9.39774e-09
1.77013e-08
-1.44273e-08
2.35437e-08
-2.0421e-08
2.93532e-08
-2.73237e-08
3.50022e-08
-3.50776e-08
4.03964e-08
-4.36233e-08
4.54692e-08
-5.28998e-08
5.01758e-08
-6.28451e-08
5.44895e-08
-7.33972e-08
5.83977e-08
-8.44944e-08
6.18981e-08
-9.60763e-08
6.49966e-08
-1.08084e-07
6.77047e-08
-1.20459e-07
7.00377e-08
-1.33148e-07
7.20132e-08
-1.46097e-07
7.36499e-08
-1.59255e-07
7.49665e-08
-1.72574e-07
7.59812e-08
-1.86007e-07
7.67109e-08
-1.99511e-07
7.71712e-08
-2.13041e-07
7.73756e-08
-2.26557e-07
7.73358e-08
-2.40017e-07
7.70613e-08
-2.53384e-07
7.65597e-08
-2.66619e-07
7.58365e-08
-2.79682e-07
7.48955e-08
-2.92538e-07
7.37388e-08
-3.05147e-07
7.23669e-08
-3.17472e-07
7.07792e-08
-3.29476e-07
6.89739e-08
-3.41119e-07
6.69485e-08
-3.52364e-07
6.47002e-08
-3.63171e-07
6.22257e-08
-3.73501e-07
5.95218e-08
-3.83314e-07
5.65859e-08
-3.92571e-07
5.34158e-08
-4.01233e-07
5.001e-08
-4.09259e-07
4.63685e-08
-4.16612e-07
4.24923e-08
-4.23251e-07
3.83844e-08
-4.29141e-07
3.40492e-08
-4.34245e-07
2.94934e-08
-4.38528e-07
2.47258e-08
-4.41958e-07
1.97575e-08
-4.44505e-07
1.46021e-08
-4.46142e-07
9.27571e-09
-4.46844e-07
3.79701e-09
-4.4659e-07
-1.81269e-09
-4.45364e-07
-7.5295e-09
-4.43153e-07
-1.3327e-08
-4.3995e-07
-1.91764e-08
-4.35751e-07
-2.50465e-08
-4.30559e-07
-3.09041e-08
-4.24382e-07
-3.67142e-08
-4.17235e-07
-4.24401e-08
-4.09137e-07
-4.80438e-08
-4.00115e-07
-5.34866e-08
-3.90202e-07
-5.87289e-08
-3.79436e-07
-6.37313e-08
-3.67863e-07
-6.84547e-08
-3.55534e-07
-7.28605e-08
-3.42507e-07
-7.69118e-08
-3.28845e-07
-8.05731e-08
-3.14615e-07
-8.38113e-08
-2.99893e-07
-8.65961e-08
-2.84755e-07
-8.89003e-08
-2.69284e-07
-9.07004e-08
-2.53565e-07
-9.19769e-08
-2.37686e-07
-9.27147e-08
-2.21736e-07
-9.29036e-08
-2.05806e-07
-9.25381e-08
-1.89987e-07
-9.16184e-08
-1.74371e-07
-9.01497e-08
-1.59044e-07
-8.8143e-08
-1.44095e-07
-8.56147e-08
-1.29605e-07
-8.25868e-08
-1.15654e-07
-7.90868e-08
-1.02315e-07
-7.51476e-08
-8.96561e-08
-7.08074e-08
-7.77375e-08
-6.61093e-08
-6.66123e-08
-6.11015e-08
-5.6325e-08
-5.58371e-08
-4.69107e-08
-5.03734e-08
-3.83947e-08
-4.47726e-08
-3.07921e-08
-3.91011e-08
-2.41064e-08
-3.34297e-08
-1.83298e-08
-2.7834e-08
-1.34427e-08
-2.23938e-08
-9.41262e-09
-1.71942e-08
-6.19487e-09
-1.23255e-08
-3.73168e-09
-7.88343e-09
-1.9523e-09
-3.97033e-09
-7.72783e-10
-6.95203e-10
-9.59488e-11
1.82525e-09
1.88784e-10
3.46564e-09
2.05562e-10
4.09109e-09
9.2178e-11
3.55573e-09
1.69307e-09
-7.26601e-10
2.6034e-09
-2.80387e-09
8.70092e-09
-6.14498e-09
1.53326e-08
-1.06724e-08
2.22287e-08
-1.63134e-08
2.91847e-08
-2.29978e-08
3.60376e-08
-3.06566e-08
4.2661e-08
-3.92213e-08
4.89612e-08
-4.86236e-08
5.48714e-08
-5.87952e-08
6.03474e-08
-6.96684e-08
6.53628e-08
-8.11765e-08
6.99057e-08
-9.32537e-08
7.39753e-08
-1.05836e-07
7.7579e-08
-1.18862e-07
8.07302e-08
-1.3227e-07
8.34463e-08
-1.46004e-07
8.57472e-08
-1.60008e-07
8.76539e-08
-1.74229e-07
8.91874e-08
-1.88616e-07
9.03681e-08
-2.0312e-07
9.12151e-08
-2.17695e-07
9.17456e-08
-2.32294e-07
9.19751e-08
-2.46875e-07
9.19165e-08
-2.61394e-07
9.15806e-08
-2.7581e-07
9.09759e-08
-2.90083e-07
9.01087e-08
-3.0417e-07
8.8983e-08
-3.18033e-07
8.76013e-08
-3.3163e-07
8.59642e-08
-3.44922e-07
8.40708e-08
-3.57867e-07
8.19193e-08
-3.70425e-07
7.95069e-08
-3.82555e-07
7.68302e-08
-3.94215e-07
7.38857e-08
-4.05364e-07
7.067e-08
-4.15958e-07
6.71801e-08
-4.25956e-07
6.34136e-08
-4.35315e-07
5.93692e-08
-4.43993e-07
5.5047e-08
-4.51949e-07
5.04486e-08
-4.59143e-07
4.55775e-08
-4.65533e-07
4.04393e-08
-4.71081e-07
3.5042e-08
-4.75752e-07
2.93961e-08
-4.79509e-07
2.35149e-08
-4.82321e-07
1.74142e-08
-4.84159e-07
1.11132e-08
-4.84995e-07
4.63379e-09
-4.84809e-07
-1.99899e-09
-4.83582e-07
-8.75715e-09
-4.81299e-07
-1.56097e-08
-4.77952e-07
-2.2523e-08
-4.73538e-07
-2.94605e-08
-4.68059e-07
-3.63835e-08
-4.61522e-07
-4.32509e-08
-4.53942e-07
-5.002e-08
-4.4534e-07
-5.66462e-08
-4.35742e-07
-6.30843e-08
-4.25183e-07
-6.9288e-08
-4.13703e-07
-7.52113e-08
-4.01349e-07
-8.08081e-08
-3.88176e-07
-8.60336e-08
-3.74244e-07
-9.08441e-08
-3.59619e-07
-9.51982e-08
-3.44373e-07
-9.9057e-08
-3.28585e-07
-1.02385e-07
-3.12336e-07
-1.05149e-07
-2.95714e-07
-1.07323e-07
-2.78808e-07
-1.08882e-07
-2.61714e-07
-1.09809e-07
-2.44526e-07
-1.10092e-07
-2.27341e-07
-1.09723e-07
-2.10256e-07
-1.08703e-07
-1.93369e-07
-1.07037e-07
-1.76774e-07
-1.04738e-07
-1.60564e-07
-1.01824e-07
-1.4483e-07
-9.83214e-08
-1.29655e-07
-9.42616e-08
-1.1512e-07
-8.96831e-08
-1.01297e-07
-8.46302e-08
-8.82525e-08
-7.91536e-08
-7.60445e-08
-7.33095e-08
-6.47219e-08
-6.71597e-08
-5.43236e-08
-6.07717e-08
-4.48785e-08
-5.42177e-08
-3.64043e-08
-4.75753e-08
-2.89069e-08
-4.09271e-08
-2.23804e-08
-3.43605e-08
-1.6806e-08
-2.79682e-08
-1.21523e-08
-2.18479e-08
-8.37473e-09
-1.6103e-08
-5.4156e-09
-1.08426e-08
-3.20381e-09
-6.18212e-09
-1.65505e-09
-2.24396e-09
-6.71846e-10
8.42048e-10
-1.43751e-10
2.93754e-09
5.2337e-11
3.895e-09
5.1566e-11
3.5565e-09
1.74463e-09
-8.19113e-10
3.42252e-09
-3.14864e-09
1.10304e-08
-6.87783e-09
1.90618e-08
-1.19075e-08
2.72584e-08
-1.81459e-08
3.54231e-08
-2.55066e-08
4.33983e-08
-3.39072e-08
5.10616e-08
-4.32677e-08
5.83217e-08
-5.35106e-08
6.51143e-08
-6.45601e-08
7.13969e-08
-7.63425e-08
7.71451e-08
-8.87857e-08
8.23489e-08
-1.0182e-07
8.70097e-08
-1.15378e-07
9.1137e-08
-1.29395e-07
9.47467e-08
-1.43807e-07
9.78587e-08
-1.58555e-07
1.00495e-07
-1.73581e-07
1.0268e-07
-1.8883e-07
1.04436e-07
-2.04249e-07
1.05787e-07
-2.19787e-07
1.06753e-07
-2.35395e-07
1.07354e-07
-2.51026e-07
1.07606e-07
-2.66634e-07
1.07525e-07
-2.82175e-07
1.07121e-07
-2.97604e-07
1.06405e-07
-3.12878e-07
1.05383e-07
-3.27955e-07
1.0406e-07
-3.42792e-07
1.02438e-07
-3.57346e-07
1.00519e-07
-3.71576e-07
9.83001e-08
-3.85437e-07
9.57805e-08
-3.98887e-07
9.29567e-08
-4.11882e-07
8.9825e-08
-4.24377e-07
8.63815e-08
-4.3633e-07
8.26224e-08
-4.47694e-07
7.85444e-08
-4.58426e-07
7.41451e-08
-4.6848e-07
6.94232e-08
-4.77811e-07
6.43788e-08
-4.86377e-07
5.90142e-08
-4.94133e-07
5.33336e-08
-5.01037e-07
4.73437e-08
-5.07049e-07
4.10537e-08
-5.12129e-07
3.4476e-08
-5.1624e-07
2.76259e-08
-5.19348e-07
2.05219e-08
-5.21421e-07
1.31861e-08
-5.22431e-07
5.64388e-09
-5.22354e-07
-2.07602e-09
-5.2117e-07
-9.94128e-09
-5.18863e-07
-1.79163e-08
-5.15424e-07
-2.59621e-08
-5.10848e-07
-3.40369e-08
-5.05135e-07
-4.2096e-08
-4.98294e-07
-5.00921e-08
-4.90338e-07
-5.79759e-08
-4.81288e-07
-6.56963e-08
-4.71171e-07
-7.3201e-08
-4.60023e-07
-8.04368e-08
-4.47884e-07
-8.73503e-08
-4.34803e-07
-9.38885e-08
-4.20837e-07
-9.99995e-08
-4.06049e-07
-1.05633e-07
-3.90507e-07
-1.1074e-07
-3.74287e-07
-1.15277e-07
-3.57472e-07
-1.192e-07
-3.40147e-07
-1.22474e-07
-3.22404e-07
-1.25065e-07
-3.0434e-07
-1.26946e-07
-2.86052e-07
-1.28097e-07
-2.67643e-07