/*--------------------------------*- C++ -*----------------------------------*\
  =========                 |
  \\      /  F ield         | OpenFOAM: The Open Source CFD Toolbox
   \\    /   O peration     | Website:  https://openfoam.org
    \\  /    A nd           | Version:  7
     \\/     M anipulation  |
\*---------------------------------------------------------------------------*/
FoamFile
{
    version     2.0;
    format      ascii;
    class       volVectorField;
    location    "0.46875";
    object      U;
}
// * * * * * * * * * * * * * * * * * * * * * * * * * * * * * * * * * * * * * //

dimensions      [0 1 -1 0 0 0 0];

internalField   nonuniform List<vector> 
10000
(
(4.34834e-06 -3.81487e-06 0)
(1.49246e-05 -6.48601e-06 0)
(2.66393e-05 -5.58337e-06 0)
(3.19842e-05 -2.78301e-06 0)
(2.79012e-05 6.94907e-07 0)
(1.33517e-05 4.27826e-06 0)
(-1.16611e-05 7.68224e-06 0)
(-4.66453e-05 1.07939e-05 0)
(-9.08278e-05 1.35791e-05 0)
(-0.000143338 1.6045e-05 0)
(-0.000203281 1.81999e-05 0)
(-0.000269773 2.00521e-05 0)
(-0.000341967 2.16263e-05 0)
(-0.000419075 2.2956e-05 0)
(-0.000500371 2.40703e-05 0)
(-0.000585195 2.4991e-05 0)
(-0.000672949 2.57358e-05 0)
(-0.000763089 2.63248e-05 0)
(-0.000855127 2.67801e-05 0)
(-0.000948628 2.71195e-05 0)
(-0.0010432 2.73549e-05 0)
(-0.00113849 2.74948e-05 0)
(-0.00123418 2.7548e-05 0)
(-0.00132996 2.75244e-05 0)
(-0.00142556 2.7431e-05 0)
(-0.00152073 2.72717e-05 0)
(-0.00161521 2.70475e-05 0)
(-0.00170878 2.67588e-05 0)
(-0.00180118 2.64059e-05 0)
(-0.00189219 2.59886e-05 0)
(-0.00198156 2.55053e-05 0)
(-0.00206904 2.49534e-05 0)
(-0.00215439 2.43299e-05 0)
(-0.00223733 2.36314e-05 0)
(-0.00231761 2.28537e-05 0)
(-0.00239492 2.19924e-05 0)
(-0.00246898 2.10434e-05 0)
(-0.00253949 2.00033e-05 0)
(-0.00260612 1.88697e-05 0)
(-0.00266857 1.76402e-05 0)
(-0.00272649 1.63121e-05 0)
(-0.00277956 1.48837e-05 0)
(-0.00282744 1.33538e-05 0)
(-0.00286981 1.17229e-05 0)
(-0.00290633 9.99245e-06 0)
(-0.00293668 8.16496e-06 0)
(-0.00296057 6.2441e-06 0)
(-0.00297769 4.23516e-06 0)
(-0.00298778 2.14481e-06 0)
(-0.0029906 -1.87971e-08 0)
(-0.00298594 -2.24629e-06 0)
(-0.00297361 -4.52708e-06 0)
(-0.00295347 -6.8489e-06 0)
(-0.00292543 -9.19794e-06 0)
(-0.00288944 -1.15594e-05 0)
(-0.00284549 -1.39172e-05 0)
(-0.00279365 -1.62543e-05 0)
(-0.00273403 -1.85528e-05 0)
(-0.0026668 -2.07936e-05 0)
(-0.00259219 -2.29575e-05 0)
(-0.0025105 -2.50251e-05 0)
(-0.0024221 -2.69769e-05 0)
(-0.0023274 -2.87935e-05 0)
(-0.00222689 -3.04561e-05 0)
(-0.00212111 -3.19468e-05 0)
(-0.00201066 -3.32487e-05 0)
(-0.00189618 -3.43466e-05 0)
(-0.00177837 -3.52269e-05 0)
(-0.00165797 -3.58777e-05 0)
(-0.00153575 -3.62888e-05 0)
(-0.0014125 -3.64529e-05 0)
(-0.00128903 -3.63651e-05 0)
(-0.00116619 -3.60231e-05 0)
(-0.0010448 -3.54273e-05 0)
(-0.000925685 -3.45807e-05 0)
(-0.000809659 -3.3489e-05 0)
(-0.000697511 -3.21604e-05 0)
(-0.000589999 -3.06058e-05 0)
(-0.000487842 -2.88389e-05 0)
(-0.000391711 -2.68755e-05 0)
(-0.000302222 -2.47333e-05 0)
(-0.000219929 -2.24323e-05 0)
(-0.000145318 -1.9994e-05 0)
(-7.88015e-05 -1.74414e-05 0)
(-2.07085e-05 -1.47991e-05 0)
(2.87149e-05 -1.20944e-05 0)
(6.93166e-05 -9.3537e-06 0)
(0.000101047 -6.60835e-06 0)
(0.000123962 -3.89151e-06 0)
(0.00013824 -1.24025e-06 0)
(0.000144193 1.30212e-06 0)
(0.000142293 3.68265e-06 0)
(0.000133199 5.83337e-06 0)
(0.000117811 7.66125e-06 0)
(9.73357e-05 9.03208e-06 0)
(7.34018e-05 9.74869e-06 0)
(4.81806e-05 9.52511e-06 0)
(2.45836e-05 7.94487e-06 0)
(6.78916e-06 4.53528e-06 0)
(-1.67326e-08 -5.62804e-09 0)
(7.27709e-06 -1.51211e-05 0)
(2.24068e-05 -2.14724e-05 0)
(3.25192e-05 -1.36833e-05 0)
(2.60639e-05 1.80462e-06 0)
(-3.21996e-06 2.07793e-05 0)
(-5.79429e-05 4.08006e-05 0)
(-0.00013864 6.04619e-05 0)
(-0.000244638 7.9008e-05 0)
(-0.000374517 9.60655e-05 0)
(-0.000526417 0.000111475 0)
(-0.000698277 0.000125195 0)
(-0.000887989 0.000137254 0)
(-0.00109346 0.000147735 0)
(-0.00131267 0.000156748 0)
(-0.00154373 0.000164409 0)
(-0.00178488 0.000170832 0)
(-0.00203448 0.000176129 0)
(-0.00229105 0.000180411 0)
(-0.00255323 0.000183782 0)
(-0.00281977 0.000186331 0)
(-0.00308955 0.000188136 0)
(-0.00336153 0.000189263 0)
(-0.00363477 0.00018977 0)
(-0.00390839 0.000189706 0)
(-0.00418156 0.000189109 0)
(-0.0044535 0.000188005 0)
(-0.00472347 0.000186412 0)
(-0.00499074 0.000184338 0)
(-0.0052546 0.000181788 0)
(-0.00551435 0.000178759 0)
(-0.00576925 0.000175244 0)
(-0.00601858 0.00017123 0)
(-0.0062616 0.000166702 0)
(-0.00649754 0.000161641 0)
(-0.0067256 0.000156026 0)
(-0.00694498 0.000149838 0)
(-0.00715485 0.000143055 0)
(-0.00735433 0.000135662 0)
(-0.00754255 0.000127641 0)
(-0.0077186 0.000118981 0)
(-0.00788158 0.00010967 0)
(-0.00803057 9.97054e-05 0)
(-0.00816465 8.90858e-05 0)
(-0.00828292 7.78184e-05 0)
(-0.00838449 6.59174e-05 0)
(-0.00846851 5.34041e-05 0)
(-0.00853414 4.03075e-05 0)
(-0.00858063 2.66656e-05 0)
(-0.00860725 1.25241e-05 0)
(-0.00861337 -2.06211e-06 0)
(-0.00859844 -1.70296e-05 0)
(-0.00856199 -3.23062e-05 0)
(-0.00850368 -4.78109e-05 0)
(-0.00842329 -6.34545e-05 0)
(-0.0083207 -7.91401e-05 0)
(-0.00819598 -9.47643e-05 0)
(-0.0080493 -0.000110217 0)
(-0.00788101 -0.000125383 0)
(-0.00769161 -0.000140144 0)
(-0.00748179 -0.000154377 0)
(-0.00725238 -0.000167961 0)
(-0.00700439 -0.000180773 0)
(-0.006739 -0.000192692 0)
(-0.00645754 -0.000203602 0)
(-0.00616151 -0.000213392 0)
(-0.00585254 -0.000221956 0)
(-0.00553241 -0.000229201 0)
(-0.00520303 -0.000235041 0)
(-0.0048664 -0.000239402 0)
(-0.00452461 -0.000242223 0)
(-0.00417985 -0.00024346 0)
(-0.00383432 -0.000243082 0)
(-0.00349029 -0.000241075 0)
(-0.00315002 -0.00023744 0)
(-0.00281575 -0.000232198 0)
(-0.00248968 -0.000225384 0)
(-0.00217398 -0.000217051 0)
(-0.00187069 -0.000207268 0)
(-0.00158178 -0.000196121 0)
(-0.00130908 -0.00018371 0)
(-0.00105425 -0.00017015 0)
(-0.000818821 -0.000155569 0)
(-0.000604106 -0.000140108 0)
(-0.000411224 -0.000123919 0)
(-0.000241065 -0.000107167 0)
(-9.42812e-05 -9.00318e-05 0)
(2.8738e-05 -7.27015e-05 0)
(0.000127888 -5.53854e-05 0)
(0.000203372 -3.83112e-05 0)
(0.000255735 -2.17333e-05 0)
(0.000285901 -5.94256e-06 0)
(0.00029523 8.71827e-06 0)
(0.000285586 2.18327e-05 0)
(0.000259435 3.28777e-05 0)
(0.000219966 4.11767e-05 0)
(0.000171247 4.58492e-05 0)
(0.000118308 4.57753e-05 0)
(6.72081e-05 3.95921e-05 0)
(2.5942e-05 2.605e-05 0)
(4.47034e-06 6.76379e-06 0)
(6.08362e-06 -2.72244e-05 0)
(1.45126e-05 -3.20563e-05 0)
(8.52148e-06 -7.64871e-06 0)
(-2.42219e-05 3.30756e-05 0)
(-9.08601e-05 8.20739e-05 0)
(-0.00019465 0.000134136 0)
(-0.000336528 0.000185948 0)
(-0.000515827 0.000235497 0)
(-0.000730774 0.000281645 0)
(-0.000978933 0.000323805 0)
(-0.00125751 0.000361725 0)
(-0.00156352 0.000395383 0)
(-0.00189397 0.000424905 0)
(-0.00224589 0.000450501 0)
(-0.00261648 0.000472422 0)
(-0.00300306 0.000490938 0)
(-0.00340315 0.000506326 0)
(-0.00381445 0.00051886 0)
(-0.00423481 0.000528798 0)
(-0.00466228 0.000536371 0)
(-0.00509506 0.000541785 0)
(-0.00553148 0.00054522 0)
(-0.00597002 0.00054683 0)
(-0.00640922 0.000546744 0)
(-0.00684772 0.000545066 0)
(-0.00728425 0.00054187 0)
(-0.00771757 0.000537209 0)
(-0.00814648 0.000531113 0)
(-0.0085698 0.000523596 0)
(-0.00898634 0.000514654 0)
(-0.00939494 0.000504272 0)
(-0.00979438 0.000492419 0)
(-0.0101834 0.000479058 0)
(-0.0105609 0.000464143 0)
(-0.0109255 0.000447626 0)
(-0.0112759 0.000429457 0)
(-0.0116107 0.000409587 0)
(-0.0119286 0.000387973 0)
(-0.0122283 0.000364576 0)
(-0.0125082 0.000339368 0)
(-0.0127669 0.00031233 0)
(-0.0130031 0.000283456 0)
(-0.0132153 0.000252755 0)
(-0.013402 0.000220253 0)
(-0.013562 0.000185998 0)
(-0.0136938 0.000150053 0)
(-0.0137963 0.000112507 0)
(-0.0138682 7.34711e-05 0)
(-0.0139086 3.30781e-05 0)
(-0.0139163 -8.51437e-06 0)
(-0.0138906 -5.11247e-05 0)
(-0.0138309 -9.45475e-05 0)
(-0.0137366 -0.000138554 0)
(-0.0136074 -0.000182895 0)
(-0.0134432 -0.000227298 0)
(-0.0132442 -0.000271474 0)
(-0.0130106 -0.00031512 0)
(-0.012743 -0.000357915 0)
(-0.0124422 -0.000399532 0)
(-0.0121094 -0.000439635 0)
(-0.0117459 -0.000477887 0)
(-0.0113532 -0.000513952 0)
(-0.0109332 -0.000547499 0)
(-0.010488 -0.00057821 0)
(-0.01002 -0.00060578 0)
(-0.00953161 -0.000629923 0)
(-0.0090257 -0.00065038 0)
(-0.00850519 -0.000666918 0)
(-0.00797319 -0.000679337 0)
(-0.00743296 -0.000687473 0)
(-0.00688784 -0.000691201 0)
(-0.00634128 -0.000690438 0)
(-0.00579676 -0.000685147 0)
(-0.00525778 -0.000675333 0)
(-0.00472781 -0.00066105 0)
(-0.00421027 -0.000642397 0)
(-0.00370849 -0.00061952 0)
(-0.00322564 -0.00059261 0)
(-0.00276476 -0.000561904 0)
(-0.00232869 -0.000527679 0)
(-0.00192003 -0.000490256 0)
(-0.0015411 -0.00044999 0)
(-0.00119398 -0.000407277 0)
(-0.00088037 -0.000362547 0)
(-0.000601659 -0.000316267 0)
(-0.000358843 -0.000268942 0)
(-0.000152505 -0.000221115 0)
(1.7214e-05 -0.00017338 0)
(0.000150659 -0.000126385 0)
(0.000248705 -8.08486e-05 0)
(0.000312811 -3.75859e-05 0)
(0.000345091 2.46509e-06 0)
(0.000348397 3.81993e-05 0)
(0.00032642 6.82907e-05 0)
(0.000283813 9.1127e-05 0)
(0.000226318 0.000104758 0)
(0.00016076 0.0001069 0)
(9.49914e-05 9.5076e-05 0)
(3.93534e-05 6.72303e-05 0)
(7.80453e-06 2.43908e-05 0)
(3.15077e-06 -3.32751e-05 0)
(-1.26456e-06 -2.60849e-05 0)
(-3.27315e-05 2.50711e-05 0)
(-0.000101542 0.000101465 0)
(-0.00021414 0.00019134 0)
(-0.000373878 0.00028659 0)
(-0.000581701 0.000381748 0)
(-0.0008368 0.000473343 0)
(-0.00113714 0.000559251 0)
(-0.00147989 0.000638264 0)
(-0.00186173 0.000709794 0)
(-0.00227906 0.000773686 0)
(-0.00272819 0.00083006 0)
(-0.00320545 0.000879202 0)
(-0.00370732 0.000921505 0)
(-0.00423039 0.000957416 0)
(-0.00477146 0.000987408 0)
(-0.00532753 0.00101196 0)
(-0.0058958 0.00103151 0)
(-0.00647368 0.00104647 0)
(-0.00705877 0.00105723 0)
(-0.00764883 0.0010641 0)
(-0.00824177 0.00106737 0)
(-0.00883562 0.00106729 0)
(-0.00942854 0.00106403 0)
(-0.0100187 0.00105774 0)
(-0.0106045 0.00104852 0)
(-0.0111842 0.00103644 0)
(-0.0117562 0.00102153 0)
(-0.0123188 0.00100378 0)
(-0.0128705 0.00098316 0)
(-0.0134096 0.000959635 0)
(-0.0139344 0.000933133 0)
(-0.0144432 0.000903577 0)
(-0.0149343 0.000870884 0)
(-0.0154059 0.000834968 0)
(-0.0158562 0.000795747 0)
(-0.0162835 0.000753147 0)
(-0.0166857 0.000707106 0)
(-0.017061 0.000657578 0)
(-0.0174076 0.000604537 0)
(-0.0177235 0.000547983 0)
(-0.0180069 0.000487945 0)
(-0.0182559 0.000424484 0)
(-0.0184687 0.000357697 0)
(-0.0186436 0.000287718 0)
(-0.018779 0.000214724 0)
(-0.0188734 0.000138933 0)
(-0.0189253 6.06079e-05 0)
(-0.0189337 -1.99444e-05 0)
(-0.0188973 -0.000102372 0)
(-0.0188154 -0.00018628 0)
(-0.0186874 -0.000271228 0)
(-0.0185129 -0.000356738 0)
(-0.0182918 -0.000442294 0)
(-0.0180243 -0.000527344 0)
(-0.0177108 -0.00061131 0)
(-0.0173523 -0.000693587 0)
(-0.0169498 -0.000773555 0)
(-0.0165048 -0.00085058 0)
(-0.016019 -0.000924027 0)
(-0.0154946 -0.000993262 0)
(-0.014934 -0.00105766 0)
(-0.0143399 -0.00111663 0)
(-0.0137156 -0.00116959 0)
(-0.0130642 -0.00121602 0)
(-0.0123895 -0.00125541 0)
(-0.0116953 -0.00128734 0)
(-0.0109857 -0.00131143 0)
(-0.010265 -0.00132737 0)
(-0.00953741 -0.00133493 0)
(-0.0088076 -0.00133395 0)
(-0.00808007 -0.00132437 0)
(-0.0073594 -0.00130619 0)
(-0.00665014 -0.00127952 0)
(-0.00595674 -0.00124453 0)
(-0.00528355 -0.00120152 0)
(-0.00463477 -0.00115083 0)
(-0.00401434 -0.00109293 0)
(-0.00342599 -0.00102832 0)
(-0.00287312 -0.000957628 0)
(-0.0023588 -0.000881525 0)
(-0.00188572 -0.000800766 0)
(-0.00145614 -0.000716177 0)
(-0.00107187 -0.000628652 0)
(-0.000734201 -0.000539162 0)
(-0.000443902 -0.000448754 0)
(-0.000201146 -0.000358564 0)
(-5.47674e-06 -0.000269832 0)
(0.000144249 -0.000183928 0)
(0.000249921 -0.000102381 0)
(0.000314247 -2.69231e-05 0)
(0.000340834 4.04527e-05 0)
(0.00033428 9.74286e-05 0)
(0.000300269 0.000141294 0)
(0.000245676 0.000168905 0)
(0.000178505 0.000176721 0)
(0.000107832 0.000161007 0)
(4.57654e-05 0.000118429 0)
(9.35587e-06 4.77687e-05 0)
(-4.60799e-07 -2.94577e-05 0)
(-2.08479e-05 3.37551e-06 0)
(-8.34451e-05 9.23592e-05 0)
(-0.000194624 0.000214477 0)
(-0.000359166 0.000354657 0)
(-0.000579896 0.00050217 0)
(-0.000857375 0.000649548 0)
(-0.00119045 0.000791829 0)
(-0.00157676 0.000925828 0)
(-0.00201314 0.00104964 0)
(-0.00249581 0.00116226 0)
(-0.00302072 0.00126334 0)
(-0.00358364 0.00135291 0)
(-0.00418038 0.00143134 0)
(-0.00480679 0.00149912 0)
(-0.00545891 0.00155689 0)
(-0.00613294 0.00160533 0)
(-0.0068253 0.00164512 0)
(-0.00753262 0.00167691 0)
(-0.00825177 0.00170132 0)
(-0.0089798 0.00171892 0)
(-0.00971396 0.00173021 0)
(-0.0104517 0.00173562 0)
(-0.0111904 0.0017355 0)
(-0.011928 0.00173017 0)
(-0.0126621 0.00171983 0)
(-0.0133906 0.00170466 0)
(-0.0141114 0.00168474 0)
(-0.0148224 0.00166014 0)
(-0.0155215 0.00163086 0)
(-0.0162068 0.00159686 0)
(-0.0168762 0.00155808 0)
(-0.0175275 0.00151442 0)
(-0.0181587 0.00146577 0)
(-0.0187675 0.00141201 0)
(-0.0193518 0.00135301 0)
(-0.0199094 0.00128866 0)
(-0.020438 0.00121886 0)
(-0.0209352 0.00114352 0)
(-0.0213988 0.00106257 0)
(-0.0218264 0.000976002 0)
(-0.0222158 0.00088382 0)
(-0.0225647 0.000786085 0)
(-0.0228708 0.000682911 0)
(-0.023132 0.000574464 0)
(-0.0233462 0.000460973 0)
(-0.0235115 0.000342729 0)
(-0.0236261 0.000220094 0)
(-0.0236883 9.3494e-05 0)
(-0.0236967 -3.65725e-05 0)
(-0.0236501 -0.000169538 0)
(-0.0235474 -0.000304766 0)
(-0.0233881 -0.000441556 0)
(-0.0231717 -0.00057914 0)
(-0.0228982 -0.000716697 0)
(-0.0225678 -0.000853352 0)
(-0.0221811 -0.000988186 0)
(-0.0217393 -0.00112024 0)
(-0.0212436 -0.00124854 0)
(-0.0206959 -0.00137207 0)
(-0.0200983 -0.00148985 0)
(-0.0194535 -0.00160086 0)
(-0.0187645 -0.00170413 0)
(-0.0180345 -0.00179872 0)
(-0.0172674 -0.00188373 0)
(-0.0164671 -0.00195831 0)
(-0.0156382 -0.0020217 0)
(-0.0147852 -0.00207321 0)
(-0.013913 -0.00211225 0)
(-0.0130269 -0.00213835 0)
(-0.0121321 -0.00215113 0)
(-0.011234 -0.00215035 0)
(-0.0103382 -0.00213589 0)
(-0.00945013 -0.00210778 0)
(-0.00857529 -0.00206617 0)
(-0.00771909 -0.00201136 0)
(-0.00688677 -0.00194379 0)
(-0.00608339 -0.00186401 0)
(-0.00531374 -0.00177275 0)
(-0.00458231 -0.00167084 0)
(-0.00389323 -0.00155924 0)
(-0.00325022 -0.00143903 0)
(-0.00265654 -0.00131141 0)
(-0.00211492 -0.0011777 0)
(-0.00162757 -0.00103932 0)
(-0.00119605 -0.000897841 0)
(-0.000821311 -0.000754918 0)
(-0.00050357 -0.000612366 0)
(-0.000242302 -0.000472154 0)
(-3.61665e-05 -0.000336438 0)
(0.000117048 -0.0002076 0)
(0.000220494 -8.82996e-05 0)
(0.000278333 1.84641e-05 0)
(0.000295812 0.000109283 0)
(0.000279339 0.000180276 0)
(0.000236569 0.000227058 0)
(0.00017633 0.000244767 0)
(0.000108611 0.000228238 0)
(4.67676e-05 0.000172405 0)
(9.66621e-06 7.29902e-05 0)
(-4.226e-06 -1.47212e-05 0)
(-4.19933e-05 5.94628e-05 0)
(-0.000138767 0.000198681 0)
(-0.000296068 0.000376941 0)
(-0.00051637 0.000576629 0)
(-0.000801477 0.00078484 0)
(-0.00115121 0.000992351 0)
(-0.00156386 0.00119281 0)
(-0.00203664 0.00138202 0)
(-0.00256594 0.00155738 0)
(-0.00314762 0.00171744 0)
(-0.00377719 0.00186159 0)
(-0.00445002 0.00198979 0)
(-0.00516144 0.00210242 0)
(-0.00590686 0.00220009 0)
(-0.00668181 0.0022836 0)
(-0.00748202 0.00235384 0)
(-0.00830341 0.00241168 0)
(-0.00914215 0.00245802 0)
(-0.00999462 0.00249369 0)
(-0.0108574 0.00251945 0)
(-0.0117273 0.00253598 0)
(-0.0126012 0.00254388 0)
(-0.0134763 0.00254365 0)
(-0.0143498 0.00253571 0)
(-0.0152192 0.00252035 0)
(-0.0160817 0.00249782 0)
(-0.0169349 0.00246826 0)
(-0.0177764 0.00243174 0)
(-0.0186036 0.00238829 0)
(-0.0194141 0.00233785 0)
(-0.0202056 0.00228034 0)
(-0.0209753 0.00221565 0)
(-0.021721 0.00214361 0)
(-0.0224399 0.00206408 0)
(-0.0231295 0.00197689 0)
(-0.0237872 0.00188189 0)
(-0.0244103 0.00177895 0)
(-0.0249961 0.00166796 0)
(-0.0255418 0.00154885 0)
(-0.0260449 0.00142162 0)
(-0.0265027 0.00128629 0)
(-0.0269124 0.00114297 0)
(-0.0272716 0.000991846 0)
(-0.0275777 0.000833168 0)
(-0.0278284 0.000667284 0)
(-0.0280215 0.00049463 0)
(-0.0281549 0.000315736 0)
(-0.0282267 0.000131231 0)
(-0.0282352 -5.81595e-05 0)
(-0.0281793 -0.00025161 0)
(-0.0280577 -0.000448199 0)
(-0.0278697 -0.000646912 0)
(-0.0276149 -0.000846648 0)
(-0.0272933 -0.00104622 0)
(-0.0269052 -0.00124438 0)
(-0.0264515 -0.00143981 0)
(-0.0259332 -0.00163114 0)
(-0.0253521 -0.00181696 0)
(-0.0247102 -0.00199585 0)
(-0.0240102 -0.00216638 0)
(-0.023255 -0.00232713 0)
(-0.0224481 -0.0024767 0)
(-0.0215933 -0.00261375 0)
(-0.0206951 -0.002737 0)
(-0.019758 -0.00284526 0)
(-0.0187871 -0.00293742 0)
(-0.0177879 -0.00301253 0)
(-0.016766 -0.00306973 0)
(-0.0157272 -0.00310835 0)
(-0.0146778 -0.00312785 0)
(-0.013624 -0.0031279 0)
(-0.0125721 -0.00310832 0)
(-0.0115284 -0.00306915 0)
(-0.0104993 -0.0030106 0)
(-0.00949102 -0.0029331 0)
(-0.00850961 -0.00283726 0)
(-0.00756089 -0.00272391 0)
(-0.00665041 -0.00259404 0)
(-0.00578337 -0.00244886 0)
(-0.00496453 -0.00228974 0)
(-0.00419822 -0.00211824 0)
(-0.0034882 -0.00193608 0)
(-0.00283767 -0.00174516 0)
(-0.00224917 -0.00154753 0)
(-0.00172456 -0.00134542 0)
(-0.00126496 -0.00114123 0)
(-0.000870648 -0.000937561 0)
(-0.000541089 -0.000737217 0)
(-0.000274813 -0.000543251 0)
(-6.93837e-05 -0.000359006 0)
(7.86651e-05 -0.000188164 0)
(0.000173888 -3.48136e-05 0)
(0.000221988 9.64821e-05 0)
(0.000229884 0.000200626 0)
(0.000205773 0.000271942 0)
(0.000159072 0.000304181 0)
(0.000100449 0.000290616 0)
(4.39889e-05 0.000224221 0)
(9.20547e-06 9.75851e-05 0)
(-7.90354e-06 1.11893e-05 0)
(-6.34662e-05 0.000143611 0)
(-0.000195754 0.000346349 0)
(-0.000401112 0.000591615 0)
(-0.000679274 0.000860027 0)
(-0.00103073 0.00113702 0)
(-0.00145429 0.00141194 0)
(-0.00194747 0.00167725 0)
(-0.00250688 0.00192788 0)
(-0.00312844 0.00216058 0)
(-0.00380758 0.00237347 0)
(-0.00453942 0.00256569 0)
(-0.00531894 0.00273711 0)
(-0.00614108 0.0028881 0)
(-0.00700085 0.0030194 0)
(-0.00789339 0.00313195 0)
(-0.00881401 0.00322684 0)
(-0.00975822 0.00330515 0)
(-0.0107218 0.00336801 0)
(-0.0117007 0.00341645 0)
(-0.012691 0.00345145 0)
(-0.0136893 0.00347389 0)
(-0.014692 0.00348453 0)
(-0.0156958 0.00348402 0)
(-0.0166977 0.00347289 0)
(-0.0176945 0.00345154 0)
(-0.0186834 0.00342027 0)
(-0.0196614 0.00337929 0)
(-0.0206258 0.00332871 0)
(-0.0215736 0.00326853 0)
(-0.0225021 0.00319872 0)
(-0.0234083 0.00311918 0)
(-0.0242896 0.00302974 0)
(-0.0251429 0.00293023 0)
(-0.0259653 0.00282045 0)
(-0.0267539 0.00270021 0)
(-0.0275057 0.00256933 0)
(-0.0282176 0.00242763 0)
(-0.0288866 0.00227501 0)
(-0.0295096 0.0021114 0)
(-0.0300837 0.00193679 0)
(-0.0306057 0.00175126 0)
(-0.0310727 0.00155497 0)
(-0.0314819 0.00134819 0)
(-0.0318305 0.00113128 0)
(-0.0321158 0.000904733 0)
(-0.0323353 0.000669142 0)
(-0.0324868 0.000425243 0)
(-0.0325682 0.000173895 0)
(-0.0325777 -8.3912e-05 0)
(-0.0325139 -0.000347058 0)
(-0.0323755 -0.000614297 0)
(-0.0321617 -0.00088426 0)
(-0.0318721 -0.00115546 0)
(-0.0315068 -0.00142631 0)
(-0.0310661 -0.00169513 0)
(-0.0305509 -0.00196014 0)
(-0.0299627 -0.00221952 0)
(-0.0293032 -0.00247139 0)
(-0.0285749 -0.00271384 0)
(-0.0277807 -0.00294496 0)
(-0.0269238 -0.00316285 0)
(-0.0260083 -0.00336566 0)
(-0.0250384 -0.00355159 0)
(-0.024019 -0.00371894 0)
(-0.0229554 -0.00386611 0)
(-0.0218531 -0.00399164 0)
(-0.0207182 -0.00409423 0)
(-0.0195571 -0.00417277 0)
(-0.0183763 -0.00422633 0)
(-0.0171828 -0.00425422 0)
(-0.0159834 -0.00425597 0)
(-0.0147853 -0.00423135 0)
(-0.0135956 -0.00418039 0)
(-0.0124214 -0.0041034 0)
(-0.0112696 -0.00400092 0)
(-0.0101471 -0.00387379 0)
(-0.00906038 -0.00372308 0)
(-0.00801568 -0.00355015 0)
(-0.00701884 -0.0033566 0)
(-0.00607525 -0.00314428 0)
(-0.00518976 -0.00291526 0)
(-0.00436663 -0.00267186 0)
(-0.00360948 -0.00241664 0)
(-0.00292121 -0.00215235 0)
(-0.00230395 -0.00188199 0)
(-0.00175899 -0.00160877 0)
(-0.00128675 -0.00133618 0)
(-0.000886687 -0.00106794 0)
(-0.000557286 -0.000808106 0)
(-0.000295969 -0.000561046 0)
(-9.90636e-05 -0.000331546 0)
(3.82539e-05 -0.000124843 0)
(0.000122002 5.32985e-05 0)
(0.000159449 0.000196527 0)
(0.000159169 0.000297842 0)
(0.000130994 0.000349568 0)
(8.60537e-05 0.000343365 0)
(3.87252e-05 0.000270233 0)
(8.29424e-06 0.00011994 0)
(-1.14217e-05 4.81461e-05 0)
(-8.46452e-05 0.000256188 0)
(-0.000252695 0.000536253 0)
(-0.000506737 0.000859767 0)
(-0.000843604 0.00120622 0)
(-0.00126227 0.00155992 0)
(-0.00176033 0.00190912 0)
(-0.00233433 0.00224542 0)
(-0.00298017 0.00256301 0)
(-0.00369317 0.00285811 0)
(-0.00446831 0.00312846 0)
(-0.00530031 0.003373 0)
(-0.00618376 0.0035915 0)
(-0.00711323 0.00378436 0)
(-0.00808339 0.00395242 0)
(-0.00908902 0.00409678 0)
(-0.0101251 0.0042187 0)
(-0.0111868 0.00431949 0)
(-0.0122694 0.00440049 0)
(-0.0133687 0.00446295 0)
(-0.0144804 0.00450807 0)
(-0.0156006 0.00453692 0)
(-0.0167255 0.00455042 0)
(-0.0178514 0.00454937 0)
(-0.0189748 0.00453442 0)
(-0.0200925 0.00450609 0)
(-0.021201 0.00446475 0)
(-0.0222972 0.00441065 0)
(-0.0233778 0.00434392 0)
(-0.0244397 0.0042646 0)
(-0.0254797 0.00417263 0)
(-0.0264947 0.00406789 0)
(-0.0274814 0.00395021 0)
(-0.0284366 0.00381937 0)
(-0.029357 0.00367513 0)
(-0.0302393 0.00351728 0)
(-0.0310802 0.00334558 0)
(-0.0318763 0.00315987 0)
(-0.0326242 0.00296001 0)
(-0.0333206 0.00274594 0)
(-0.0339621 0.00251769 0)
(-0.0345453 0.00227538 0)
(-0.0350671 0.00201924 0)
(-0.0355242 0.00174963 0)
(-0.0359137 0.00146704 0)
(-0.0362325 0.00117213 0)
(-0.0364781 0.000865688 0)
(-0.0366479 0.000548665 0)
(-0.0367396 0.000222182 0)
(-0.0367514 -0.000112475 0)
(-0.0366816 -0.000453859 0)
(-0.0365289 -0.000800363 0)
(-0.0362925 -0.00115023 0)
(-0.035972 -0.00150154 0)
(-0.0355673 -0.00185226 0)
(-0.0350789 -0.00220024 0)
(-0.0345079 -0.00254321 0)
(-0.0338557 -0.00287883 0)
(-0.0331244 -0.0032047 0)
(-0.0323167 -0.0035184 0)
(-0.0314356 -0.00381747 0)
(-0.030485 -0.0040995 0)
(-0.0294689 -0.00436212 0)
(-0.0283923 -0.00460305 0)
(-0.0272603 -0.0048201 0)
(-0.0260787 -0.00501124 0)
(-0.0248538 -0.00517461 0)
(-0.0235921 -0.00530856 0)
(-0.0223005 -0.00541164 0)
(-0.0209864 -0.00548269 0)
(-0.0196571 -0.00552081 0)
(-0.0183205 -0.00552539 0)
(-0.0169841 -0.00549614 0)
(-0.015656 -0.00543309 0)
(-0.0143437 -0.00533661 0)
(-0.0130551 -0.00520741 0)
(-0.0117976 -0.00504653 0)
(-0.0105785 -0.00485535 0)
(-0.00940448 -0.0046356 0)
(-0.00828214 -0.00438931 0)
(-0.0072174 -0.00411884 0)
(-0.00621564 -0.00382688 0)
(-0.00528159 -0.00351637 0)
(-0.0044193 -0.00319058 0)
(-0.00363201 -0.00285306 0)
(-0.00292212 -0.00250764 0)
(-0.00229116 -0.00215843 0)
(-0.00173967 -0.00180985 0)
(-0.00126719 -0.00146666 0)
(-0.000872196 -0.00113395 0)
(-0.000552046 -0.000817202 0)
(-0.000302946 -0.000522359 0)
(-0.000119902 -0.000255852 0)
(3.31367e-06 -2.46828e-05 0)
(7.42041e-05 0.000163514 0)
(0.000101594 0.0003004 0)
(9.5586e-05 0.000376867 0)
(6.75926e-05 0.000382988 0)
(3.19485e-05 0.000307918 0)
(7.14734e-06 0.000139055 0)
(-1.47539e-05 9.5834e-05 0)
(-0.000105202 0.000396902 0)
(-0.000308599 0.000768382 0)
(-0.000611088 0.00118162 0)
(-0.00100661 0.00161555 0)
(-0.00149248 0.00205381 0)
(-0.00206496 0.00248401 0)
(-0.0027195 0.0028971 0)
(-0.00345115 0.00328675 0)
(-0.00425459 0.00364877 0)
(-0.00512427 0.00398066 0)
(-0.00605444 0.00428117 0)
(-0.00703932 0.00455006 0)
(-0.00807314 0.00478777 0)
(-0.00915023 0.00499522 0)
(-0.010265 0.00517369 0)
(-0.0114122 0.00532461 0)
(-0.0125867 0.00544953 0)
(-0.0137835 0.00554999 0)
(-0.014998 0.00562747 0)
(-0.0162256 0.00568338 0)
(-0.0174621 0.00571896 0)
(-0.0187034 0.00573532 0)
(-0.0199455 0.00573342 0)
(-0.0211847 0.00571401 0)
(-0.0224173 0.00567771 0)
(-0.0236396 0.00562498 0)
(-0.0248481 0.00555611 0)
(-0.0260393 0.00547126 0)
(-0.0272097 0.00537049 0)
(-0.0283558 0.00525374 0)
(-0.0294742 0.00512085 0)
(-0.0305613 0.00497163 0)
(-0.0316135 0.00480584 0)
(-0.0326273 0.00462319 0)
(-0.033599 0.00442344 0)
(-0.0345251 0.00420634 0)
(-0.0354017 0.00397169 0)
(-0.0362253 0.00371936 0)
(-0.0369921 0.00344929 0)
(-0.0376986 0.00316156 0)
(-0.038341 0.00285632 0)
(-0.0389159 0.00253391 0)
(-0.0394199 0.00219479 0)
(-0.0398496 0.00183961 0)
(-0.0402019 0.00146918 0)
(-0.0404738 0.00108451 0)
(-0.0406628 0.000686798 0)
(-0.0407663 0.000277456 0)
(-0.0407823 -0.000141915 0)
(-0.0407091 -0.00056951 0)
(-0.0405452 -0.00100333 0)
(-0.0402897 -0.00144118 0)
(-0.0399422 -0.00188071 0)
(-0.0395027 -0.00231938 0)
(-0.0389716 -0.00275452 0)
(-0.0383501 -0.00318334 0)
(-0.0376398 -0.00360295 0)
(-0.0368428 -0.00401039 0)
(-0.0359621 -0.00440264 0)
(-0.035001 -0.00477671 0)
(-0.0339634 -0.0051296 0)
(-0.032854 -0.00545838 0)
(-0.0316778 -0.00576025 0)
(-0.0304406 -0.0060325 0)
(-0.0291486 -0.00627262 0)
(-0.0278083 -0.00647832 0)
(-0.026427 -0.00664754 0)
(-0.0250121 -0.00677851 0)
(-0.0235715 -0.00686977 0)
(-0.0221133 -0.00692019 0)
(-0.0206457 -0.00692902 0)
(-0.0191772 -0.00689589 0)
(-0.0177163 -0.00682083 0)
(-0.0162713 -0.00670426 0)
(-0.0148508 -0.00654706 0)
(-0.0134627 -0.0063505 0)
(-0.0121149 -0.00611628 0)
(-0.010815 -0.00584651 0)
(-0.00957002 -0.00554371 0)
(-0.00838641 -0.0052108 0)
(-0.0072701 -0.00485108 0)
(-0.00622631 -0.00446821 0)
(-0.00525949 -0.00406624 0)
(-0.00437325 -0.00364953 0)
(-0.0035703 -0.00322283 0)
(-0.0028524 -0.00279122 0)
(-0.00222027 -0.00236014 0)
(-0.00167357 -0.0019354 0)
(-0.00121082 -0.00152323 0)
(-0.000829384 -0.00113027 0)
(-0.000525406 -0.000763662 0)
(-0.000293799 -0.000431075 0)
(-0.00012821 -0.000140777 0)
(-2.09863e-05 9.82984e-05 0)
(3.68492e-05 0.000276472 0)
(5.55598e-05 0.000383227 0)
(4.67014e-05 0.000407133 0)
(2.43516e-05 0.000335689 0)
(5.90293e-06 0.00015438 0)
(-1.79005e-05 0.00015386 0)
(-0.000124995 0.000565109 0)
(-0.000362931 0.00104213 0)
(-0.000713084 0.00155666 0)
(-0.00116656 0.0020876 0)
(-0.00171901 0.00261833 0)
(-0.00236524 0.00313613 0)
(-0.00309954 0.00363161 0)
(-0.00391603 0.00409813 0)
(-0.00480867 0.00453126 0)
(-0.00577131 0.00492834 0)
(-0.00679773 0.00528807 0)
(-0.00788173 0.00561021 0)
(-0.00901718 0.00589528 0)
(-0.0101981 0.00614435 0)
(-0.0114186 0.00635883 0)
(-0.0126732 0.0065404 0)
(-0.0139564 0.00669078 0)
(-0.015263 0.00681176 0)
(-0.016588 0.00690504 0)
(-0.0179268 0.00697221 0)
(-0.0192747 0.00701473 0)
(-0.0206274 0.00703387 0)
(-0.0219807 0.00703072 0)
(-0.0233306 0.00700617 0)
(-0.0246729 0.00696095 0)
(-0.0260039 0.00689556 0)
(-0.0273198 0.00681036 0)
(-0.0286167 0.00670554 0)
(-0.0298909 0.00658116 0)
(-0.0311385 0.00643715 0)
(-0.0323559 0.00627335 0)
(-0.0335392 0.00608953 0)
(-0.0346846 0.00588541 0)
(-0.0357881 0.00566069 0)
(-0.036846 0.00541507 0)
(-0.0378541 0.00514829 0)
(-0.0388086 0.00486013 0)
(-0.0397056 0.00455046 0)
(-0.040541 0.00421925 0)
(-0.0413109 0.00386661 0)
(-0.0420114 0.00349275 0)
(-0.0426388 0.00309811 0)
(-0.0431893 0.00268328 0)
(-0.0436595 0.00224904 0)
(-0.044046 0.00179642 0)
(-0.0443456 0.00132665 0)
(-0.0445554 0.000841189 0)
(-0.0446729 0.000341759 0)
(-0.0446958 -0.000169696 0)
(-0.0446221 -0.000690988 0)
(-0.0444505 -0.0012197 0)
(-0.0441799 -0.00175318 0)
(-0.0438098 -0.00228859 0)
(-0.0433401 -0.00282286 0)
(-0.0427714 -0.0033528 0)
(-0.0421048 -0.00387502 0)
(-0.041342 -0.00438606 0)
(-0.0404853 -0.00488234 0)
(-0.0395376 -0.00536025 0)
(-0.0385026 -0.00581617 0)
(-0.0373845 -0.0062465 0)
(-0.036188 -0.00664772 0)
(-0.0349187 -0.00701642 0)
(-0.0335826 -0.00734938 0)
(-0.0321862 -0.00764356 0)
(-0.0307368 -0.00789618 0)
(-0.0292418 -0.00810476 0)
(-0.0277092 -0.00826715 0)
(-0.0261476 -0.00838158 0)
(-0.0245654 -0.00844667 0)
(-0.0229717 -0.0084615 0)
(-0.0213755 -0.0084256 0)
(-0.0197858 -0.00833898 0)
(-0.0182118 -0.00820215 0)
(-0.0166625 -0.00801611 0)
(-0.0151465 -0.00778239 0)
(-0.0136726 -0.00750302 0)
(-0.0122486 -0.00718053 0)
(-0.0108824 -0.00681795 0)
(-0.00958087 -0.00641878 0)
(-0.00835057 -0.00598698 0)
(-0.00719717 -0.00552699 0)
(-0.00612554 -0.00504365 0)
(-0.00513969 -0.00454225 0)
(-0.00424267 -0.00402848 0)
(-0.0034365 -0.00350844 0)
(-0.00272213 -0.00298867 0)
(-0.00209936 -0.00247609 0)
(-0.00156681 -0.00197811 0)
(-0.00112191 -0.00150259 0)
(-0.000760791 -0.00105792 0)
(-0.000478343 -0.00065302 0)
(-0.00026814 -0.000297466 0)
(-0.000122449 -1.4987e-06 0)
(-3.22082e-05 0.000223871 0)
(1.29238e-05 0.000366762 0)
(2.45601e-05 0.00041434 0)
(1.64093e-05 0.000352651 0)
(4.64681e-06 0.000165662 0)
(-2.08737e-05 0.000221781 0)
(-0.000143987 0.000759968 0)
(-0.000415437 0.00135651 0)
(-0.000812126 0.00198391 0)
(-0.00132244 0.00262143 0)
(-0.00194035 0.00325256 0)
(-0.00265922 0.00386453 0)
(-0.00347211 0.00444789 0)
(-0.00437217 0.0049959 0)
(-0.00535256 0.00550407 0)
(-0.00640648 0.00596973 0)
(-0.00752721 0.0063916 0)
(-0.00870809 0.00676952 0)
(-0.00994265 0.00710415 0)
(-0.0112246 0.0073967 0)
(-0.0125478 0.00764882 0)
(-0.0139063 0.00786236 0)
(-0.0152946 0.0080393 0)
(-0.0167071 0.00818164 0)
(-0.0181387 0.0082913 0)
(-0.0195845 0.00837008 0)
(-0.0210396 0.00841962 0)
(-0.0224994 0.00844137 0)
(-0.0239595 0.00843656 0)
(-0.0254155 0.0084062 0)
(-0.0268633 0.00835111 0)
(-0.0282988 0.00827186 0)
(-0.0297178 0.00816887 0)
(-0.0311163 0.00804235 0)
(-0.0324903 0.00789235 0)
(-0.0338357 0.00771881 0)
(-0.0351486 0.00752155 0)
(-0.0364248 0.0073003 0)
(-0.0376603 0.00705476 0)
(-0.0388508 0.00678458 0)
(-0.0399923 0.00648944 0)
(-0.0410804 0.00616904 0)
(-0.0421111 0.00582317 0)
(-0.04308 0.00545169 0)
(-0.0439829 0.00505459 0)
(-0.0448157 0.00463201 0)
(-0.0455742 0.00418427 0)
(-0.0462543 0.00371188 0)
(-0.0468522 0.00321556 0)
(-0.047364 0.00269628 0)
(-0.0477862 0.00215525 0)
(-0.0481155 0.00159395 0)
(-0.0483487 0.00101414 0)
(-0.048483 0.000417832 0)
(-0.048516 -0.000192647 0)
(-0.0484457 -0.000814712 0)
(-0.0482705 -0.0014455 0)
(-0.0479891 -0.00208188 0)
(-0.0476011 -0.00272049 0)
(-0.0471063 -0.00335774 0)
(-0.0465052 -0.00398982 0)
(-0.045799 -0.00461276 0)
(-0.0449893 -0.00522247 0)
(-0.0440785 -0.00581473 0)
(-0.0430697 -0.00638529 0)
(-0.0419667 -0.00692986 0)
(-0.0407737 -0.0074442 0)
(-0.039496 -0.00792415 0)
(-0.0381391 -0.00836569 0)
(-0.0367095 -0.008765 0)
(-0.0352141 -0.00911847 0)
(-0.0336604 -0.00942282 0)
(-0.0320564 -0.00967509 0)
(-0.0304107 -0.00987272 0)
(-0.028732 -0.0100136 0)