/*--------------------------------*- C++ -*----------------------------------*\
  =========                 |
  \\      /  F ield         | OpenFOAM: The Open Source CFD Toolbox
   \\    /   O peration     | Website:  https://openfoam.org
    \\  /    A nd           | Version:  7
     \\/     M anipulation  |
\*---------------------------------------------------------------------------*/
FoamFile
{
    version     2.0;
    format      ascii;
    class       volScalarField;
    location    "4.9995";
    object      p;
}
// * * * * * * * * * * * * * * * * * * * * * * * * * * * * * * * * * * * * * //

dimensions      [0 2 -2 0 0 0 0];

internalField   nonuniform List<scalar> 
18750
(
-0.105989
-0.12716
-0.165576
-0.220767
-0.289293
-0.368832
-0.456784
-0.551154
-0.649969
-0.750923
-0.850474
-0.943547
-1.024
-1.086
-1.12472
-0.11386
-0.134493
-0.172437
-0.227249
-0.29549
-0.37482
-0.46261
-0.556836
-0.655533
-0.756492
-0.856357
-0.950176
-1.0316
-1.09434
-1.13334
-0.129207
-0.148798
-0.185817
-0.239878
-0.307545
-0.386437
-0.473877
-0.56779
-0.666224
-0.767137
-0.867515
-0.962674
-1.04596
-1.11021
-1.14987
-0.151265
-0.169378
-0.20505
-0.258013
-0.324819
-0.403023
-0.489883
-0.58327
-0.681253
-0.781994
-0.882911
-0.979754
-1.06566
-1.13226
-1.17309
-0.178954
-0.195219
-0.229178
-0.280744
-0.346413
-0.423656
-0.509657
-0.602252
-0.699553
-0.799931
-0.901262
-0.999873
-1.08898
-1.15891
-1.2017
-0.210959
-0.225027
-0.257006
-0.306951
-0.371236
-0.447227
-0.532045
-0.623529
-0.71988
-0.819681
-0.921244
-1.02157
-1.11431
-1.18876
-1.23466
-0.245818
-0.257279
-0.287187
-0.335381
-0.39806
-0.472499
-0.555771
-0.645787
-0.740924
-0.840005
-0.941752
-1.04384
-1.14066
-1.22096
-1.27146
-0.281868
-0.290412
-0.318334
-0.364725
-0.425614
-0.49822
-0.579612
-0.667869
-0.761653
-0.860094
-0.962265
-1.0664
-1.16776
-1.25519
-1.31204
-0.31736
-0.322884
-0.349125
-0.393727
-0.452702
-0.523284
-0.602582
-0.688935
-0.781402
-0.879486
-0.982552
-1.08921
-1.19545
-1.29073
-1.35564
-0.350615
-0.353294
-0.37837
-0.421252
-0.478286
-0.546775
-0.623911
-0.708352
-0.799638
-0.897707
-1.00219
-1.11182
-1.22294
-1.32573
-1.39962
-0.380077
-0.380507
-0.405041
-0.446326
-0.501512
-0.567973
-0.643011
-0.725643
-0.815915
-0.914245
-1.02051
-1.1333
-1.24881
-1.35788
-1.44057
-0.404456
-0.40384
-0.428259
-0.468159
-0.521713
-0.586315
-0.659407
-0.740376
-0.829735
-0.928365
-1.0364
-1.15217
-1.27136
-1.38503
-1.47481
-0.422749
-0.423013
-0.447273
-0.486181
-0.538397
-0.601357
-0.672688
-0.752122
-0.840559
-0.939294
-1.04878
-1.16703
-1.28889
-1.40535
-1.49932
-0.43513
-0.437292
-0.461539
-0.500053
-0.551225
-0.612751
-0.682481
-0.760454
-0.847843
-0.946265
-1.05649
-1.17623
-1.29917
-1.4169
-1.51222
-0.441898
-0.446225
-0.471192
-0.509648
-0.560002
-0.620225
-0.688458
-0.764956
-0.851047
-0.948524
-1.05845
-1.17836
-1.30086
-1.4193
-1.51456
-0.443613
-0.450132
-0.476396
-0.515091
-0.564728
-0.623626
-0.690358
-0.765257
-0.849697
-0.945497
-1.05397
-1.1728
-1.29346
-1.41169
-1.5051
-0.441392
-0.45002
-0.477576
-0.516503
-0.565404
-0.622952
-0.688051
-0.761068
-0.843406
-0.93669
-1.04235
-1.15894
-1.27515
-1.39112
-1.47814
-0.436999
-0.447306
-0.475385
-0.514111
-0.562117
-0.618239
-0.681489
-0.75221
-0.831907
-0.921888
-1.02319
-1.13692
-1.24622
-1.35862
-1.4378
-0.432624
-0.443496
-0.470528
-0.508265
-0.555076
-0.609572
-0.670703
-0.738636
-0.815044
-0.901306
-0.996372
-1.10658
-1.20856
-1.31643
-1.38989
-0.430339
-0.439719
-0.463586
-0.499421
-0.54461
-0.597108
-0.655796
-0.720493
-0.792725
-0.875343
-0.962723
-1.06762
-1.16253
-1.26216
-1.33223
-0.43084
-0.436044
-0.45496
-0.488137
-0.531152
-0.581095
-0.636898
-0.698127
-0.765046
-0.843989
-0.923751
-1.02134
-1.10988
-1.19846
-1.26523
-0.432615
-0.431036
-0.445043
-0.475072
-0.515184
-0.561901
-0.614133
-0.671888
-0.732564
-0.806973
-0.880174
-0.969055
-1.05267
-1.13206
-1.19494
-0.432762
-0.423528
-0.434671
-0.460945
-0.497211
-0.540078
-0.587765
-0.641892
-0.696091
-0.764541
-0.832218
-0.91149
-0.991088
-1.06364
-1.12155
-0.42969
-0.415521
-0.425204
-0.44652
-0.477829
-0.516381
-0.558332
-0.608078
-0.656126
-0.717507
-0.780313
-0.850774
-0.925664
-0.993144
-1.04706
-0.424032
-0.410978
-0.417273
-0.432727
-0.457926
-0.491705
-0.526789
-0.570647
-0.612627
-0.666695
-0.724504
-0.788356
-0.858128
-0.922199
-0.97296
-0.417876
-0.410084
-0.410444
-0.420779
-0.438825
-0.467005
-0.494197
-0.530692
-0.565547
-0.612895
-0.664815
-0.72418
-0.788693
-0.85076
-0.899811
-0.413525
-0.409878
-0.405422
-0.412134
-0.422117
-0.443688
-0.461506
-0.489433
-0.516294
-0.556469
-0.602867
-0.658202
-0.718314
-0.780071
-0.829987
-0.411384
-0.408997
-0.404111
-0.407029
-0.409466
-0.423433
-0.430718
-0.447309
-0.466922
-0.497251
-0.540475
-0.590653
-0.649909
-0.711798
-0.765888
-0.410682
-0.40855
-0.405684
-0.404419
-0.402429
-0.407352
-0.404513
-0.405961
-0.418682
-0.437225
-0.478658
-0.523069
-0.585698
-0.646702
-0.70898
-0.410699
-0.408788
-0.40735
-0.403865
-0.401377
-0.396355
-0.384228
-0.370209
-0.372571
-0.383169
-0.418564
-0.462661
-0.52728
-0.586694
-0.658434
-0.41096
-0.409525
-0.40928
-0.40527
-0.404727
-0.390538
-0.369988
-0.343605
-0.332333
-0.338865
-0.36575
-0.413714
-0.477017
-0.539572
-0.608623
-0.411238
-0.410499
-0.411585
-0.408168
-0.409519
-0.388507
-0.362078
-0.325958
-0.303141
-0.304679
-0.326974
-0.376438
-0.437861
-0.503539
-0.56006
-0.411327
-0.411431
-0.413846
-0.411391
-0.413586
-0.389566
-0.359969
-0.31653
-0.28609
-0.282663
-0.303268
-0.349331
-0.409656
-0.469694
-0.519484
-0.411095
-0.412131
-0.415416
-0.414814
-0.41637
-0.393573
-0.362007
-0.315766
-0.279471
-0.272643
-0.291839
-0.33291
-0.387897
-0.441696
-0.486403
-0.410517
-0.412435
-0.416254
-0.417768
-0.418976
-0.400174
-0.368768
-0.322758
-0.284368
-0.272574
-0.289828
-0.325421
-0.373407
-0.42
-0.458996
-0.409767
-0.412338
-0.416572
-0.42008
-0.422583
-0.409945
-0.382564
-0.337569
-0.298354
-0.281748
-0.294696
-0.324958
-0.36466
-0.403132
-0.437062
-0.409185
-0.412157
-0.416756
-0.422356
-0.428315
-0.424724
-0.403942
-0.35894
-0.318514
-0.297853
-0.304934
-0.328412
-0.359664
-0.390819
-0.418827
-0.409228
-0.412417
-0.417566
-0.425516
-0.43666
-0.444528
-0.429817
-0.385525
-0.34136
-0.317185
-0.317743
-0.333779
-0.357311
-0.380998
-0.40365
-0.410065
-0.413581
-0.419457
-0.429948
-0.446938
-0.466439
-0.452792
-0.41071
-0.364082
-0.336212
-0.330724
-0.339719
-0.355922
-0.373307
-0.390881
-0.412033
-0.415708
-0.422347
-0.435079
-0.457633
-0.483224
-0.473399
-0.429733
-0.383272
-0.352917
-0.342363
-0.34507
-0.355171
-0.366796
-0.379703
-0.414623
-0.418401
-0.425685
-0.43958
-0.467848
-0.490539
-0.48671
-0.443297
-0.39779
-0.366145
-0.351713
-0.349463
-0.354198
-0.360961
-0.369981
-0.41731
-0.420999
-0.428641
-0.44206
-0.474416
-0.491532
-0.489421
-0.450252
-0.407211
-0.375554
-0.358566
-0.352385
-0.352884
-0.355611
-0.361076
-0.419584
-0.422868
-0.430185
-0.44269
-0.473081
-0.488764
-0.485089
-0.451366
-0.412071
-0.381445
-0.362894
-0.353938
-0.350974
-0.350275
-0.352851
-0.421128
-0.423663
-0.429498
-0.441443
-0.464152
-0.482599
-0.477052
-0.447992
-0.413022
-0.3842
-0.365042
-0.354064
-0.348414
-0.345039
-0.344928
-0.421854
-0.423466
-0.427018
-0.438104
-0.448985
-0.4714
-0.466453
-0.441656
-0.41105
-0.384473
-0.365271
-0.352991
-0.345272
-0.339626
-0.337214
-0.421861
-0.422398
-0.42326
-0.432498
-0.436183
-0.45709
-0.454404
-0.43373
-0.407095
-0.382782
-0.363989
-0.350849
-0.341524
-0.334187
-0.329755
-0.421408
-0.420714
-0.419643
-0.423617
-0.429366
-0.44381
-0.442034
-0.424987
-0.401849
-0.379697
-0.361472
-0.347829
-0.337329
-0.328609
-0.322557
-0.420883
-0.418798
-0.417849
-0.410753
-0.424879
-0.433408
-0.430634
-0.416157
-0.395908
-0.375613
-0.358043
-0.344099
-0.332672
-0.322971
-0.31569
-0.420564
-0.41698
-0.418221
-0.400006
-0.41884
-0.424899
-0.420781
-0.407697
-0.389586
-0.37085
-0.353893
-0.339777
-0.327697
-0.317234
-0.308957
-0.420515
-0.416338
-0.417735
-0.399614
-0.412968
-0.417324
-0.412273
-0.399862
-0.383219
-0.365657
-0.349235
-0.335017
-0.322408
-0.311395
-0.302333
-0.420768
-0.418383
-0.414796
-0.408705
-0.410745
-0.410998
-0.404813
-0.392654
-0.376915
-0.36019
-0.344176
-0.329873
-0.316893
-0.305445
-0.295663
-0.421654
-0.423378
-0.409783
-0.415614
-0.41133
-0.406398
-0.398316
-0.385999
-0.370777
-0.354586
-0.338846
-0.324462
-0.311159
-0.299355
-0.288963
-0.423143
-0.429844
-0.406531
-0.416703
-0.411532
-0.403138
-0.392851
-0.379904
-0.364807
-0.348892
-0.333294
-0.318794
-0.30524
-0.293138
-0.282158
-0.425526
-0.434696
-0.410898
-0.415567
-0.410494
-0.400348
-0.388187
-0.374315
-0.359031
-0.343166
-0.327585
-0.312949
-0.299151
-0.286765
-0.27527
-0.429192
-0.43664
-0.42224
-0.416741
-0.408973
-0.397527
-0.383978
-0.369144
-0.353425
-0.33741
-0.321734
-0.306914
-0.292895
-0.280252
-0.268276
-0.434388
-0.435338
-0.433586
-0.420844
-0.408267
-0.394766
-0.379954
-0.364201
-0.347938
-0.331631
-0.315763
-0.300733
-0.286488
-0.273584
-0.261202
-0.441729
-0.43224
-0.441258
-0.42575
-0.408686
-0.392386
-0.376056
-0.359365
-0.342489
-0.325796
-0.309663
-0.294385
-0.279923
-0.266787
-0.254057
-0.451754
-0.431932
-0.444993
-0.429866
-0.409676
-0.390468
-0.372307
-0.354536
-0.336993
-0.319864
-0.303423
-0.287886
-0.273209
-0.259856
-0.246866
-0.463774
-0.438633
-0.446931
-0.432509
-0.41047
-0.388773
-0.368677
-0.349687
-0.331397
-0.313789
-0.297017
-0.281209
-0.266335
-0.25281
-0.239645
-0.47661
-0.452741
-0.449721
-0.433728
-0.410472
-0.386896
-0.365024
-0.344757
-0.325654
-0.307534
-0.290415
-0.274348
-0.259296
-0.245636
-0.232386
-0.488614
-0.470147
-0.454482
-0.434091
-0.409438
-0.38448
-0.36115
-0.339676
-0.319733
-0.30107
-0.283595
-0.267273
-0.252072
-0.238329
-0.225049
-0.497551
-0.485173
-0.460193
-0.434138
-0.407455
-0.381338
-0.356869
-0.334337
-0.313583
-0.294367
-0.276529
-0.259966
-0.244641
-0.23085
-0.217574
-0.502007
-0.494942
-0.464636
-0.433833
-0.404767
-0.377472
-0.352068
-0.328653
-0.307157
-0.287401
-0.2692
-0.252401
-0.236969
-0.223168
-0.209924
-0.502163
-0.499236
-0.466816
-0.432832
-0.401534
-0.372982
-0.346719
-0.322549
-0.300398
-0.280138
-0.261581
-0.244554
-0.229024
-0.21523
-0.202059
-0.500114
-0.49943
-0.466717
-0.430887
-0.397776
-0.367957
-0.340837
-0.31599
-0.293264
-0.272546
-0.253656
-0.236408
-0.220783
-0.207
-0.193917
-0.497696
-0.49733
-0.464761
-0.427921
-0.393438
-0.362428
-0.334447
-0.308957
-0.285716
-0.26459
-0.245394
-0.227947
-0.212237
-0.198452
-0.185397
-0.49611
-0.49434
-0.461487
-0.423989
-0.38846
-0.356381
-0.327553
-0.30144
-0.277729
-0.256241
-0.236776
-0.21916
-0.203394
-0.189605
-0.176384
-0.495785
-0.491195
-0.457329
-0.419192
-0.382798
-0.349776
-0.320141
-0.293426
-0.269279
-0.247469
-0.227772
-0.21003
-0.194264
-0.18051
-0.166797
-0.49662
-0.488195
-0.452582
-0.413631
-0.376434
-0.342565
-0.312178
-0.284893
-0.260344
-0.238254
-0.218368
-0.200545
-0.184842
-0.171215
-0.156675
-0.498202
-0.485392
-0.447396
-0.407365
-0.369343
-0.334693
-0.303617
-0.275808
-0.250902
-0.22858
-0.208553
-0.190702
-0.175123
-0.161685
-0.146242
-0.499941
-0.4827
-0.44181
-0.400409
-0.361493
-0.326105
-0.29441
-0.26614
-0.240935
-0.21844
-0.198336
-0.180525
-0.165128
-0.151757
-0.13583
-0.501227
-0.479847
-0.435735
-0.392723
-0.352837
-0.316748
-0.284511
-0.25586
-0.23043
-0.20783
-0.187733
-0.170046
-0.154928
-0.14125
-0.125487
-0.501596
-0.476277
-0.42898
-0.384228
-0.343323
-0.306575
-0.273887
-0.244955
-0.219388
-0.196758
-0.176753
-0.15927
-0.144371
-0.130334
-0.115102
-0.500619
-0.471505
-0.421299
-0.374814
-0.332896
-0.295555
-0.262526
-0.233427
-0.207818
-0.185242
-0.165361
-0.148147
-0.133391
-0.11915
-0.104577
-0.497952
-0.465206
-0.412459
-0.364365
-0.321509
-0.283674
-0.250436
-0.221285
-0.19571
-0.173233
-0.153559
-0.136639
-0.121992
-0.107755
-0.0938558
-0.493319
-0.457154
-0.402262
-0.352777
-0.309124
-0.270943
-0.237629
-0.208503
-0.183022
-0.160728
-0.141339
-0.124734
-0.11022
-0.0961434
-0.0829149
-0.486526
-0.447209
-0.390557
-0.339966
-0.295738
-0.25738
-0.224064
-0.19504
-0.169747
-0.147728
-0.128696
-0.112438
-0.0981192
-0.0842915
-0.0717561
-0.477449
-0.435309
-0.377232
-0.32588
-0.281362
-0.242938
-0.209703
-0.180888
-0.155887
-0.134238
-0.11563
-0.0997666
-0.0857142
-0.0721955
-0.0604012
-0.46603
-0.421473
-0.362211
-0.310508
-0.265951
-0.227567
-0.194538
-0.166051
-0.141452
-0.120264
-0.102151
-0.0867374
-0.0730238
-0.0598766
-0.0488741
-0.452258
-0.40578
-0.345473
-0.293835
-0.249414
-0.211258
-0.17858
-0.150542
-0.126454
-0.10582
-0.0882736
-0.0733684
-0.0600648
-0.0473667
-0.0371841
-0.436162
-0.388292
-0.327099
-0.275761
-0.231738
-0.194022
-0.161846
-0.13438
-0.110911
-0.0909255
-0.0740197
-0.0596788
-0.0468503
-0.0346875
-0.0253467
-0.417807
-0.368935
-0.307215
-0.256293
-0.212938
-0.175877
-0.144359
-0.117588
-0.094847
-0.0756063
-0.0594162
-0.0456914
-0.0333898
-0.0218399
-0.0134382
-0.397307
-0.347439
-0.286
-0.235567
-0.193063
-0.15685
-0.126146
-0.100192
-0.0782883
-0.0598887
-0.0444904
-0.0314342
-0.0197073
-0.00883752
-0.00157634
-0.374819
-0.323562
-0.263599
-0.21374
-0.172185
-0.136982
-0.107239
-0.0822253
-0.0612633
-0.0437955
-0.029261
-0.0169337
-0.00585557
0.00424154
0.0102358
-0.350481
-0.29762
-0.239826
-0.19091
-0.150394
-0.116324
-0.0876766
-0.0637218
-0.0438012
-0.0273436
-0.0137312
-0.00220086
0.00809846
0.0172556
0.0221597
-0.324307
-0.270113
-0.214644
-0.167105
-0.12777
-0.0949407
-0.0675077
-0.0447224
-0.025933
-0.0105452
0.00211033
0.0127817
0.0221258
0.0300705
0.0341193
-0.296223
-0.241561
-0.18819
-0.142341
-0.104377
-0.0729
-0.0467879
-0.0252724
-0.0076917
0.00658569
0.0182733
0.0280435
0.0362562
0.0426006
0.0452472
-0.266329
-0.212169
-0.160666
-0.116671
-0.0802741
-0.050271
-0.0255787
-0.0054213
0.0108872
0.0240275
0.0347417
0.0435713
0.0505058
0.0547588
0.0543377
-0.234883
-0.181901
-0.132241
-0.0901972
-0.0555301
-0.0271234
-0.00394432
0.0147793
0.0297659
0.0417457
0.0514548
0.0592494
0.0647407
0.066541
0.0619439
-0.202131
-0.15076
-0.103048
-0.0630395
-0.0302275
-0.00352966
0.0180497
0.0352761
0.0489019
0.0596902
0.0683126
0.074887
0.0786902
0.078239
0.0720443
-0.168292
-0.118817
-0.0732031
-0.0353177
-0.00445938
0.0204333
0.0403368
0.0560135
0.0682444
0.0777936
0.0852062
0.0903422
0.0922694
0.0902029
0.0883491
-0.133564
-0.0861919
-0.0428189
-0.00714679
0.0216756
0.0446842
0.0628479
0.0769314
0.0877312
0.0959749
0.102048
0.105619
0.105849
0.103031
0.104408
-0.0981352
-0.0530252
-0.0120147
0.0213607
0.048077
0.0691384
0.0855113
0.0979641
0.107291
0.114154
0.118793
0.120812
0.11969
0.116751
0.119465
-0.0621843
-0.0194675
0.0190845
0.0500926
0.0746445
0.0937092
0.108252
0.11904
0.126851
0.132267
0.13543
0.135982
0.13375
0.13076
0.133534
-0.0258878
0.0143287
0.0503494
0.0789357
0.101277
0.118308
0.130991
0.140086
0.146341
0.150265
0.151958
0.15116
0.14801
0.144826
0.146853
0.0105819
0.0482129
0.0816497
0.107776
0.127875
0.142847
0.153648
0.161028
0.165696
0.16811
0.168357
0.16628
0.162242
0.158629
0.159718
0.0470554
0.0820365
0.112855
0.1365
0.154336
0.167235
0.176143
0.181791
0.184857
0.185762
0.184604
0.181319
0.176403
0.172149
0.172193
0.0833669
0.115654
0.143837
0.164994
0.180561
0.191383
0.198394
0.202305
0.203766
0.203171
0.200633
0.196156
0.190329
0.185355
0.184368
0.119354
0.148925
0.17447
0.193146
0.206451
0.215203
0.220322
0.222501
0.222366
0.220296
0.216415
0.210775
0.204007
0.198221
0.196203
0.154859
0.181708
0.204629
0.220846
0.231907
0.238606
0.241849
0.242311
0.240597
0.23707
0.231863
0.22507
0.217365
0.210775
0.207713
0.189729
0.213872
0.234195
0.247987
0.256833
0.261506
0.262899
0.261669
0.258403
0.253452
0.246952
0.239022
0.230367
0.222935
0.218848
0.223814
0.245284
0.263052
0.274464
0.281136
0.283821
0.283397
0.280507
0.275718
0.26937
0.261602
0.252567
0.242994
0.234729
0.229595
0.256973
0.27582
0.291086
0.300176
0.304725
0.30547
0.303273
0.298763
0.292493
0.284786
0.275785
0.265665
0.255178
0.246078
0.239917
0.289067
0.305358
0.31819
0.325026
0.327514
0.326374
0.322455
0.316373
0.308662
0.299635
0.289443
0.278286
0.266921
0.256983
0.249789
0.319966
0.333784
0.344259
0.348921
0.349418
0.346458
0.340878
0.333278
0.324178
0.313879
0.302535
0.290372
0.278153
0.267397
0.259185
0.349543
0.360986
0.369195
0.371771
0.370357
0.36565
0.358474
0.349417
0.338983
0.327464
0.315025
0.301908
0.288867
0.277294
0.268081
0.377681
0.386861
0.392905
0.393492
0.390255
0.383883
0.375186
0.364739
0.353032
0.340348
0.326863
0.312839
0.299015
0.286651
0.276455
0.404267
0.41131
0.4153
0.414004
0.409041
0.401091
0.390953
0.379189
0.366276
0.352494
0.338025
0.323146
0.308571
0.295435
0.284287
0.429198
0.434241
0.436296
0.433234
0.426648
0.417216
0.405723
0.392719
0.37867
0.363854
0.348464
0.332789
0.317509
0.303628
0.29156
0.452375
0.455569
0.455819
0.451111
0.443013
0.432199
0.419442
0.405284
0.390179
0.374401
0.358155
0.34174
0.325797
0.311205
0.298259
0.473709
0.475216
0.473797
0.467572
0.45808
0.445989
0.432066
0.416841
0.400759
0.384096
0.367066
0.349973
0.333413
0.318146
0.30437
0.493115
0.493111
0.490167
0.482559
0.471794
0.458539
0.443553
0.427354
0.410381
0.39291
0.375169
0.357459
0.340333
0.324436
0.309882
0.51052
0.509194
0.504873
0.49602
0.484108
0.469806
0.45386
0.436785
0.419011
0.400816
0.382438
0.364178
0.346537
0.330057
0.314787
0.525858
0.523409
0.517864
0.507906
0.494979
0.47975
0.462957
0.445106
0.426623
0.407789
0.388851
0.370106
0.352005
0.334996
0.319077
0.539089
0.535698
0.529092
0.518175
0.504369
0.488337
0.47081
0.452288
0.433192
0.413806
0.394387
0.375225
0.356723
0.339243
0.322748
0.550187
0.546002
0.538512
0.526789
0.512244
0.495537
0.477395
0.458309
0.438697
0.418849
0.399028
0.379518
0.360675
0.342787
0.3258
0.559116
0.554283
0.546088
0.533716
0.518577
0.501328
0.482689
0.463148
0.443122
0.422903
0.40276
0.38297
0.363848
0.345624
0.328232
0.565845
0.560517
0.551792
0.538933
0.523347
0.505688
0.486675
0.466791
0.446453
0.425954
0.405569
0.385569
0.366235
0.347751
0.330051
0.570345
0.564683
0.555605
0.54242
0.526535
0.508602
0.489339
0.469227
0.448679
0.427993
0.407448
0.387307
0.367829
0.349167
0.33126
0.5726
0.566769
0.557514
0.544167
0.528132
0.510062
0.490673
0.470446
0.449794
0.429015
0.408388
0.388177
0.368627
0.349875
0.331863
0.5726
0.566769
0.557514
0.544167
0.528132
0.510062
0.490673
0.470446
0.449794
0.429015
0.408388
0.388177
0.368627
0.349875
0.331863
0.570345
0.564683
0.555605
0.54242
0.526535
0.508602
0.489339
0.469227
0.448679
0.427993
0.407448
0.387307
0.367829
0.349167
0.33126
0.565845
0.560517
0.551792
0.538933
0.523346
0.505687
0.486675
0.466791
0.446453
0.425954
0.405569
0.385569
0.366235
0.347751
0.330051
0.559116
0.554283
0.546087
0.533716
0.518577
0.501328
0.482689
0.463148
0.443122
0.422903
0.40276
0.38297
0.363848
0.345624
0.328232
0.550186
0.546002
0.538512
0.526789
0.512244
0.495537
0.477395
0.458309
0.438697
0.418849
0.399028
0.379518
0.360674
0.342787
0.3258
0.539089
0.535698
0.529092
0.518175
0.504369
0.488336
0.47081
0.452288
0.433192
0.413806
0.394387
0.375225
0.356723
0.339242
0.322748
0.525858
0.523409
0.517864
0.507906
0.494979
0.479749
0.462957
0.445106
0.426623
0.407789
0.388851
0.370106
0.352005
0.334996
0.319077
0.510519
0.509194
0.504873
0.49602
0.484108
0.469806
0.45386
0.436785
0.419011
0.400816
0.382438
0.364178
0.346537
0.330057
0.314787
0.493115
0.493111
0.490167
0.482559
0.471793
0.458539
0.443552
0.427354
0.410381
0.39291
0.375168
0.357459
0.340333
0.324435
0.309882
0.473708
0.475216
0.473797
0.467572
0.458079
0.445989
0.432066
0.416841
0.400759
0.384096
0.367066
0.349973
0.333413
0.318146
0.30437
0.452375
0.455569
0.455819
0.45111
0.443013
0.432199
0.419442
0.405284
0.390179
0.374401
0.358155
0.34174
0.325797
0.311205
0.298259
0.429198
0.434241
0.436296
0.433233
0.426648
0.417216
0.405722
0.392719
0.37867
0.363854
0.348463
0.332789
0.317509
0.303628
0.29156
0.404267
0.411309
0.415299
0.414004
0.409041
0.401091
0.390953
0.379188
0.366275
0.352493
0.338024
0.323146
0.308571
0.295435
0.284287
0.37768
0.38686
0.392905
0.393491
0.390255
0.383883
0.375186
0.364739
0.353032
0.340348
0.326862
0.312839
0.299015
0.286651
0.276455
0.349543
0.360985
0.369195
0.37177
0.370356
0.36565
0.358474
0.349417
0.338983
0.327464
0.315025
0.301908
0.288867
0.277294
0.26808
0.319965
0.333783
0.344259
0.348921
0.349417
0.346457
0.340877
0.333278
0.324178
0.313879
0.302535
0.290371
0.278153
0.267397
0.259185
0.289067
0.305358
0.318189
0.325026
0.327514
0.326373
0.322455
0.316372
0.308662
0.299635
0.289443
0.278286
0.26692
0.256983
0.249788
0.256973
0.27582
0.291086
0.300176
0.304725
0.30547
0.303273
0.298763
0.292493
0.284786
0.275785
0.265665
0.255178
0.246077
0.239917
0.223814
0.245284
0.263051
0.274464
0.281136
0.283821
0.283397
0.280506
0.275718
0.269369
0.261602
0.252566
0.242993
0.234729
0.229595
0.189728
0.213871
0.234195
0.247987
0.256832
0.261506
0.262898
0.261668
0.258403
0.253451
0.246952
0.239022
0.230367
0.222935
0.218848
0.154859
0.181708
0.204629
0.220846
0.231906
0.238605
0.241848
0.24231
0.240596
0.23707
0.231863
0.225069
0.217365
0.210775
0.207713
0.119354
0.148924
0.174469
0.193146
0.20645
0.215202
0.220321
0.222501
0.222366
0.220296
0.216415
0.210775
0.204006
0.198221
0.196203
0.0833664
0.115654
0.143837
0.164994
0.180561
0.191383
0.198393
0.202304
0.203765
0.203171
0.200633
0.196156
0.190328
0.185355
0.184368
0.0470549
0.082036
0.112855
0.1365
0.154336
0.167235
0.176143
0.18179
0.184856
0.185761
0.184603
0.181319
0.176403
0.172148
0.172193
0.0105814
0.0482124
0.0816492
0.107776
0.127874
0.142847
0.153648
0.161027
0.165695
0.16811
0.168356
0.166279
0.162242
0.158629
0.159717
-0.0258883
0.0143282
0.050349
0.0789353
0.101277
0.118308
0.130991
0.140086
0.14634
0.150265
0.151958
0.15116
0.14801
0.144825
0.146853
-0.0621849
-0.019468
0.019084
0.0500921
0.074644
0.0937088
0.108251
0.11904
0.126851
0.132267
0.13543
0.135982
0.13375
0.130759
0.133534
-0.0981358
-0.0530257
-0.0120152
0.0213602
0.0480766
0.0691379
0.0855109
0.0979637
0.107291
0.114154
0.118793
0.120812
0.11969
0.11675
0.119465
-0.133565
-0.0861925
-0.0428195
-0.00714728
0.0216751
0.0446838
0.0628475
0.076931
0.0877309
0.0959745
0.102048
0.105619
0.105849
0.103031
0.104408
-0.168293
-0.118818
-0.0732037
-0.0353182
-0.00445986
0.0204329
0.0403363
0.0560131
0.068244
0.0777932
0.0852058
0.0903418
0.092269
0.0902026
0.0883488
-0.202132
-0.15076
-0.103049
-0.0630401
-0.030228
-0.00353013
0.0180493
0.0352757
0.0489015
0.0596898
0.0683122
0.0748866
0.0786898
0.0782387
0.072044
-0.234884
-0.181901
-0.132241
-0.0901977
-0.0555306
-0.0271239
-0.00394478
0.0147788
0.0297655
0.0417453
0.0514544
0.059249
0.0647403
0.0665407
0.0619436
-0.266329
-0.212169
-0.160666
-0.116671
-0.0802746
-0.0502715
-0.0255792
-0.00542175
0.0108868
0.0240271
0.0347413
0.0435709
0.0505055
0.0547585
0.0543374
-0.296224
-0.241562
-0.188191
-0.142341
-0.104377
-0.0729005
-0.0467884
-0.0252729
-0.00769214
0.00658527
0.0182729
0.0280432
0.0362559
0.0426002
0.0452468
-0.324308
-0.270114
-0.214644
-0.167106
-0.12777
-0.0949412
-0.0675082
-0.0447229
-0.0259335
-0.0105457
0.00210991
0.0127813
0.0221254
0.0300701
0.0341189
-0.350482
-0.297621
-0.239827
-0.19091
-0.150395
-0.116325
-0.0876771
-0.0637223
-0.0438017
-0.027344
-0.0137317
-0.00220127
0.00809808
0.0172552
0.0221593
-0.37482
-0.323563
-0.263599
-0.213741
-0.172186
-0.136982
-0.107239
-0.0822258
-0.0612638
-0.0437959
-0.0292615
-0.0169341
-0.00585596
0.00424116
0.0102354
-0.397308
-0.34744
-0.286
-0.235568
-0.193063
-0.156851
-0.126146
-0.100193
-0.0782888
-0.0598892
-0.0444908
-0.0314346
-0.0197077
-0.00883791
-0.0015767
-0.417807
-0.368936
-0.307216
-0.256294
-0.212939
-0.175877
-0.144359
-0.117588
-0.0948475
-0.0756068
-0.0594166
-0.0456918
-0.0333902
-0.0218403
-0.0134386
-0.436162
-0.388293
-0.3271
-0.275762
-0.231738
-0.194022
-0.161847
-0.13438
-0.110911
-0.090926
-0.0740201
-0.0596792
-0.0468507
-0.0346879
-0.025347
-0.452258
-0.40578
-0.345473
-0.293836
-0.249414
-0.211259
-0.178581
-0.150543
-0.126454
-0.10582
-0.088274
-0.0733689
-0.0600653
-0.0473671
-0.0371845
-0.46603
-0.421474
-0.362211
-0.310508
-0.265952
-0.227567
-0.194539
-0.166052
-0.141452
-0.120264
-0.102152
-0.0867378
-0.0730243
-0.059877
-0.0488745
-0.47745
-0.43531
-0.377233
-0.32588
-0.281362
-0.242939
-0.209703
-0.180888
-0.155888
-0.134238
-0.115631
-0.099767
-0.0857147
-0.0721959
-0.0604016
-0.486527
-0.44721
-0.390558
-0.339966
-0.295738
-0.257381
-0.224065
-0.19504
-0.169747
-0.147729
-0.128697
-0.112438
-0.0981197
-0.0842919
-0.0717565
-0.49332
-0.457155
-0.402263
-0.352778
-0.309125
-0.270944
-0.23763
-0.208504
-0.183023
-0.160728
-0.14134
-0.124734
-0.110221
-0.0961439
-0.0829153
-0.497953
-0.465207
-0.41246
-0.364366
-0.321509
-0.283674
-0.250437
-0.221286
-0.195711
-0.173234
-0.15356
-0.136639
-0.121993
-0.107755
-0.0938562
-0.500619
-0.471506
-0.4213
-0.374815
-0.332897
-0.295555
-0.262527
-0.233428
-0.207819
-0.185242
-0.165361
-0.148147
-0.133391
-0.11915
-0.104578
-0.501596
-0.476278
-0.42898
-0.384229
-0.343323
-0.306576
-0.273888
-0.244955
-0.219389
-0.196758
-0.176754
-0.159271
-0.144371
-0.130334
-0.115102
-0.501228
-0.479848
-0.435736
-0.392724
-0.352838
-0.316748
-0.284512
-0.25586
-0.23043
-0.207831
-0.187733
-0.170046
-0.154929
-0.14125
-0.125487
-0.499942
-0.482701
-0.441811
-0.40041
-0.361494
-0.326106
-0.294411
-0.26614
-0.240935
-0.218441
-0.198337
-0.180525
-0.165128
-0.151757
-0.13583
-0.498203
-0.485393
-0.447397
-0.407366
-0.369344
-0.334694
-0.303618
-0.275809
-0.250903
-0.228581
-0.208553
-0.190703
-0.175124
-0.161686
-0.146242
-0.496621
-0.488196
-0.452582
-0.413631
-0.376434
-0.342566
-0.312178
-0.284893
-0.260345
-0.238255
-0.218368
-0.200545
-0.184843
-0.171216
-0.156676
-0.495785
-0.491196
-0.45733
-0.419193
-0.382799
-0.349777
-0.320142
-0.293427
-0.26928
-0.24747
-0.227773
-0.210031
-0.194264
-0.18051
-0.166798
-0.496111
-0.49434
-0.461488
-0.42399
-0.38846
-0.356381
-0.327554
-0.301441
-0.27773
-0.256242
-0.236777
-0.21916
-0.203395
-0.189605
-0.176384
-0.497697
-0.49733
-0.464762
-0.427922
-0.393439
-0.362428
-0.334448
-0.308957
-0.285717
-0.264591
-0.245395
-0.227947
-0.212237
-0.198452
-0.185397
-0.500114
-0.499431
-0.466718
-0.430888
-0.397777
-0.367958
-0.340838
-0.315991
-0.293264
-0.272547
-0.253656
-0.236408
-0.220783
-0.207001
-0.193917
-0.502163
-0.499236
-0.466816
-0.432833
-0.401534
-0.372983
-0.34672
-0.32255
-0.300398
-0.280138
-0.261582
-0.244555
-0.229025
-0.215231
-0.20206
-0.502008
-0.494943
-0.464637
-0.433834
-0.404768
-0.377473
-0.352069
-0.328654
-0.307157
-0.287402
-0.2692
-0.252402
-0.236969
-0.223169
-0.209924
-0.497552
-0.485173
-0.460194
-0.434138
-0.407455
-0.381339
-0.35687
-0.334338
-0.313583
-0.294368
-0.276529
-0.259967
-0.244641
-0.230851
-0.217574
-0.488615
-0.470148
-0.454483
-0.434092
-0.409439
-0.38448
-0.361151
-0.339677
-0.319734
-0.30107
-0.283595
-0.267274
-0.252072
-0.238329
-0.225049
-0.476611
-0.452742
-0.449722
-0.433728
-0.410472
-0.386896
-0.365025
-0.344758
-0.325655
-0.307534
-0.290415
-0.274348
-0.259297
-0.245636
-0.232387
-0.463775
-0.438634
-0.446932
-0.43251
-0.410471
-0.388774
-0.368678
-0.349688
-0.331398
-0.31379
-0.297017
-0.28121
-0.266336
-0.25281
-0.239646
-0.451755
-0.431933
-0.444994
-0.429867
-0.409677
-0.390469
-0.372307
-0.354537
-0.336994
-0.319864
-0.303424
-0.287886
-0.27321
-0.259857
-0.246867
-0.44173
-0.43224
-0.441259
-0.425751
-0.408686
-0.392386
-0.376057
-0.359366
-0.342489
-0.325796
-0.309664
-0.294385
-0.279924
-0.266787
-0.254057
-0.434388
-0.435339
-0.433587
-0.420845
-0.408268
-0.394767
-0.379954
-0.364202
-0.347939
-0.331632
-0.315764
-0.300733
-0.286488
-0.273585
-0.261203
-0.429192
-0.436641
-0.422241
-0.416742
-0.408974
-0.397528
-0.383979
-0.369145
-0.353426
-0.337411
-0.321734
-0.306914
-0.292896
-0.280252
-0.268276
-0.425527
-0.434697
-0.410899
-0.415568
-0.410495
-0.400349
-0.388187
-0.374316
-0.359032
-0.343166
-0.327586
-0.31295
-0.299151
-0.286766
-0.27527
-0.423144
-0.429845
-0.406532
-0.416704
-0.411533
-0.403139
-0.392852
-0.379905
-0.364808
-0.348893
-0.333294
-0.318795
-0.305241
-0.293139
-0.282158
-0.421655
-0.423379
-0.409783
-0.415614
-0.411331
-0.406399
-0.398317
-0.385999
-0.370778
-0.354587
-0.338847
-0.324462
-0.311159
-0.299356
-0.288963
-0.420769
-0.418384
-0.414797
-0.408706
-0.410745
-0.410998
-0.404814
-0.392655
-0.376915
-0.360191
-0.344177
-0.329873
-0.316893
-0.305446
-0.295664
-0.420516
-0.416339
-0.417736
-0.399615
-0.412969
-0.417325
-0.412274
-0.399863
-0.38322
-0.365658
-0.349236
-0.335018
-0.322409
-0.311395
-0.302333
-0.420565
-0.41698
-0.418222
-0.400007
-0.418841
-0.4249
-0.420781
-0.407697
-0.389586
-0.370851
-0.353894
-0.339777
-0.327698
-0.317235
-0.308958
-0.420884
-0.418799
-0.41785
-0.410753
-0.42488
-0.433409
-0.430635
-0.416158
-0.395908
-0.375614
-0.358044
-0.3441
-0.332672
-0.322972
-0.315691
-0.421409
-0.420715
-0.419644
-0.423618
-0.429367
-0.443811
-0.442035
-0.424988
-0.40185
-0.379698
-0.361473
-0.347829
-0.33733
-0.32861
-0.322558
-0.421862
-0.422399
-0.42326
-0.432499
-0.436183
-0.457091
-0.454405
-0.433731
-0.407095
-0.382783
-0.36399
-0.35085
-0.341525
-0.334188
-0.329755
-0.421855
-0.423467
-0.427019
-0.438104
-0.448986
-0.4714
-0.466454
-0.441657
-0.41105
-0.384474
-0.365272
-0.352992
-0.345273
-0.339627
-0.337214
-0.421129
-0.423664
-0.429499
-0.441444
-0.464153
-0.4826
-0.477053
-0.447993
-0.413023
-0.384201
-0.365043
-0.354064
-0.348414
-0.345039
-0.344928
-0.419585
-0.422869
-0.430186
-0.442691
-0.473082
-0.488765
-0.48509
-0.451367
-0.412072
-0.381446
-0.362895
-0.353939
-0.350974
-0.350276
-0.352851
-0.417311
-0.421
-0.428642
-0.442061
-0.474417
-0.491533
-0.489422
-0.450253
-0.407212
-0.375555
-0.358567
-0.352386
-0.352884
-0.355612
-0.361076
-0.414624
-0.418402
-0.425686
-0.439581
-0.467849
-0.49054
-0.486711
-0.443299
-0.397791
-0.366146
-0.351714
-0.349464
-0.354198
-0.360961
-0.369982
-0.412034
-0.415709
-0.422348
-0.43508
-0.457634
-0.483226
-0.473401
-0.429734
-0.383273
-0.352918
-0.342363
-0.34507
-0.355171
-0.366796
-0.379704
-0.410065
-0.413582
-0.419458
-0.429949
-0.446939
-0.46644
-0.452793
-0.410711
-0.364084
-0.336213
-0.330724
-0.33972
-0.355923
-0.373308
-0.390882
-0.409229
-0.412417
-0.417567
-0.425517
-0.436661
-0.444529