/*--------------------------------*- C++ -*----------------------------------*\
  =========                 |
  \\      /  F ield         | OpenFOAM: The Open Source CFD Toolbox
   \\    /   O peration     | Website:  https://openfoam.org
    \\  /    A nd           | Version:  7
     \\/     M anipulation  |
\*---------------------------------------------------------------------------*/
FoamFile
{
    version     2.0;
    format      ascii;
    class       volVectorField;
    location    "4.9995";
    object      U;
}
// * * * * * * * * * * * * * * * * * * * * * * * * * * * * * * * * * * * * * //

dimensions      [0 1 -1 0 0 0 0];

internalField   nonuniform List<vector> 
18750
(
(-0.0608085 0.0366476 -3.73835e-20)
(-0.203906 0.0418158 1.13978e-20)
(-0.348962 0.0387729 1.01598e-19)
(-0.478017 0.0367392 2.12236e-20)
(-0.60497 0.0346852 -4.53916e-20)
(-0.722221 0.0327852 -1.06498e-19)
(-0.835257 0.0308602 1.04236e-19)
(-0.94061 0.028956 6.68324e-20)
(-1.04167 0.0270243 -4.92398e-20)
(-1.13569 0.0250612 -1.30146e-19)
(-1.22347 0.0228924 4.86403e-19)
(-1.30089 0.0202324 -3.91013e-19)
(-1.36672 0.0167542 2.27338e-19)
(-1.41709 0.0124447 -4.22648e-19)
(-1.45149 0.00757957 9.96354e-20)
(-0.0630251 0.109314 2.38743e-20)
(-0.205243 0.124923 2.74016e-20)
(-0.34839 0.115878 7.92425e-21)
(-0.475618 0.109799 1.32581e-19)
(-0.600603 0.103644 2.61921e-19)
(-0.715691 0.0979307 3.35507e-19)
(-0.826242 0.0921425 -2.75273e-19)
(-0.928746 0.0864229 4.36184e-19)
(-1.02656 0.0806281 4.00241e-19)
(-1.11704 0.0747454 -1.21952e-19)
(-1.20111 0.0682759 -5.14075e-19)
(-1.27473 0.0604064 2.95517e-20)
(-1.33652 0.050156 1.1543e-19)
(-1.38232 0.0373993 2.80449e-19)
(-1.41159 0.0229216 -4.03663e-19)
(-0.0673534 0.1801 6.11106e-20)
(-0.207848 0.206461 7.45739e-20)
(-0.347237 0.191665 -2.37432e-19)
(-0.470879 0.181624 8.75939e-21)
(-0.592046 0.171397 -4.91862e-19)
(-0.702997 0.161835 1.52709e-19)
(-0.808869 0.152129 -4.15988e-19)
(-0.906094 0.142542 -5.17384e-20)
(-0.997978 0.132839 -3.0823e-19)
(-1.08202 0.123001 8.99829e-19)
(-1.15942 0.112263 1.16846e-18)
(-1.2263 0.0994051 1.00738e-18)
(-1.28102 0.0828202 5.79721e-19)
(-1.31883 0.0620405 3.79432e-19)
(-1.33903 0.0382141 -6.54018e-19)
(-0.0735793 0.247794 -2.68385e-19)
(-0.211542 0.285403 3.01642e-19)
(-0.345372 0.265304 -2.14912e-19)
(-0.463685 0.251474 -4.2973e-19)
(-0.579251 0.23727 7.11563e-19)
(-0.684205 0.223842 -6.4612e-19)
(-0.783388 0.210179 9.20043e-19)
(-0.873198 0.196707 -7.60958e-19)
(-0.956908 0.183117 5.22838e-19)
(-1.03227 0.169365 -1.26512e-18)
(-1.10086 0.15448 -1.78229e-18)
(-1.15921 0.136976 1.01451e-19)
(-1.20551 0.114692 -3.25121e-19)
(-1.23413 0.0864976 -6.91015e-19)
(-1.24391 0.0535318 2.43995e-18)
(-0.081419 0.31126 -1.79683e-19)
(-0.216122 0.360741 4.00612e-19)
(-0.342724 0.335971 1.01963e-19)
(-0.454095 0.318633 3.49291e-19)
(-0.562431 0.300608 -4.31472e-19)
(-0.659656 0.283347 1.82682e-19)
(-0.750263 0.265753 2.16225e-18)
(-0.830731 0.248477 3.23991e-19)
(-0.904441 0.231167 5.69037e-19)
(-0.969583 0.213749 -1.94814e-19)
(-1.02833 0.195088 1.7162e-19)
(-1.0779 0.173527 -5.55471e-20)
(-1.11659 0.146389 -1.8637e-18)
(-1.13764 0.111571 -1.02901e-18)
(-1.13862 0.0695609 -2.83094e-18)
(-0.0905878 0.369471 4.12597e-19)
(-0.221373 0.431442 9.82874e-20)
(-0.339186 0.402926 -1.88719e-19)
(-0.442122 0.382452 -1.33598e-19)
(-0.541721 0.360809 1.32998e-19)
(-0.629602 0.33976 -1.88148e-18)
(-0.710022 0.318288 -2.42916e-19)
(-0.779832 0.297385 1.18527e-19)
(-0.842829 0.276738 -8.44549e-19)
(-0.897875 0.256233 -1.14653e-18)
(-0.94787 0.234486 8.25192e-19)
(-0.990915 0.209557 -8.05263e-19)
(-1.02563 0.178221 2.44083e-18)
(-1.04384 0.137328 -1.87961e-18)
(-1.0404 0.0861447 3.94917e-18)
(-0.100747 0.421443 -3.41865e-19)
(-0.226997 0.496608 -6.00553e-19)
(-0.334587 0.465528 2.3378e-19)
(-0.42786 0.442386 1.72113e-18)
(-0.517526 0.417397 1.70595e-18)
(-0.594966 0.392739 -5.73623e-19)
(-0.66446 0.367655 2.86729e-19)
(-0.723633 0.343576 1.80857e-19)
(-0.776982 0.320243 1.80219e-18)
(-0.824148 0.297336 2.47326e-18)
(-0.868661 0.273011 -1.19619e-18)
(-0.909304 0.244942 -2.28131e-18)
(-0.944761 0.209515 -4.20493e-18)
(-0.965087 0.162789 6.62063e-19)
(-0.960776 0.102521 -4.89722e-18)
(-0.111428 0.465978 -2.76269e-19)
(-0.232595 0.55537 -3.32332e-19)
(-0.328789 0.52333 -2.45441e-18)
(-0.411573 0.497983 8.42087e-19)
(-0.490618 0.469973 -1.03925e-18)
(-0.557249 0.441915 6.8567e-19)
(-0.616088 0.413464 6.98278e-19)
(-0.66581 0.38655 -3.08172e-18)
(-0.711722 0.361005 -2.03135e-18)
(-0.754107 0.336288 -3.39916e-18)
(-0.796557 0.310113 -5.69336e-19)
(-0.837619 0.279707 2.43064e-18)
(-0.875177 0.240899 9.45203e-18)
(-0.897513 0.188977 -1.45762e-18)
(-0.89013 0.120248 2.5244e-18)
(-0.122144 0.50224 1.50207e-18)
(-0.237838 0.607283 6.09015e-19)
(-0.32173 0.575992 2.66644e-18)
(-0.393614 0.548964 -1.9589e-18)
(-0.461812 0.51836 9.02361e-19)
(-0.517863 0.487338 -1.4958e-18)
(-0.566888 0.456134 -3.39857e-18)
(-0.608687 0.4273 3.013e-18)
(-0.649246 0.40086 3.54258e-19)
(-0.688979 0.376002 5.06697e-18)
(-0.730529 0.349632 -1.64777e-18)
(-0.771027 0.317903 -7.44721e-18)
(-0.807037 0.275796 -4.53852e-18)
(-0.825999 0.218449 4.4306e-19)
(-0.809296 0.142099 -2.11223e-18)
(-0.132128 0.529036 -1.21391e-18)
(-0.242114 0.651629 -7.01876e-19)
(-0.313299 0.623385 8.60764e-19)
(-0.3743 0.595201 1.30703e-19)
(-0.431816 0.562619 -3.53122e-19)
(-0.477872 0.529269 -3.96066e-19)
(-0.518148 0.496069 1.55564e-18)
(-0.553422 0.46621 -1.80462e-18)
(-0.58992 0.439802 1.77434e-18)
(-0.627508 0.415491 2.2046e-18)
(-0.667017 0.389171 -3.93659e-18)
(-0.703643 0.355971 7.47853e-18)
(-0.732871 0.310371 8.49305e-19)
(-0.742428 0.247997 1.14936e-18)
(-0.712228 0.164981 2.71779e-18)
(-0.140741 0.546095 2.19695e-18)
(-0.245049 0.688597 -7.20528e-19)
(-0.303455 0.665389 -3.27517e-18)
(-0.353896 0.636722 1.28357e-18)
(-0.401075 0.60292 -7.48142e-19)
(-0.437879 0.568023 8.82602e-19)
(-0.470334 0.533716 6.45577e-18)
(-0.499797 0.503804 3.0893e-18)
(-0.532214 0.478411 2.04366e-18)
(-0.566368 0.455644 -6.87577e-18)
(-0.601104 0.430424 7.55601e-18)
(-0.629957 0.396616 2.81275e-18)
(-0.64759 0.34778 -4.55212e-18)
(-0.643006 0.279243 5.52143e-18)
(-0.597448 0.188876 -7.02963e-20)
(-0.146654 0.551852 3.84995e-19)
(-0.245821 0.717637 1.24822e-19)
(-0.292027 0.701981 -1.86265e-19)
(-0.332471 0.673626 -2.28799e-18)
(-0.369832 0.639534 4.53502e-18)
(-0.39808 0.603945 -2.32294e-18)
(-0.423321 0.56935 -6.79147e-18)
(-0.44709 0.540096 2.03187e-18)
(-0.474607 0.51622 -3.31252e-18)
(-0.503496 0.495132 5.15539e-18)
(-0.530972 0.470718 -9.36009e-18)
(-0.549073 0.435621 7.55067e-19)
(-0.551504 0.382519 4.09028e-18)
(-0.528184 0.308426 -8.62881e-18)
(-0.466051 0.21318 -1.98418e-18)
(-0.148876 0.546973 -1.40665e-18)
(-0.244124 0.739513 4.18356e-19)
(-0.279069 0.732948 1.25859e-18)
(-0.310053 0.706169 -5.80267e-20)
(-0.338093 0.67271 -6.08854e-18)
(-0.358405 0.637214 5.9762e-19)
(-0.376769 0.603015 2.2166e-18)
(-0.394484 0.574944 -5.92986e-18)
(-0.415835 0.552822 4.42663e-18)
(-0.437297 0.533476 -4.11793e-18)
(-0.454713 0.510025 1.14447e-17)
(-0.45888 0.474066 -4.81012e-18)
(-0.442375 0.418158 6.00979e-18)
(-0.399425 0.339416 1.22334e-17)
(-0.325751 0.23727 5.24025e-18)
(-0.146514 0.531865 -5.29859e-19)
(-0.239188 0.753376 7.62617e-21)
(-0.264422 0.758289 -6.21372e-20)
(-0.286447 0.734622 -1.30436e-19)
(-0.305839 0.70268 -2.85118e-18)
(-0.318688 0.667998 -1.27252e-18)
(-0.330229 0.634692 2.12544e-18)
(-0.341317 0.607997 1.29435e-18)
(-0.355112 0.587606 -7.46406e-18)
(-0.367076 0.569817 -4.03916e-19)
(-0.372304 0.547291 -2.24775e-18)
(-0.360989 0.510984 4.64761e-18)
(-0.326403 0.452224 -6.62466e-18)
(-0.26775 0.370389 -9.16831e-19)
(-0.185279 0.260985 -5.92905e-18)
(-0.139053 0.506387 2.3098e-18)
(-0.230349 0.758533 -2.01767e-18)
(-0.247919 0.778406 -2.88373e-18)
(-0.261597 0.759289 5.21201e-18)
(-0.272968 0.729629 4.68006e-18)
(-0.27871 0.696275 6.03515e-18)
(-0.28341 0.664153 2.66267e-19)
(-0.287233 0.638886 4.12083e-18)
(-0.292306 0.619988 5.57136e-18)
(-0.293229 0.603394 8.44703e-18)
(-0.284939 0.581237 -4.01531e-18)
(-0.258411 0.543408 8.5807e-18)
(-0.205387 0.480999 -3.62563e-20)
(-0.135363 0.395059 -4.50883e-18)
(-0.0415411 0.277804 -1.11392e-17)
(-0.126057 0.470115 -1.40463e-18)
(-0.217209 0.754719 2.29135e-18)
(-0.229278 0.793344 1.52421e-18)
(-0.235549 0.780466 -4.83838e-18)
(-0.239545 0.753797 -2.32207e-18)
(-0.238409 0.72214 -4.32478e-19)
(-0.236111 0.691325 -3.1134e-18)
(-0.232181 0.667183 -5.40676e-18)
(-0.227732 0.649354 -9.32509e-18)
(-0.216677 0.63344 -4.12445e-18)
(-0.194193 0.611733 5.88193e-18)
(-0.152481 0.574728 -1.26122e-17)
(-0.0813662 0.513789 4.105e-19)
(0.00434511 0.438528 8.27753e-18)
(0.132971 0.338511 1.192e-17)
(-0.107225 0.422867 -3.29297e-18)
(-0.199651 0.741836 2.62478e-18)
(-0.208407 0.802969 -4.62772e-18)
(-0.20836 0.798179 -2.23142e-18)
(-0.205612 0.775208 -1.56431e-19)
(-0.197858 0.745599 3.21131e-18)
(-0.18848 0.715999 5.30711e-18)
(-0.1764 0.692618 1.77889e-18)
(-0.162075 0.6753 2.62885e-18)
(-0.138629 0.659623 -7.31761e-18)
(-0.101637 0.637511 1.38271e-19)
(-0.0471958 0.600251 -5.9469e-18)
(0.0436023 0.534565 -4.52557e-18)
(0.124584 0.453307 -1.31633e-17)
(0.319711 0.401771 -2.46123e-19)
(-0.0827341 0.36477 2.89729e-18)
(-0.17794 0.719616 4.57838e-19)
(-0.185555 0.806873 7.57949e-19)
(-0.180165 0.812253 5.5717e-18)
(-0.171277 0.793801 2.34664e-18)
(-0.157217 0.76669 -2.99119e-18)
(-0.140737 0.738244 2.34219e-18)
(-0.12033 0.714909 -1.37701e-18)
(-0.09616 0.697388 -2.77212e-18)
(-0.0608503 0.681263 3.30298e-18)
(-0.00839132 0.658843 -1.1105e-17)
(0.0545377 0.624936 -3.58785e-19)
(0.175924 0.557897 -6.51115e-18)
(0.217406 0.432108 1.03423e-17)
(0.480706 0.416064 8.71766e-19)
(-0.0538167 0.296386 -1.08068e-18)
(-0.152769 0.687257 -3.07667e-18)
(-0.161265 0.804075 8.57313e-19)
(-0.151363 0.822239 -6.29795e-18)
(-0.136714 0.809469 -4.39288e-18)
(-0.11667 0.78525 -2.46829e-18)
(-0.0934095 0.757871 -4.41152e-18)
(-0.0646005 0.734134 4.25572e-18)
(-0.030726 0.715499 6.13172e-18)
(0.0147531 0.698642 1.20847e-17)
(0.0851375 0.672446 -4.53265e-19)
(0.144877 0.640974 1.43069e-17)
(0.317901 0.605051 5.85449e-18)
(0.316519 0.443468 4.42068e-18)
(0.61886 0.421971 -1.01286e-17)
(-0.0246219 0.217366 1.85164e-18)
(-0.125486 0.643143 4.66639e-18)
(-0.136248 0.792831 3.23395e-18)
(-0.122405 0.827323 4.36268e-18)
(-0.102335 0.821904 4.80096e-20)
(-0.0765044 0.801283 1.77767e-18)
(-0.0468245 0.775085 4.31939e-20)
(-0.0100865 0.750291 -3.30578e-18)
(0.033914 0.72934 5.10937e-18)
(0.0848861 0.712336 -1.81808e-17)
(0.18105 0.683017 5.52403e-18)
(0.217762 0.630213 -3.78831e-18)
(0.447369 0.634349 7.83045e-19)
(0.429327 0.474673 -5.71393e-18)
(0.737764 0.433633 -6.22575e-18)
(-0.00628245 0.130563 -3.02838e-18)
(-0.0981895 0.584383 4.04525e-18)
(-0.111258 0.77052 -1.06829e-18)
(-0.0939519 0.826182 -1.78508e-18)
(-0.0686003 0.830548 3.82449e-18)
(-0.0371696 0.814222 4.26385e-19)
(-0.00157497 0.789592 -1.18078e-18)
(0.0419836 0.764174 -1.40973e-19)
(0.0985649 0.739152 -3.31117e-18)
(0.147063 0.720843 8.68067e-18)
(0.278634 0.701945 5.23569e-18)
(0.2847 0.613095 2.71616e-18)
(0.547414 0.625915 -2.28519e-19)
(0.5335 0.481314 6.83156e-18)
(0.834037 0.438127 -5.31019e-19)
(-0.00471269 0.048507 8.8851e-19)
(-0.0739756 0.50823 -9.88715e-19)
(-0.0867463 0.733986 7.33625e-19)
(-0.0665071 0.816723 3.29955e-18)
(-0.0363352 0.83432 -2.12443e-18)
(0.000825413 0.823992 -1.35562e-18)
(0.0425908 0.801156 -2.66631e-18)
(0.0895327 0.775604 2.09324e-18)
(0.163182 0.746218 -2.21538e-18)
(0.199263 0.716535 -2.41581e-18)
(0.37122 0.723581 -4.59067e-18)
(0.359775 0.617379 -2.75333e-18)
(0.626625 0.617187 9.65474e-18)
(0.621706 0.482162 -1.34329e-17)
(0.9118 0.444311 -3.08073e-19)
(-0.00665553 -0.0147233 3.81907e-18)
(-0.0523888 0.410284 -1.48303e-18)
(-0.0631745 0.680468 -3.82965e-18)
(-0.0406283 0.796169 -1.03898e-18)
(-0.00610303 0.831159 5.45307e-18)
(0.0359766 0.829077 -7.05557e-20)
(0.0856857 0.809329 2.64782e-18)
(0.132018 0.784953 -1.47075e-18)
(0.228408 0.757012 -5.73599e-18)
(0.243831 0.699985 1.35969e-17)
(0.445639 0.723047 -1.00177e-17)
(0.44 0.625476 2.97216e-18)
(0.69525 0.615679 -1.35405e-17)
(0.701911 0.485131 4.83843e-18)
(0.977927 0.449072 3.82592e-18)
(0.000440321 -0.052088 -1.36402e-18)
(-0.0339845 0.287276 -4.32334e-18)
(-0.0400569 0.606759 1.95547e-18)
(-0.0170345 0.760714 3.44551e-19)
(0.02142 0.818689 -4.84325e-18)
(0.0672576 0.828875 3.00691e-18)
(0.127257 0.81239 1.0921e-19)
(0.166502 0.786513 -7.03549e-19)
(0.291551 0.773906 -5.55646e-18)
(0.294057 0.694248 -7.24036e-19)
(0.497984 0.702865 7.74204e-18)
(0.515424 0.620782 5.50047e-19)
(0.750573 0.604237 1.84537e-18)
(0.775373 0.480639 5.23064e-18)
(1.03365 0.448287 -1.33106e-17)
(0.0126495 -0.0651522 -2.06295e-18)
(-0.0252031 0.154944 4.09148e-20)
(-0.0201625 0.509867 -2.47747e-18)
(0.00355876 0.705632 1.99543e-18)
(0.0456035 0.791862 2.69758e-18)
(0.0918202 0.820386 -2.01627e-18)
(0.168111 0.813625 -3.61151e-19)
(0.194863 0.777354 -1.60427e-18)
(0.340196 0.777384 4.34515e-18)
(0.353631 0.707348 7.49971e-19)
(0.53954 0.683702 -1.07889e-17)
(0.585955 0.619986 2.75095e-18)
(0.792134 0.587389 1.8316e-18)
(0.847118 0.482386 -8.40635e-18)
(1.07736 0.446966 2.14411e-18)
(0.0206999 -0.0623065 4.7004e-19)
(-0.0191984 0.0484132 1.23349e-18)
(-0.00492537 0.389218 2.33948e-18)
(0.0181999 0.626963 -1.94128e-18)
(0.0667456 0.747486 -7.48235e-20)
(0.107834 0.797081 4.75723e-18)
(0.201603 0.808473 -2.24345e-19)
(0.223918 0.770675 6.89129e-20)
(0.374725 0.756843 6.48563e-18)
(0.402004 0.715739 -3.61646e-18)
(0.585438 0.665876 2.83308e-18)
(0.645124 0.623574 -7.60835e-18)
(0.829004 0.567878 6.58621e-19)
(0.917486 0.489836 -1.8886e-18)
(1.09948 0.435352 3.58949e-18)
(0.0229559 -0.0527951 -3.34425e-19)
(-0.00182491 -0.0136519 1.60423e-18)
(0.00587678 0.244846 -2.04581e-18)
(0.0259713 0.520928 4.33423e-18)
(0.0815016 0.678532 -3.51191e-18)
(0.116376 0.757294 -3.126e-18)
(0.22484 0.784701 -1.89759e-18)
(0.241823 0.763049 -3.85324e-18)
(0.412818 0.733006 -7.47659e-18)
(0.423538 0.704247 1.28402e-18)
(0.6381 0.645731 5.90007e-18)
(0.675362 0.613254 4.73212e-18)
(0.868995 0.540962 8.54298e-19)
(0.960551 0.484673 -3.92382e-18)
(1.09141 0.406567 -1.89115e-18)
(0.022679 -0.0430992 8.62551e-19)
(0.0211146 -0.0402244 1.51652e-18)
(0.0138079 0.111479 -6.36186e-18)
(0.0236371 0.390441 -4.31223e-18)
(0.0897735 0.579389 -1.22749e-19)
(0.110265 0.692751 3.25088e-18)
(0.241444 0.742521 -1.05995e-18)
(0.241533 0.734295 8.50604e-18)
(0.437536 0.708351 9.58107e-19)
(0.435644 0.677913 -4.37373e-18)
(0.665916 0.616856 -4.41452e-18)
(0.6798 0.584407 -7.06863e-18)
(0.900269 0.506283 7.78862e-18)
(0.951338 0.46311 5.18376e-18)
(1.06211 0.366906 5.25544e-20)
(0.0231464 -0.035666 -2.39304e-18)
(0.0396552 -0.0470686 -4.46674e-18)
(0.0250744 0.0299617 3.19087e-18)
(0.0151498 0.250566 3.86014e-18)
(0.087936 0.452116 2.31346e-18)
(0.0925992 0.597013 -2.20134e-18)
(0.230514 0.668729 5.42816e-18)
(0.24488 0.688483 -7.18422e-18)
(0.409563 0.649679 7.91198e-18)
(0.467058 0.649955 5.00133e-18)
(0.633437 0.562402 -1.42932e-18)
(0.700575 0.55155 -2.12196e-18)
(0.888507 0.461516 -3.03911e-18)
(0.899755 0.426619 -6.07067e-18)
(1.03274 0.316683 7.24287e-18)
(0.0257996 -0.0311732 6.83378e-18)
(0.0534677 -0.0471163 5.26434e-18)
(0.0392728 -0.00639046 1.20853e-18)
(0.0173103 0.135563 -6.33859e-20)
(0.0690443 0.305965 -7.8022e-19)
(0.0755039 0.483715 -9.5829e-19)
(0.179953 0.545057 -4.19694e-18)
(0.245484 0.622783 6.70813e-18)
(0.345912 0.551562 -4.98434e-18)
(0.486246 0.599589 -6.05141e-20)
(0.560977 0.481549 4.77204e-18)
(0.73231 0.504503 3.43985e-18)
(0.793705 0.385634 3.4938e-18)
(0.85904 0.370222 -3.54478e-20)
(1.01891 0.264505 -4.23161e-18)
(0.0305089 -0.0292783 -4.11605e-18)
(0.0645031 -0.0465281 -4.27995e-18)
(0.0509046 -0.0217003 1.37255e-18)
(0.0305118 0.0683776 -2.16304e-18)
(0.0409817 0.174886 -9.45437e-19)
(0.0513878 0.365773 3.28832e-18)
(0.120105 0.39768 -8.99128e-19)
(0.201743 0.511591 -7.3182e-19)
(0.295607 0.440879 -1.85924e-18)
(0.425542 0.487423 -4.26861e-18)
(0.513205 0.391921 1.96318e-18)
(0.675009 0.399796 -2.49172e-18)
(0.663263 0.286597 -3.96052e-18)
(0.901113 0.310842 -1.86138e-18)
(0.966811 0.213614 7.52276e-18)
(0.036082 -0.0294096 4.68632e-18)
(0.0719321 -0.047877 -3.70819e-18)
(0.0570051 -0.0315297 -6.12193e-18)
(0.0383816 0.0335887 5.96191e-19)
(0.0137411 0.0826775 1.49266e-18)
(0.0194676 0.248957 -8.76023e-19)
(0.0554314 0.257726 2.45765e-18)
(0.132722 0.365787 5.19205e-19)
(0.229246 0.311287 -2.72818e-19)
(0.326296 0.335781 1.09103e-19)
(0.466519 0.281118 -2.02391e-18)
(0.528851 0.255869 2.83652e-19)
(0.689614 0.231508 1.26586e-18)
(0.947844 0.259062 -1.00242e-18)
(1.24313 0.280494 7.06261e-18)
(0.040798 -0.0307669 9.95243e-19)
(0.0732899 -0.0515334 -2.14438e-18)
(0.0542257 -0.0430335 5.99122e-18)
(0.028822 0.00625153 4.6119e-18)
(-0.0131039 0.0209197 -4.5873e-18)
(-0.0236636 0.141259 -2.24284e-19)
(-0.0149979 0.133206 -1.81972e-18)
(0.0555876 0.215757 -5.70208e-19)
(0.133168 0.157767 3.93343e-18)
(0.25166 0.185674 1.92457e-18)
(0.371855 0.146708 2.74174e-18)
(0.538844 0.177141 -2.39557e-18)
(0.835151 0.217994 1.54181e-18)
(1.16744 0.294996 -9.82709e-19)
(1.36181 0.280721 -9.02486e-18)
(0.0426372 -0.032153 7.95802e-19)
(0.0666077 -0.0566326 1.2684e-18)
(0.0401536 -0.0564673 -3.30952e-18)
(0.00121235 -0.0231584 -3.75885e-18)
(-0.049376 -0.0280109 -3.42612e-18)
(-0.0821655 0.0469568 3.03382e-19)
(-0.089548 0.0222032 2.12296e-18)
(-0.0356218 0.0695561 -3.65742e-18)
(0.0555125 0.0151546 -1.80259e-18)
(0.192633 0.054031 9.51894e-19)
(0.437229 0.0860465 -2.6306e-18)
(0.74075 0.181102 1.98239e-19)
(1.06077 0.256293 1.95148e-18)
(1.26244 0.288317 -2.70647e-18)
(1.33936 0.272576 2.19744e-18)
(0.0398349 -0.0323034 -1.78279e-18)
(0.0515857 -0.0613754 4.07409e-18)
(0.0142116 -0.0698508 2.71433e-18)
(-0.0394404 -0.0546411 1.81765e-18)
(-0.10134 -0.0703078 2.95008e-18)
(-0.154375 -0.0351138 -2.99503e-19)
(-0.168812 -0.0761017 -2.06551e-18)
(-0.110136 -0.0572334 4.28614e-19)
(0.0492524 -0.0754488 2.27474e-18)
(0.315823 0.0106938 -3.93661e-18)
(0.673115 0.109429 -1.98244e-18)
(0.964483 0.214978 1.03219e-19)
(1.16411 0.251594 -5.97452e-19)
(1.28066 0.277686 3.34679e-18)
(1.40362 0.265745 -2.90709e-18)
(0.0314876 -0.0301902 1.95422e-18)
(0.0290465 -0.0634265 1.3194e-18)
(-0.0209289 -0.0806408 -1.56718e-19)
(-0.0887552 -0.0819243 -1.18357e-18)
(-0.165155 -0.104577 2.47639e-19)
(-0.230057 -0.101426 -3.50021e-18)
(-0.228177 -0.149075 7.44412e-19)
(-0.0920737 -0.129227 -1.43912e-18)
(0.220637 -0.0691147 -1.59706e-18)
(0.578875 0.0459636 2.78844e-18)
(0.879896 0.141601 4.263e-18)
(1.07493 0.211206 2.07321e-18)
(1.21581 0.242848 2.05265e-18)
(1.33348 0.26386 -2.59741e-18)
(1.37241 0.248183 -2.57565e-18)
(0.0180031 -0.0251172 1.6383e-18)
(0.00117126 -0.0605792 -3.08419e-18)
(-0.0602799 -0.0848124 -1.50323e-18)
(-0.139711 -0.0972034 -3.39826e-18)
(-0.224198 -0.123493 1.55599e-18)
(-0.27966 -0.13817 3.65374e-18)
(-0.2101 -0.177552 -4.2664e-18)
(0.0791816 -0.122137 1.38209e-18)
(0.479421 -0.0178725 2.35474e-18)
(0.784008 0.0764433 7.83333e-19)
(1.00125 0.145536 -3.04804e-18)
(1.15581 0.208233 -1.19267e-18)
(1.27536 0.232714 7.83387e-21)
(1.32653 0.250942 1.45241e-18)
(1.38745 0.243837 5.42885e-18)
(0.000978103 -0.0169877 -2.63049e-18)
(-0.0284977 -0.0513354 -2.65755e-18)
(-0.0971378 -0.0783905 1.50779e-18)
(-0.180056 -0.0944717 6.06195e-18)
(-0.256854 -0.11819 -4.01948e-18)
(-0.275619 -0.136454 1.08707e-18)
(-0.0940714 -0.156594 1.72839e-18)
(0.336144 -0.0618955 -1.67573e-19)
(0.681032 0.0168873 3.01599e-19)
(0.92733 0.0888011 1.66019e-18)
(1.10621 0.154558 -1.55022e-18)
(1.22597 0.205416 -2.88911e-18)
(1.29192 0.225759 -2.40507e-18)
(1.35007 0.243399 1.96966e-18)
(1.38071 0.229337 5.36288e-19)
(-0.0171772 -0.0064974 -6.62555e-19)
(-0.055942 -0.0357867 5.33276e-18)
(-0.125267 -0.0608653 1.15443e-18)
(-0.201153 -0.0736846 1.66622e-18)
(-0.255487 -0.0888262 1.55205e-18)
(-0.22026 -0.105916 1.47591e-18)
(0.107215 -0.0840442 -5.07474e-19)
(0.545748 -0.0128576 1.0115e-18)
(0.842573 0.0478514 5.06799e-19)
(1.0535 0.111289 2.19574e-18)
(1.18723 0.164165 4.92758e-20)
(1.26235 0.204967 2.00068e-18)
(1.32129 0.21984 -1.50749e-18)
(1.34431 0.231913 -1.34966e-18)
(1.36705 0.223635 8.55737e-19)
(-0.0339768 0.0048603 2.41293e-18)
(-0.0783371 -0.01616 -2.17983e-18)
(-0.141962 -0.0353603 2.71147e-19)
(-0.202474 -0.0402565 -3.36819e-18)
(-0.228407 -0.0465354 -2.9785e-18)
(-0.126517 -0.0728461 5.40034e-18)
(0.33213 -0.00411269 1.59821e-18)
(0.715185 0.0300683 -2.2171e-18)
(0.984457 0.0829357 6.3231e-19)
(1.14875 0.130528 -5.90822e-18)
(1.24115 0.173363 1.96707e-18)
(1.299 0.203609 -2.24514e-18)
(1.32537 0.214603 2.44061e-18)
(1.34864 0.228308 -3.25518e-19)
(1.37483 0.216579 -1.27926e-18)
(-0.0474538 0.0154301 -3.7947e-18)
(-0.0943458 0.0045718 -3.89635e-18)
(-0.147855 -0.00667188 -4.01805e-18)
(-0.186841 -0.00118218 -3.15681e-18)
(-0.185724 -0.00330702 2.18018e-18)
(0.0130859 -0.0246628 -9.42151e-18)
(0.516768 0.0409017 8.64018e-19)
(0.873217 0.0751736 8.16365e-19)
(1.09473 0.114787 4.39467e-19)
(1.21895 0.150582 2.77689e-18)
(1.28532 0.182849 -2.20529e-18)
(1.31441 0.205129 4.88153e-18)
(1.33822 0.214163 -9.73136e-19)
(1.34973 0.221947 -1.72715e-18)
(1.35509 0.210845 9.39108e-19)
(-0.0565131 0.0239258 6.75408e-19)
(-0.103756 0.0237096 3.1728e-18)
(-0.144727 0.0205992 4.61064e-18)
(-0.16021 0.0382209 7.54655e-19)
(-0.13518 0.0308056 4.02132e-18)
(0.184128 0.0468708 2.33462e-18)
(0.673715 0.090152 7.35642e-19)
(0.996227 0.116181 -3.56589e-18)
(1.18015 0.145005 -1.9544e-19)
(1.27259 0.168891 1.47037e-18)
(1.31086 0.192802 5.38912e-18)
(1.33221 0.207229 -6.69316e-19)
(1.33935 0.212135 1.63329e-18)
(1.34402 0.219829 1.46193e-18)
(1.36171 0.208822 2.1854e-18)
(-0.0608594 0.029584 1.26133e-18)
(-0.107239 0.0391081 -4.22756e-18)
(-0.134224 0.0431344 -9.11788e-19)
(-0.131361 0.069706 6.47826e-20)
(-0.06856 0.0415494 -7.45214e-18)
(0.36768 0.0953839 1.98826e-18)
(0.819894 0.130856 -1.01915e-18)
(1.10119 0.152676 1.16761e-18)
(1.24553 0.171515 3.75024e-18)
(1.30734 0.186209 -1.3015e-18)
(1.33163 0.201838 -4.07207e-18)
(1.33707 0.209766 -5.14129e-19)
(1.34199 0.214478 -5.51239e-19)
(1.34746 0.217777 -1.18113e-18)
(1.34744 0.205299 -2.38028e-18)
(-0.0608726 0.0321975 2.64412e-19)
(-0.105586 0.0494367 1.14526e-18)
(-0.117589 0.0615829 -2.98556e-18)
(-0.105794 0.0898489 1.30276e-18)
(0.0197992 0.0548282 3.06783e-18)
(0.528812 0.130745 -1.37976e-18)
(0.940623 0.166231 -2.72481e-19)
(1.17844 0.183299 -3.03218e-18)
(1.28972 0.194462 5.4691e-19)
(1.33241 0.201056 -2.11138e-18)
(1.34106 0.210723 1.91967e-18)
(1.34405 0.214093 -1.49323e-18)
(1.34279 0.215642 2.47631e-18)
(1.33929 0.2169 -8.64529e-19)
(1.34711 0.206063 -1.68126e-18)
(-0.057524 0.031773 1.35163e-18)
(-0.0999021 0.0540163 8.44374e-19)
(-0.0977165 0.0752233 7.68012e-19)
(-0.0838934 0.0911436 2.16796e-19)
(0.139542 0.0867037 1.28695e-18)
(0.67412 0.165102 -3.33372e-18)
(1.04344 0.197892 1.90111e-18)
(1.23938 0.209862 4.24919e-18)
(1.32227 0.213916 -4.63618e-19)
(1.3462 0.214798 3.03508e-18)
(1.34894 0.219114 1.7292e-18)
(1.3443 0.217684 3.11158e-19)
(1.33996 0.219179 4.83249e-19)
(1.34087 0.217515 8.96865e-19)
(1.33909 0.205483 1.97551e-18)
(-0.052296 0.0287469 2.03884e-18)
(-0.0917038 0.0527479 2.90001e-18)
(-0.0804599 0.0811816 -2.60637e-18)
(-0.0589044 0.0692749 2.43343e-18)
(0.298424 0.117251 -5.59237e-18)
(0.808614 0.190764 1.50232e-18)
(1.12611 0.221787 -5.01186e-19)
(1.28197 0.229996 -2.61923e-18)
(1.34085 0.229688 -4.52175e-18)
(1.35498 0.226169 -1.68596e-18)
(1.35018 0.226571 -4.05878e-18)
(1.34497 0.222892 2.41121e-18)
(1.33993 0.222412 -3.04277e-18)
(1.33359 0.218017 1.91938e-18)
(1.33332 0.207947 1.21434e-18)
(-0.0469417 0.0238745 -4.81948e-18)
(-0.0822246 0.0478439 1.49923e-19)
(-0.0722181 0.0761466 3.58324e-19)
(-0.0131091 0.0374789 6.66784e-19)
(0.469283 0.142888 4.18137e-19)
(0.923694 0.213648 2.73965e-18)
(1.1894 0.242606 1.47821e-18)
(1.31181 0.247759 -3.9325e-19)
(1.35336 0.243338 2.0024e-18)
(1.35763 0.23676 1.24542e-18)
(1.35122 0.234135 5.50057e-19)
(1.34317 0.227376 -1.33868e-18)
(1.33484 0.226495 4.18412e-18)
(1.33221 0.220209 6.76747e-19)
(1.32891 0.209834 -1.35205e-18)
(-0.0425899 0.017905 4.40815e-18)
(-0.0727182 0.0423751 -3.13273e-18)
(-0.0726797 0.0573229 1.00497e-18)
(0.071026 0.0317423 -9.76626e-20)
(0.623917 0.170141 5.17671e-18)
(1.022 0.233605 -4.20477e-19)
(1.23886 0.258051 -1.78738e-18)
(1.33182 0.260242 4.22243e-18)
(1.35833 0.253826 3.88192e-19)
(1.35837 0.245459 1.58854e-18)
(1.34879 0.24048 -3.15868e-18)
(1.3404 0.2328 8.23794e-20)
(1.33337 0.230744 -1.27902e-18)
(1.32632 0.221922 -2.28467e-19)
(1.32104 0.213136 -7.59959e-19)
(-0.0396849 0.0115587 -1.17802e-18)
(-0.0668426 0.0372885 3.23743e-18)
(-0.0706676 0.0258811 1.96761e-18)
(0.206839 0.0648625 1.49856e-18)
(0.758853 0.19387 -8.55136e-19)
(1.10145 0.250257 -3.33892e-19)
(1.27447 0.271324 2.22156e-18)
(1.34333 0.271771 -1.80283e-18)
(1.36028 0.263597 5.29212e-19)
(1.35573 0.253862 -2.70876e-18)
(1.34623 0.247297 1.89453e-19)
(1.33734 0.237865 3.75759e-19)
(1.32758 0.235057 -5.26918e-19)
(1.32259 0.224921 -3.00858e-18)
(1.31779 0.216449 1.19387e-18)
(-0.0385549 0.00685169 -2.05296e-18)
(-0.0697133 0.0288367 -2.54812e-18)
(-0.0466201 -0.0114108 1.33303e-18)
(0.384073 0.107235 -1.53731e-19)
(0.877051 0.213507 -2.08168e-18)
(1.16467 0.264536 -7.15538e-20)
(1.30099 0.281881 -1.58205e-18)
(1.3506 0.280031 -3.06073e-18)
(1.35893 0.271023 -1.21422e-18)
(1.35288 0.260838 1.11796e-18)
(1.34228 0.252944 9.80299e-19)
(1.33284 0.243256 -9.75594e-20)
(1.32466 0.239631 -1.43641e-18)
(1.31755 0.227492 2.50085e-18)
(1.30972 0.220214 7.28742e-19)
(-0.0393248 0.00693522 2.00921e-18)
(-0.0789232 0.0158017 8.36294e-21)
(0.0124605 -0.0310645 -3.25389e-18)
(0.554099 0.14113 -6.20622e-20)
(0.977901 0.231587 4.97653e-19)
(1.21386 0.276729 9.15471e-19)
(1.31872 0.290887 -1.62345e-18)
(1.3527 0.28804 8.3665e-19)
(1.35604 0.278555 -3.82278e-20)
(1.34797 0.267889 8.92155e-19)
(1.3378 0.259213 -7.74688e-19)
(1.32881 0.248613 -2.09433e-18)
(1.3187 0.243998 -9.63595e-20)
(1.31232 0.230958 -1.2038e-18)
(1.30606 0.224393 -9.81575e-19)
(-0.0413884 0.0124587 8.14373e-19)
(-0.0867551 -0.000236295 -1.67761e-18)
(0.107158 -0.00943039 1.64245e-18)
(0.690137 0.170766 -5.25123e-19)
(1.06131 0.250542 -2.87512e-19)
(1.25206 0.288294 -8.10249e-19)
(1.33085 0.298754 1.28878e-18)
(1.35332 0.294382 8.15655e-19)
(1.35208 0.284595 -4.80206e-19)
(1.34363 0.273955 -1.3264e-18)
(1.33317 0.264519 -4.6711e-19)
(1.32346 0.2539 2.14302e-18)
(1.31458 0.248584 1.26577e-18)
(1.30747 0.234206 1.19682e-18)
(1.29842 0.228542 -3.4805e-19)
(-0.0444126 0.0203119 -5.09341e-19)
(-0.0832285 -0.0181359 1.81825e-19)
(0.23841 0.0430813 -6.79496e-19)
(0.80346 0.197723 -2.26369e-20)
(1.12848 0.267891 -5.28567e-19)
(1.2812 0.298806 -7.82318e-19)
(1.33824 0.305794 2.7798e-19)
(1.35102 0.300723 -1.60582e-18)
(1.34723 0.291006 1.39792e-18)
(1.33785 0.280255 1.74339e-18)
(1.32767 0.270437 2.08413e-19)
(1.31862 0.259356 -1.84776e-18)
(1.30854 0.252973 -1.72938e-18)
(1.30137 0.238069 -1.25483e-18)
(1.29384 0.233179 4.76533e-19)
(-0.0489564 0.0248722 -1.64622e-18)
(-0.0613555 -0.0319714 4.49775e-19)
(0.390524 0.0935089 -3.26975e-19)
(0.902381 0.220209 1.10013e-20)
(1.18158 0.283454 -1.36063e-19)
(1.30238 0.308717 -2.9372e-19)
(1.34235 0.312667 5.55356e-19)
(1.34847 0.306513 -3.04573e-19)
(1.34228 0.296644 -3.99853e-19)
(1.33282 0.28598 -7.57447e-19)
(1.32262 0.27567 -6.60623e-19)
(1.31281 0.26457 -2.94211e-19)
(1.3035 0.25752 1.07416e-18)
(1.29629 0.241879 -3.92897e-20)
(1.28665 0.237577 7.72987e-19)
(-0.055003 0.021768 6.83625e-19)
(-0.0208063 -0.0344194 1.15834e-18)
(0.534461 0.133762 1.9046e-19)
(0.987876 0.24169 7.0812e-19)
(1.22306 0.297398 1.52331e-18)
(1.31733 0.31775 5.5759e-19)
(1.34397 0.319176 2.03286e-18)
(1.34439 0.312459 1.06027e-18)
(1.33675 0.302682 6.56119e-19)
(1.32672 0.29195 1.47912e-18)
(1.31653 0.281407 4.49174e-19)
(1.30729 0.270034 7.96617e-19)
(1.29732 0.261972 3.86241e-19)
(1.28967 0.24611 1.71602e-19)
(1.28117 0.242365 5.3432e-19)
(-0.0624333 0.00837358 9.61514e-19)
(0.0373789 -0.0264253 -1.6388e-18)
(0.655876 0.167815 -3.28929e-19)
(1.06203 0.263475 7.32815e-19)
(1.25624 0.310739 -1.53383e-18)
(1.32729 0.326345 -6.19939e-19)
(1.34347 0.325808 -1.24922e-18)
(1.34032 0.318429 -3.7981e-20)
(1.33137 0.308462 -3.26877e-19)
(1.32125 0.297688 -1.23926e-18)
(1.31108 0.286739 9.2204e-19)
(1.30115 0.275248 6.76389e-20)
(1.29155 0.266546 -3.8259e-20)
(1.28412 0.250366 2.97659e-19)
(1.27426 0.24685 -6.56965e-19)
(-0.0698564 -0.0136552 -5.89852e-20)
(0.120356 -0.00490103 6.95959e-19)
(0.759468 0.197338 1.98776e-19)
(1.12311 0.284463 -1.03406e-18)
(1.28195 0.32371 6.76106e-19)
(1.33368 0.334738 2.12282e-19)
(1.34171 0.332367 -5.53898e-19)
(1.33536 0.324566 -2.59156e-19)
(1.32553 0.314569 -7.75099e-19)
(1.31495 0.303623 1.33748e-19)
(1.30459 0.292437 -8.89506e-19)
(1.29505 0.280709 -6.11256e-19)
(1.28512 0.271109 1.57099e-19)
(1.27717 0.254888 1.55754e-19)
(1.2681 0.251563 -2.66798e-19)
(-0.0753269 -0.038266 -3.61999e-19)
(0.223254 0.0278419 -2.15384e-19)
(0.848792 0.222543 5.15668e-19)
(1.17368 0.304555 8.92286e-19)
(1.30198 0.336614 1.69069e-19)
(1.33741 0.343331 -4.59419e-19)
(1.33873 0.33931 5.72278e-19)
(1.33034 0.33097 4.92335e-19)
(1.31974 0.320697 2.52631e-19)
(1.30903 0.309556 4.67273e-20)
(1.29868 0.297959 2.84272e-19)
(1.28857 0.285989 1.22777e-19)
(1.27876 0.275771 -8.12871e-20)
(1.2711 0.259438 -1.01283e-19)
(1.26131 0.255974 8.51207e-20)
(-0.07516 -0.0571125 -1.70887e-19)
(0.338717 0.0659418 -1.911e-19)
(0.92679 0.24524 1.53439e-19)
(1.21371 0.322969 -2.12822e-19)
(1.3163 0.349209 -4.4274e-19)
(1.33892 0.352224 3.35896e-20)
(1.33519 0.346536 2.64135e-19)
(1.3248 0.337591 -2.35323e-19)
(1.31355 0.327066 1.53773e-19)
(1.30244 0.315613 3.03889e-19)
(1.2918 0.303713 4.79713e-20)
(1.28192 0.291462 1.14843e-19)
(1.27201 0.280454 -1.34505e-19)
(1.26391 0.264121 8.84002e-20)
(1.2547 0.260459 -6.2721e-20)
(-0.0675377 -0.0637797 -5.51091e-20)
(0.455472 0.106252 -2.0507e-20)
(0.995673 0.267824 -2.77255e-19)
(1.24556 0.340301 3.17642e-20)
(1.32625 0.361619 -1.57904e-20)
(1.33862 0.36147 2.18682e-19)