/*--------------------------------*- C++ -*----------------------------------*\
  =========                 |
  \\      /  F ield         | OpenFOAM: The Open Source CFD Toolbox
   \\    /   O peration     | Website:  https://openfoam.org
    \\  /    A nd           | Version:  7
     \\/     M anipulation  |
\*---------------------------------------------------------------------------*/
FoamFile
{
    version     2.0;
    format      ascii;
    class       volScalarField;
    location    "29.0004";
    object      p;
}
// * * * * * * * * * * * * * * * * * * * * * * * * * * * * * * * * * * * * * //

dimensions      [0 2 -2 0 0 0 0];

internalField   nonuniform List<scalar> 
18750
(
-0.0160622
-0.0249
-0.0402718
-0.0630577
-0.0918867
-0.126203
-0.16521
-0.208266
-0.254684
-0.303869
-0.355214
-0.408059
-0.461608
-0.514969
-0.567352
-0.0205635
-0.0291209
-0.0442459
-0.0668268
-0.0954928
-0.129681
-0.168588
-0.211559
-0.257894
-0.306993
-0.358255
-0.411029
-0.464491
-0.517694
-0.569801
-0.0283425
-0.0364023
-0.051076
-0.0732733
-0.101626
-0.135562
-0.174264
-0.217061
-0.263231
-0.312161
-0.363258
-0.415886
-0.46919
-0.522125
-0.573786
-0.0391129
-0.0464835
-0.0605169
-0.0821638
-0.11006
-0.14362
-0.182011
-0.224537
-0.270448
-0.31911
-0.369938
-0.422316
-0.475365
-0.527933
-0.579028
-0.0524783
-0.0590004
-0.0722262
-0.0931762
-0.120485
-0.153549
-0.191521
-0.233674
-0.279222
-0.327507
-0.377942
-0.429937
-0.482612
-0.534725
-0.585182
-0.0679576
-0.0734968
-0.0857809
-0.105918
-0.132527
-0.164987
-0.202431
-0.244104
-0.289184
-0.336973
-0.38688
-0.438342
-0.490506
-0.542083
-0.591872
-0.0850214
-0.0894351
-0.1007
-0.119948
-0.145769
-0.177529
-0.214344
-0.255434
-0.299937
-0.347116
-0.396361
-0.447136
-0.498649
-0.549613
-0.598738
-0.103075
-0.106252
-0.116479
-0.134802
-0.159775
-0.190758
-0.226855
-0.267263
-0.311089
-0.357552
-0.406014
-0.455964
-0.506687
-0.556967
-0.605457
-0.121481
-0.123384
-0.132613
-0.150014
-0.174105
-0.204256
-0.239564
-0.279206
-0.322265
-0.367923
-0.415506
-0.464514
-0.514329
-0.563857
-0.611751
-0.139603
-0.140277
-0.148619
-0.165134
-0.188338
-0.217628
-0.252094
-0.290903
-0.333123
-0.377906
-0.424539
-0.472525
-0.521335
-0.570048
-0.617389
-0.15684
-0.156425
-0.164056
-0.179745
-0.202084
-0.230508
-0.264103
-0.302032
-0.343358
-0.387215
-0.432859
-0.479778
-0.527518
-0.575353
-0.622173
-0.172641
-0.171404
-0.178525
-0.193467
-0.214993
-0.242572
-0.27529
-0.312311
-0.352707
-0.395606
-0.440245
-0.48609
-0.532729
-0.579626
-0.625934
-0.186543
-0.184916
-0.191678
-0.205973
-0.226765
-0.253543
-0.285394
-0.321501
-0.360947
-0.402872
-0.446508
-0.491301
-0.536848
-0.582752
-0.62851
-0.19821
-0.196734
-0.203203
-0.216993
-0.237158
-0.26319
-0.2942
-0.329403
-0.367897
-0.408843
-0.451483
-0.495265
-0.539774
-0.584658
-0.629733
-0.207618
-0.206538
-0.212864
-0.226327
-0.245985
-0.271337
-0.301539
-0.335859
-0.373407
-0.413379
-0.455038
-0.497845
-0.541405
-0.58531
-0.629414
-0.214777
-0.214171
-0.2206
-0.233851
-0.253118
-0.277851
-0.307285
-0.340748
-0.377361
-0.416372
-0.457063
-0.498918
-0.541608
-0.584673
-0.627522
-0.219783
-0.219685
-0.226378
-0.239569
-0.258482
-0.282652
-0.311359
-0.34398
-0.379668
-0.41773
-0.457474
-0.498391
-0.54024
-0.582615
-0.62425
-0.222886
-0.223274
-0.230241
-0.243444
-0.262079
-0.28573
-0.313739
-0.345499
-0.380262
-0.417382
-0.456199
-0.496209
-0.537207
-0.578955
-0.619663
-0.224476
-0.22521
-0.232311
-0.245507
-0.263909
-0.287066
-0.31438
-0.345276
-0.379113
-0.415284
-0.45319
-0.492306
-0.532441
-0.573688
-0.61355
-0.225019
-0.225783
-0.232752
-0.245857
-0.264023
-0.286681
-0.313283
-0.343311
-0.376201
-0.4114
-0.448398
-0.486655
-0.525864
-0.566771
-0.605739
-0.22494
-0.225236
-0.231739
-0.244637
-0.262519
-0.284639
-0.310488
-0.339618
-0.371524
-0.4057
-0.441762
-0.479237
-0.517408
-0.558114
-0.596166
-0.224485
-0.223691
-0.229459
-0.24203
-0.25953
-0.281038
-0.306071
-0.334237
-0.365097
-0.39818
-0.433212
-0.470026
-0.507025
-0.547626
-0.584808
-0.223626
-0.221146
-0.226148
-0.23825
-0.255207
-0.275998
-0.30013
-0.32723
-0.35695
-0.38887
-0.422679
-0.458982
-0.494691
-0.535252
-0.571632
-0.22212
-0.217638
-0.22213
-0.233534
-0.249718
-0.269662
-0.292788
-0.318684
-0.347116
-0.377837
-0.410122
-0.44604
-0.480381
-0.520975
-0.556645
-0.219758
-0.213558
-0.217794
-0.228125
-0.243263
-0.262207
-0.284196
-0.308727
-0.33562
-0.36516
-0.395555
-0.43113
-0.464074
-0.504732
-0.539972
-0.216568
-0.209729
-0.213477
-0.222283
-0.236102
-0.253865
-0.274525
-0.297529
-0.322511
-0.350872
-0.379076
-0.414179
-0.445798
-0.48635
-0.521695
-0.212851
-0.206862
-0.20935
-0.216322
-0.228591
-0.24493
-0.263974
-0.285298
-0.307886
-0.33497
-0.360843
-0.395119
-0.425775
-0.4657
-0.501773
-0.209214
-0.204965
-0.20551
-0.210662
-0.221161
-0.235776
-0.252771
-0.272236
-0.291986
-0.317381
-0.341094
-0.373742
-0.404382
-0.44287
-0.480264
-0.206113
-0.203499
-0.202245
-0.205814
-0.214273
-0.226833
-0.24125
-0.258508
-0.275149
-0.298102
-0.320145
-0.34989
-0.381654
-0.417944
-0.457704
-0.20372
-0.202081
-0.199993
-0.202151
-0.208351
-0.218577
-0.229851
-0.244318
-0.257829
-0.277109
-0.298502
-0.323643
-0.357726
-0.389925
-0.43579
-0.201963
-0.200698
-0.198832
-0.199717
-0.203734
-0.211453
-0.219212
-0.229871
-0.240555
-0.254738
-0.276216
-0.296092
-0.332264
-0.359999
-0.406905
-0.200699
-0.199595
-0.198295
-0.198368
-0.200653
-0.205788
-0.209984
-0.21581
-0.223513
-0.231996
-0.252845
-0.269019
-0.30443
-0.332229
-0.375787
-0.199752
-0.198825
-0.198004
-0.197918
-0.19912
-0.20179
-0.202587
-0.202951
-0.207161
-0.209696
-0.22946
-0.242499
-0.279428
-0.304392
-0.350428
-0.19899
-0.198289
-0.197902
-0.198095
-0.198827
-0.199441
-0.197144
-0.192132
-0.192053
-0.189365
-0.206014
-0.21859
-0.255331
-0.280907
-0.330566
-0.198269
-0.197848
-0.197936
-0.198571
-0.199218
-0.198418
-0.193334
-0.184133
-0.178454
-0.17256
-0.18274
-0.198054
-0.230116
-0.262086
-0.311699
-0.197459
-0.197368
-0.197945
-0.199044
-0.199722
-0.198147
-0.190675
-0.178914
-0.167292
-0.159324
-0.164282
-0.181022
-0.209724
-0.247993
-0.291256
-0.196466
-0.196729
-0.197736
-0.199218
-0.199924
-0.197983
-0.188824
-0.175698
-0.159392
-0.149395
-0.152035
-0.169035
-0.195491
-0.236948
-0.274993
-0.195246
-0.19585
-0.197162
-0.198897
-0.199566
-0.197451
-0.187473
-0.173506
-0.154809
-0.14302
-0.144693
-0.162381
-0.187159
-0.226631
-0.263905
-0.193829
-0.194722
-0.196181
-0.198004
-0.198642
-0.196223
-0.186438
-0.171899
-0.153114
-0.140922
-0.141671
-0.159111
-0.183384
-0.218735
-0.255385
-0.192326
-0.193416
-0.194862
-0.196609
-0.19714
-0.194665
-0.185842
-0.171338
-0.153705
-0.142556
-0.143009
-0.158677
-0.182334
-0.213568
-0.248033
-0.190939
-0.192127
-0.193444
-0.194974
-0.195482
-0.193477
-0.186695
-0.173472
-0.15645
-0.14711
-0.147578
-0.160904
-0.182729
-0.210235
-0.241579
-0.1899
-0.191117
-0.192288
-0.193724
-0.194379
-0.193286
-0.18946
-0.178348
-0.161634
-0.153067
-0.153644
-0.16473
-0.183885
-0.207992
-0.23581
-0.189393
-0.190603
-0.191712
-0.193185
-0.194204
-0.194199
-0.193281
-0.183134
-0.168109
-0.159529
-0.159877
-0.169028
-0.185397
-0.206196
-0.230549
-0.189483
-0.190661
-0.191779
-0.193378
-0.194887
-0.195961
-0.195478
-0.187612
-0.174249
-0.165893
-0.165729
-0.173128
-0.186836
-0.204527
-0.225679
-0.190095
-0.191214
-0.192365
-0.194069
-0.19593
-0.198174
-0.195549
-0.19058
-0.179295
-0.171604
-0.170859
-0.176614
-0.187952
-0.202814
-0.221044
-0.191079
-0.192096
-0.193232
-0.19493
-0.197072
-0.199357
-0.195976
-0.191819
-0.182883
-0.176249
-0.175054
-0.179367
-0.188595
-0.200914
-0.216567
-0.192258
-0.193131
-0.194146
-0.195637
-0.198489
-0.197977
-0.196699
-0.192328
-0.185157
-0.179665
-0.178221
-0.18132
-0.18869
-0.198792
-0.212162
-0.193489
-0.194185
-0.194947
-0.196151
-0.19975
-0.196842
-0.196581
-0.192371
-0.186418
-0.181889
-0.180328
-0.182476
-0.188242
-0.196403
-0.207769
-0.19468
-0.195191
-0.195496
-0.197079
-0.198311
-0.197268
-0.195994
-0.191987
-0.186922
-0.183085
-0.181462
-0.182864
-0.187244
-0.193747
-0.20335
-0.195796
-0.196116
-0.19581
-0.198375
-0.195226
-0.197276
-0.195341
-0.191341
-0.186847
-0.183441
-0.181734
-0.182531
-0.185736
-0.190827
-0.198858
-0.196867
-0.196848
-0.196321
-0.199026
-0.194309
-0.196346
-0.194375
-0.190482
-0.186324
-0.183123
-0.181282
-0.181555
-0.183743
-0.187641
-0.194273
-0.197957
-0.197426
-0.197667
-0.197129
-0.196007
-0.195662
-0.193234
-0.189423
-0.185433
-0.182265
-0.180227
-0.180005
-0.18131
-0.184202
-0.189561
-0.199118
-0.197905
-0.19994
-0.193622
-0.196822
-0.195289
-0.192111
-0.188189
-0.184222
-0.18096
-0.178668
-0.177963
-0.178482
-0.180505
-0.184702
-0.200325
-0.198722
-0.201764
-0.192809
-0.196213
-0.194665
-0.191038
-0.186851
-0.182744
-0.179281
-0.176685
-0.175492
-0.175303
-0.176565
-0.179681
-0.201576
-0.200536
-0.201628
-0.196369
-0.196192
-0.193893
-0.189899
-0.185389
-0.181027
-0.177277
-0.174334
-0.172651
-0.171817
-0.172387
-0.17449
-0.202935
-0.203664
-0.199488
-0.200433
-0.19726
-0.193283
-0.188681
-0.183795
-0.179096
-0.17499
-0.171661
-0.169481
-0.16805
-0.167987
-0.169143
-0.204438
-0.20767
-0.196799
-0.201903
-0.198205
-0.192913
-0.187484
-0.182079
-0.176962
-0.172443
-0.168693
-0.166014
-0.164026
-0.163372
-0.163656
-0.206327
-0.211144
-0.19744
-0.201485
-0.198394
-0.192532
-0.186307
-0.180268
-0.174642
-0.169654
-0.165453
-0.16227
-0.159758
-0.158553
-0.158058
-0.208974
-0.213068
-0.202619
-0.201812
-0.198102
-0.191922
-0.185057
-0.178348
-0.172139
-0.166633
-0.161952
-0.158265
-0.155256
-0.153538
-0.152364
-0.212717
-0.213258
-0.209818
-0.204109
-0.198075
-0.191109
-0.183626
-0.176267
-0.169443
-0.16338
-0.158197
-0.154005
-0.150524
-0.148333
-0.146581
-0.217898
-0.212427
-0.215866
-0.207555
-0.198711
-0.19029
-0.181995
-0.173967
-0.166519
-0.159883
-0.154183
-0.149492
-0.145567
-0.142943
-0.140696
-0.224787
-0.212589
-0.219901
-0.210985
-0.199822
-0.189593
-0.1802
-0.171415
-0.16333
-0.15612
-0.149904
-0.144725
-0.140381
-0.137364
-0.134689
-0.233127
-0.216648
-0.222578
-0.213716
-0.200941
-0.188945
-0.178264
-0.168602
-0.159848
-0.152067
-0.145344
-0.139696
-0.134961
-0.131584
-0.128529
-0.242306
-0.22524
-0.22524
-0.215536
-0.201625
-0.18813
-0.176137
-0.165516
-0.156053
-0.1477
-0.140485
-0.134393
-0.129295
-0.125587
-0.122191
-0.25118
-0.236596
-0.228806
-0.216643
-0.201616
-0.186907
-0.173719
-0.162127
-0.151928
-0.143002
-0.13531
-0.128799
-0.123368
-0.119359
-0.115664
-0.258472
-0.247463
-0.233091
-0.217338
-0.200868
-0.185108
-0.170893
-0.158385
-0.147454
-0.137957
-0.129801
-0.122895
-0.117156
-0.112881
-0.108943
-0.263233
-0.255567
-0.236882
-0.217677
-0.199466
-0.182675
-0.167568
-0.154235
-0.142607
-0.132551
-0.123944
-0.116661
-0.110635
-0.106132
-0.102021
-0.265398
-0.260393
-0.239325
-0.217462
-0.197493
-0.179628
-0.163698
-0.149629
-0.137355
-0.126768
-0.117727
-0.110081
-0.10378
-0.0990796
-0.0948689
-0.265867
-0.262482
-0.240213
-0.216495
-0.194957
-0.176003
-0.159274
-0.144532
-0.131671
-0.12059
-0.111138
-0.103146
-0.0965819
-0.091697
-0.0874186
-0.265678
-0.262701
-0.23967
-0.214664
-0.191818
-0.171813
-0.154297
-0.138925
-0.125531
-0.113999
-0.104166
-0.0958529
-0.0890454
-0.0839776
-0.0795548
-0.265528
-0.261812
-0.237945
-0.211954
-0.188022
-0.167045
-0.148764
-0.132795
-0.118914
-0.106974
-0.0967968
-0.0882013
-0.0811931
-0.0759603
-0.0711426
-0.265715
-0.260279
-0.235262
-0.208388
-0.183527
-0.161669
-0.142662
-0.12613
-0.111804
-0.0995006
-0.0890193
-0.0801898
-0.0730487
-0.0677212
-0.0621082
-0.266211
-0.258326
-0.231789
-0.204004
-0.178302
-0.155647
-0.135968
-0.118913
-0.104187
-0.0915661
-0.0808282
-0.0718204
-0.0646252
-0.0593024
-0.0525506
-0.266768
-0.256027
-0.227619
-0.198824
-0.172315
-0.148939
-0.128649
-0.111123
-0.0960488
-0.0831674
-0.0722301
-0.0631091
-0.0559357
-0.0506028
-0.0428087
-0.267014
-0.253345
-0.222776
-0.192844
-0.165534
-0.141501
-0.120671
-0.10274
-0.0873829
-0.0743099
-0.0632415
-0.0540847
-0.0470023
-0.0413776
-0.0332084
-0.266561
-0.250088
-0.217202
-0.186032
-0.157921
-0.133294
-0.112007
-0.0937521
-0.0781907
-0.065005
-0.0538801
-0.0447803
-0.037784
-0.0316885
-0.0236969
-0.265104
-0.24589
-0.210771
-0.178333
-0.149437
-0.124289
-0.102643
-0.084161
-0.0684847
-0.0552587
-0.0441508
-0.0351711
-0.0282096
-0.0216989
-0.0141724
-0.262339
-0.240461
-0.203331
-0.169678
-0.140049
-0.114473
-0.0925838
-0.0739818
-0.0582777
-0.0450496
-0.0340447
-0.0252263
-0.0182578
-0.0115237
-0.0045672
-0.258027
-0.2336
-0.194738
-0.160001
-0.129736
-0.103856
-0.0818488
-0.0632222
-0.0475287
-0.0343842
-0.0235575
-0.0149279
-0.0079549
-0.00120318
0.00514645
-0.251982
-0.225171
-0.184868
-0.149246
-0.118497
-0.0924613
-0.070431
-0.0518402
-0.0362421
-0.0232719
-0.01269
-0.0042775
0.0026485
0.00927536
0.0149772
-0.244077
-0.215102
-0.173626
-0.13738
-0.10636
-0.0802758
-0.0582921
-0.039833
-0.0244292
-0.0117239
-0.00144944
0.0067118
0.0135232
0.019931
0.0249286
-0.234243
-0.20339
-0.160936
-0.124394
-0.0933205
-0.0672579
-0.045431
-0.0272103
-0.0121043
0.000246519
0.0101512
0.0180231
0.024659
0.0307757
0.0349936
-0.222458
-0.190096
-0.146767
-0.110289
-0.07931
-0.0534135
-0.0318613
-0.0139888
0.000715285
0.0126238
0.0220982
0.0296417
0.036046
0.0418
0.0451408
-0.208733
-0.175282
-0.131178
-0.0949821
-0.0643229
-0.0387604
-0.0176062
-0.000191486
0.0140095
0.0253923
0.0343812
0.0415571
0.0476601
0.0529463
0.0553172
-0.193115
-0.158903
-0.11429
-0.0784736
-0.0483716
-0.0233234
-0.00269515
0.0141537
0.0277554
0.0385384
0.0469966
0.0537623
0.0594591
0.0640986
0.0654214
-0.175693
-0.14074
-0.0962717
-0.0608803
-0.0314968
-0.00713304
0.012838
0.0290145
0.0419284
0.05205
0.0599433
0.0662468
0.0713884
0.0751038
0.0751848
-0.156598
-0.120605
-0.077258
-0.0423413
-0.0137662
0.00977025
0.0289557
0.0443559
0.0565027
0.0659144
0.0732136
0.0789819
0.0833788
0.0857951
0.0841404
-0.135941
-0.0987604
-0.0571177
-0.0229507
0.00473741
0.0273336
0.0456152
0.0601411
0.0714509
0.0801125
0.0867798
0.0919062
0.0953317
0.0960334
0.092134
-0.113728
-0.0756412
-0.0358361
-0.00275491
0.0239346
0.0454943
0.062768
0.076331
0.0867431
0.0946146
0.100585
0.104922
0.107136
0.105904
0.100106
-0.0899058
-0.0516857
-0.0135321
0.0182124
0.0437571
0.0641848
0.0803602
0.0928834
0.102344
0.109377
0.114553
0.117924
0.118747
0.115913
0.109963
-0.0646522
-0.0269876
0.00963417
0.0398903
0.0641398
0.0833371
0.0983337
0.109752
0.118211
0.124343
0.128608
0.130858
0.130264
0.126342
0.123422
-0.0381841
-0.0015493
0.033519
0.0621868
0.0850119
0.102882
0.116628
0.126883
0.13429
0.13945
0.142697
0.14375
0.141901
0.137457
0.136584
-0.0107127
0.0245816
0.0580001
0.0849955
0.106293
0.12275
0.135179
0.14422
0.150521
0.154636
0.156789
0.15666
0.153795
0.149225
0.149103
0.0175744
0.0513136
0.0829644
0.108208
0.127896
0.142864
0.153919
0.1617
0.166844
0.16985
0.17087
0.169615
0.165887
0.161218
0.16105
0.0464982
0.0785234
0.108298
0.131716
0.149727
0.163148
0.17278
0.179257
0.183197
0.18505
0.18493
0.182619
0.178144
0.17327
0.172572
0.075889
0.106075
0.133885
0.155413
0.171693
0.183519
0.191689
0.196825
0.199525
0.200197
0.198942
0.195614
0.19041
0.185185
0.18381
0.10558
0.133827
0.159605
0.179192
0.1937
0.203895
0.21057
0.214338
0.21577
0.215249
0.212877
0.208569
0.202639
0.196929
0.194787
0.135407
0.161638
0.185334
0.202946
0.21565
0.224191
0.22935
0.231729
0.231879
0.230159
0.226677
0.221399
0.214722
0.208463
0.205538
0.165212
0.189368
0.210951
0.226567
0.237451
0.244322
0.247954
0.248933
0.247795
0.244882
0.240306
0.234071
0.226629
0.219754
0.216029
0.194837
0.21688
0.236336
0.249948
0.259006
0.264204
0.266306
0.265885
0.263461
0.259361
0.253698
0.246511
0.238302
0.230799
0.226257
0.22413
0.244041
0.261369
0.272986
0.280223
0.283755
0.284334
0.282521
0.278821
0.273548
0.266816
0.258688
0.249705
0.241542
0.236181
0.252942
0.270719
0.285934
0.295577
0.301011
0.302893
0.301966
0.298776
0.293816
0.287384
0.279597
0.270547
0.260807
0.25198
0.245781
0.28113
0.29679
0.30992
0.31762
0.32128
0.32154
0.319131
0.314589
0.308391
0.300825
0.292007
0.282052
0.271558
0.262057
0.255023
0.308555
0.322133
0.333217
0.339019
0.340944
0.339617
0.335759
0.329896
0.322488
0.313814
0.303994
0.293164
0.281941
0.271762
0.263881
0.335085
0.34663
0.355723
0.35968
0.359918
0.35705
0.351786
0.344639
0.336059
0.32631
0.315517
0.30384
0.291904
0.281053
0.272332
0.360593
0.37017
0.377336
0.379514
0.378124
0.373769
0.367146
0.35876
0.349047
0.338262
0.326538
0.314052
0.301428
0.289905
0.28035
0.384958
0.392647
0.397962
0.398436
0.395486
0.389704
0.38178
0.372207
0.361407
0.349629
0.337013
0.323756
0.310472
0.298291
0.287913
0.408067
0.413963
0.417512
0.416365
0.41193
0.404791
0.395628
0.384924
0.373091
0.360371
0.346913
0.332926
0.319009
0.306183
0.295003
0.429813
0.434022
0.435901
0.433227
0.427389
0.418969
0.408638
0.396866
0.384056
0.370447
0.356196
0.341526
0.327011
0.31356
0.3016
0.450096
0.452739
0.453052
0.44895
0.4418
0.432182
0.420756
0.407986
0.394262
0.379824
0.364835
0.349529
0.33445
0.320398
0.307689
0.468825
0.470032
0.468893
0.463469
0.455105
0.444377
0.431938
0.418241
0.403671
0.388465
0.372797
0.356907
0.341303
0.326678
0.313257
0.485915
0.485831
0.483359
0.476727
0.46725
0.455506
0.442138
0.427594
0.412249
0.396341
0.380055
0.363634
0.347545
0.332382
0.318292
0.501287
0.500072
0.496393
0.488667
0.478187
0.465524
0.451318
0.436008
0.419964
0.403425
0.386585
0.369686
0.353157
0.337494
0.322784
0.514878
0.512698
0.50794
0.499243
0.48787
0.474393
0.459443
0.443454
0.426789
0.409692
0.392362
0.375044
0.358119
0.342
0.326725
0.526647
0.523646
0.517953
0.508409
0.496261
0.482077
0.466482
0.449902
0.4327
0.415118
0.397368
0.379687
0.362416
0.345889
0.330111
0.536557
0.532861
0.526385
0.516128
0.503327
0.488547
0.472408
0.455331
0.437675
0.419686
0.401583
0.383598
0.366033
0.34915
0.332939
0.544572
0.540304
0.533201
0.522367
0.50904
0.493777
0.477199
0.45972
0.441697
0.42338
0.404993
0.386764
0.368957
0.351779
0.33521
0.550656
0.54595
0.538372
0.527103
0.513376
0.497748
0.480836
0.463052
0.444752
0.426186
0.407586
0.389173
0.37118
0.353772
0.336927
0.554782
0.549776
0.54188
0.530316
0.516319
0.500445
0.483308
0.465318
0.446829
0.428096
0.409352
0.390815
0.372695
0.355128
0.338095
0.556933
0.551771
0.54371
0.531994
0.517858
0.501857
0.484603
0.466508
0.447923
0.429104
0.410285
0.391684
0.373499
0.355848
0.338717
0.557099
0.551927
0.543856
0.532132
0.517987
0.501979
0.48472
0.466618
0.448028
0.429204
0.410382
0.391778
0.37359
0.355935
0.338798
0.555279
0.550244
0.542318
0.530728
0.516707
0.500812
0.483656
0.46565
0.447146
0.428399
0.409643
0.391096
0.372967
0.355386
0.338336
0.551484
0.546729
0.539103
0.527789
0.514023
0.498361
0.481417
0.463605
0.445279
0.426691
0.40807
0.38964
0.371631
0.354202
0.337328
0.54573
0.541396
0.534223
0.523328
0.509945
0.494634
0.478012
0.460494
0.442435
0.424086
0.405671
0.387419
0.369588
0.352381
0.335772
0.538046
0.534265
0.527699
0.517363
0.504492
0.489649
0.473454
0.456326
0.438624
0.420594
0.402455
0.384439
0.366844
0.349925
0.333663
0.528465
0.525363
0.519559
0.509918
0.497684
0.483424
0.46776
0.451119
0.43386
0.416228
0.398433
0.380714
0.363407
0.346836
0.330998
0.517027
0.514728
0.509838
0.501026
0.489551
0.475984
0.460954
0.444891
0.428161
0.411003
0.393621
0.376257
0.35929
0.34312
0.327775
0.503769
0.502411
0.49858
0.490724
0.480126
0.467359
0.45306
0.437666
0.421546
0.404938
0.388037
0.371086
0.354507
0.338787
0.323998
0.48873
0.488478
0.485836
0.479056
0.469447
0.457585
0.444112
0.429472
0.414041
0.398056
0.3817
0.365219
0.349075
0.333848
0.319671
0.471974
0.472988
0.47166
0.466071
0.457559
0.4467
0.434143
0.42034
0.405674
0.39038
0.374635
0.358677
0.343012
0.328317
0.314802
0.453577
0.456004
0.456108
0.451823
0.444511
0.434748
0.423192
0.410305
0.396475
0.38194
0.366865
0.351484
0.336338
0.32221
0.309399
0.433625
0.437595
0.439246
0.436372
0.430356
0.421778
0.411304
0.399405
0.386479
0.372764
0.358418
0.343666
0.329078
0.315545
0.303475
0.412209
0.417843
0.421145
0.419782
0.415153
0.407842
0.398525
0.387683
0.375723
0.362889
0.349327
0.33525
0.321253
0.30834
0.297043
0.389429
0.396834
0.401883
0.402123
0.398964
0.392997
0.384907
0.375184
0.364248
0.352347
0.339619
0.326264
0.312893
0.30062
0.290119
0.365392
0.374662
0.381544
0.383471
0.381857
0.377303
0.370502
0.361956
0.352097
0.341179
0.329335
0.316744
0.304026
0.292406
0.282721
0.34021
0.351426
0.360216
0.363906
0.363905
0.360825
0.355371
0.348053
0.339317
0.329426
0.318504
0.306714
0.294679
0.283725
0.274869
0.314005
0.327232
0.337996
0.343512
0.345183
0.343631
0.339571
0.333526
0.325954
0.317128
0.307171
0.296221
0.284891
0.274606
0.266583
0.286902
0.302191
0.314982
0.32238
0.325772
0.325793
0.32317
0.318435
0.312063
0.304337
0.295374
0.28529
0.274684
0.265071
0.257888
0.259035
0.27642
0.291278
0.300602
0.305753
0.307384
0.306231
0.302838
0.297693
0.291093
0.283153
0.273966
0.264107
0.255163
0.248809
0.230541
0.250039
0.266992
0.278275
0.285215
0.288482
0.288824
0.286798
0.282904
0.277453
0.270559
0.262287
0.253178
0.244893
0.239372
0.201564
0.223174
0.242238
0.2555
0.264246
0.269166
0.27102
0.270375
0.267748
0.263461
0.257629
0.25029
0.241949
0.234318
0.229609
0.172252
0.195956
0.217129
0.232378
0.242936
0.249517
0.25289
0.253635
0.252284
0.249177
0.244423
0.238029
0.230447
0.223441
0.219542
0.142757
0.168516
0.191786
0.209015
0.22138
0.229618
0.234507
0.236641
0.23657
0.234647
0.23098
0.225535
0.218712
0.212316
0.209208
0.113236
0.140993
0.166328
0.185517
0.199672
0.209553
0.215946
0.21946
0.220662
0.219929
0.217363
0.212882
0.2068
0.200949
0.198616
0.0838475
0.113525
0.140877
0.161992
0.177906
0.189406
0.197282
0.202155
0.204615
0.205067
0.203612
0.200103
0.194742
0.189372
0.187797
0.0547551
0.0862542
0.115556
0.138546
0.156178
0.16926
0.17859
0.184793
0.188485
0.19011
0.189781
0.187281
0.182645
0.177624
0.176718
0.026125
0.0593211
0.0904841
0.115286
0.134581
0.1492
0.159942
0.167441
0.172328
0.175099
0.175901
0.17445
0.170558
0.165744
0.165361
-0.00187365
0.0328613
0.0657784
0.0923182
0.113211
0.129307
0.141413
0.150164
0.156201
0.160072
0.161999
0.161667
0.158631
0.153922
0.153592
-0.0290623
0.00699766
0.0415522
0.069751
0.0921594
0.109658
0.123071
0.133027
0.140162
0.145072
0.148086
0.148926
0.146901
0.142326
0.141275
-0.0552542
-0.0181788
0.0179184
0.0476922
0.0715128
0.0903282
0.104983
0.116094
0.124275
0.130151
0.134176
0.136205
0.135424
0.131374
0.128339
-0.0802392
-0.0426205
-0.00500043
0.0262476
0.0513517
0.0713879
0.087213
0.0994211
0.108597
0.115368
0.120299
0.123442
0.124066
0.121102
0.115116
-0.103801
-0.0663242
-0.0270607
0.00550804
0.0317464
0.052906
0.0698212
0.0830614
0.0931818
0.100787
0.106509
0.110612
0.112618
0.111241
0.105405
-0.125766
-0.0891934
-0.0481037
-0.0144663
0.012762
0.0349504
0.0528656
0.0670611
0.0780727
0.0864629
0.0928783
0.0977674
0.100976
0.101508
0.0975199
-0.146186
-0.110788
-0.0680133
-0.0336421
-0.00553315
0.0175883
0.0363997
0.0514624
0.0633045
0.0724396
0.0794836
0.0850108
0.0891823
0.0914035
0.0896099
-0.165055
-0.130679
-0.0868084
-0.051972
-0.0230594
0.000882021
0.0204717
0.036304
0.0489071
0.0587466
0.0663803
0.0724386
0.0773462
0.0808466
0.0807581
-0.182258
-0.148604
-0.104623
-0.0693607
-0.0397343
-0.015116
0.00512416
0.0216228
0.0349076
0.0454027
0.0535964
0.0601124
0.0655681
0.069979
0.0711157
-0.197669
-0.164767
-0.121312
-0.0856682
-0.0554913
-0.030366
-0.0096055
0.00745364
0.0213319
0.0324209
0.0411401
0.0480622
0.0539189
0.0589681
0.0611399
-0.2112
-0.179383
-0.136705
-0.10078
-0.0702909
-0.0448374
-0.0236835
-0.00617141
0.00820465
0.0198137
0.0290134
0.0362994
0.0424542
0.0479658
0.0510946
-0.222806
-0.192492
-0.150683
-0.114699
-0.0841211
-0.0585055
-0.0370803
-0.0192243
-0.00445134
0.00759501
0.0172203
0.0248314
0.0312156
0.0370858
0.04108
-0.232477
-0.204029
-0.163191
-0.127509
-0.096987
-0.0713521
-0.0497729
-0.0316824
-0.016616
-0.00421959
0.0057714
0.0136689
0.0202266
0.0263841
0.0311482
-0.240236
-0.213934
-0.174264
-0.139208
-0.108959
-0.0833716
-0.0617477
-0.0435288
-0.0282722
-0.0156145
-0.00531971
0.00282626
0.00949692
0.0158698
0.0213292
-0.246155
-0.222213
-0.183977
-0.149803
-0.120038
-0.0946074
-0.0730063
-0.0547537
-0.039406
-0.026576
-0.0160404
-0.00768018
-0.000963117
0.00553119
0.0116294
-0.250361
-0.228939
-0.192427
-0.159329
-0.130196
-0.105069
-0.0835884
-0.0653603
-0.0500057
-0.037093
-0.0263836
-0.0178376
-0.0111243
-0.00465003
0.00204445
-0.253041
-0.234251
-0.199737
-0.16784
-0.139434
-0.114734
-0.0934983
-0.0753926
-0.0600655
-0.0471565
-0.0363489
-0.0276452
-0.0209365
-0.0146854
-0.00743455
-0.254436
-0.238351
-0.206048
-0.175403
-0.147773
-0.123592
-0.102717
-0.0848395
-0.0696265
-0.0567623
-0.0459403
-0.0371208
-0.030375
-0.0245333
-0.0168358
-0.254847
-0.241529
-0.21151
-0.182085
-0.155248
-0.131658
-0.111239
-0.0936862
-0.0786773
-0.0659294
-0.0551664
-0.0462941
-0.0394631
-0.0340796
-0.0262257
-0.254579
-0.244143
-0.216245
-0.187937
-0.161895
-0.13896
-0.11908
-0.101931
-0.0872059
-0.0746512
-0.064021
-0.0551874
-0.0482738
-0.0431663
-0.0357016
-0.254015
-0.246372
-0.220303
-0.192992
-0.167752
-0.145538
-0.126266
-0.109587
-0.0952103
-0.0829168
-0.0724866
-0.0637686
-0.0568408
-0.0517492
-0.0453038
-0.253519
-0.248243
-0.223658
-0.19725
-0.172852
-0.151433
-0.132833
-0.116675
-0.102698
-0.0907209
-0.0805475
-0.0720094
-0.0651418
-0.0600577
-0.0547119
-0.253322
-0.249675
-0.226213
-0.20069
-0.177226
-0.156688
-0.138811
-0.123214
-0.109681
-0.0980676
-0.088198
-0.0798948
-0.0731638
-0.068183
-0.0636037
-0.253434
-0.250435
-0.227801
-0.203276
-0.180906
-0.16134
-0.144223
-0.12922
-0.116174
-0.104968
-0.0954434
-0.0874226
-0.0808939
-0.0760824
-0.071888
-0.253538
-0.250047
-0.228195
-0.204987
-0.183935
-0.165416
-0.149082
-0.134708
-0.122194
-0.11144
-0.102296
-0.0945943
-0.0883092
-0.0836833
-0.0796377
-0.25292
-0.247751
-0.227158
-0.205845
-0.186367
-0.168929
-0.15339
-0.139689
-0.127762
-0.117501
-0.108767
-0.101411
-0.095389
-0.0909498
-0.0869819
-0.250543
-0.242698
-0.224587
-0.20597
-0.18824
-0.171864
-0.157146
-0.144184
-0.132902
-0.123171
-0.11487
-0.107876
-0.102128
-0.0978893
-0.094031
-0.245598
-0.234409
-0.22073
-0.205565
-0.18954
-0.174186
-0.160363
-0.148227
-0.137642
-0.128467
-0.120615
-0.113998
-0.108537
-0.10453
-0.100851
-0.238207
-0.223521
-0.216492
-0.204811
-0.190183
-0.17588
-0.163091
-0.151869
-0.142011
-0.133404
-0.126014
-0.119793
-0.114641
-0.110901
-0.10747
-0.229348
-0.212404
-0.21301
-0.203626
-0.190091
-0.177014
-0.165421
-0.155164
-0.146034
-0.137997
-0.131083
-0.125281
-0.120463
-0.117026
-0.113897
-0.22029
-0.204227
-0.210371
-0.20171
-0.189327
-0.177759
-0.16747
-0.15816
-0.149731
-0.142261
-0.135838
-0.130479
-0.126025
-0.122921
-0.120136
-0.212126
-0.200541
-0.207612
-0.198896
-0.188162
-0.178358
-0.169334
-0.160884
-0.153116
-0.146214
-0.140296
-0.135406
-0.131344
-0.128601
-0.126199
-0.205423
-0.200549
-0.203431
-0.195434
-0.187045
-0.179014
-0.171056
-0.163347
-0.156211
-0.149879
-0.144475
-0.140072
-0.136429
-0.134082
-0.132113
-0.200407
-0.201278
-0.197293
-0.192039
-0.186427
-0.179785
-0.17261
-0.165561
-0.159044
-0.15328
-0.14839
-0.144485
-0.141287
-0.139374
-0.137904
-0.196783
-0.200944
-0.190175
-0.189892
-0.186455
-0.180532
-0.173964
-0.167562
-0.161653
-0.156439
-0.152047
-0.148646
-0.145919
-0.144481
-0.143594
-0.194222
-0.19889
-0.185388
-0.189661
-0.186681
-0.181069
-0.175145
-0.169404
-0.164068
-0.159368
-0.155451
-0.152552
-0.150322
-0.149397
-0.149194
-0.192386
-0.195358
-0.185119
-0.189964
-0.18639
-0.181394
-0.176263
-0.17114
-0.166302
-0.162062
-0.158592
-0.156195
-0.15449
-0.154118
-0.154696
-0.19091
-0.191423
-0.187854
-0.188234
-0.185383
-0.181735
-0.177402
-0.172777
-0.168347
-0.164515
-0.161461
-0.159561
-0.158413
-0.158632
-0.160086
-0.189567
-0.188439
-0.189808
-0.184084
-0.184368
-0.182321
-0.178552
-0.17429
-0.170187
-0.166706
-0.164035
-0.162629
-0.162078
-0.162932
-0.165333
-0.18833
-0.186757
-0.189738
-0.180903
-0.184472
-0.183041
-0.179617
-0.175668
-0.171814
-0.168613
-0.166284
-0.165365
-0.165461
-0.167007
-0.170422
-0.187137
-0.186009
-0.187805
-0.182085
-0.184985
-0.183595
-0.180626
-0.176927
-0.1732
-0.170193
-0.168163
-0.167729
-0.168534
-0.170844
-0.17534
-0.185997
-0.185524
-0.185658
-0.185506
-0.184023
-0.183922
-0.181686
-0.178079
-0.174318
-0.171395
-0.169614
-0.16966
-0.171251
-0.174435
-0.180093
-0.184926
-0.184935
-0.18442
-0.187165
-0.182457
-0.184602
-0.182757
-0.179055
-0.175114
-0.172147
-0.170558
-0.171096
-0.173571
-0.177766
-0.184698
-0.183866
-0.184188
-0.183964
-0.186362
-0.183641
-0.185434
-0.183642
-0.179836
-0.175541
-0.172356
-0.170894
-0.171954
-0.175448
-0.180841
-0.189174
-0.182757
-0.183271
-0.183639
-0.18511
-0.186667
-0.185313
-0.184239
-0.180405
-0.175518
-0.171885
-0.170502
-0.172168
-0.176837
-0.183646
-0.193554
-0.181575
-0.182275
-0.183064
-0.184264
-0.187773
-0.184997
-0.184776
-0.180708
-0.174914
-0.170572
-0.169247
-0.171658
-0.177711
-0.186184
-0.197858
-0.180359
-0.181235
-0.182255
-0.18375
-0.186446
-0.186252
-0.184775
-0.180583
-0.173553
-0.168232
-0.167021
-0.170383
-0.178034
-0.18845
-0.202135
-0.179204
-0.180222
-0.181351
-0.183028
-0.185088
-0.187428
-0.184013
-0.180024
-0.171179
-0.164714
-0.163747
-0.168312
-0.177811
-0.190445
-0.206419
-0.178258
-0.179373
-0.180511
-0.182187
-0.183987
-0.186053
-0.183703
-0.178678
-0.167499
-0.159998
-0.159468
-0.165449
-0.177038
-0.192215
-0.210775
-0.177691
-0.178864
-0.17997
-0.181541
-0.182981
-0.183921
-0.183592
-0.175615
-0.162415
-0.154277
-0.154279
-0.16186
-0.175802
-0.193797
-0.215284
-0.177649
-0.178853
-0.179958
-0.181411
-0.182382
-0.182284
-0.181169
-0.171214
-0.156326
-0.147977
-0.148408
-0.157684
-0.174252
-0.195341
-0.220027
-0.178193
-0.179403
-0.180579
-0.18201
-0.182648
-0.181501
-0.177485
-0.166539
-0.150039
-0.141654
-0.142194
-0.153364
-0.172658
-0.197017
-0.22516
-0.179247
-0.180423
-0.181747
-0.183289
-0.183808
-0.181811
-0.174991
-0.161987
-0.14523
-0.135884
-0.136227
-0.1496
-0.171442
-0.199178
-0.230795
-0.18062
-0.181688
-0.183134
-0.184883
-0.185448
-0.183061
-0.174376
-0.160242
-0.142871
-0.131607
-0.13191
-0.147561
-0.17101
-0.202482
-0.237121
-0.18208
-0.182942
-0.184389
-0.186199
-0.186865
-0.18459
-0.175069