/*--------------------------------*- C++ -*----------------------------------*\
  =========                 |
  \\      /  F ield         | OpenFOAM: The Open Source CFD Toolbox
   \\    /   O peration     | Website:  https://openfoam.org
    \\  /    A nd           | Version:  7
     \\/     M anipulation  |
\*---------------------------------------------------------------------------*/
FoamFile
{
    version     2.0;
    format      ascii;
    class       surfaceScalarField;
    location    "29.0004";
    object      phi;
}
// * * * * * * * * * * * * * * * * * * * * * * * * * * * * * * * * * * * * * //

dimensions      [0 3 -1 0 0 0 0];

internalField   nonuniform List<scalar> 
37105
(
-1.03835e-05
1.31259e-05
-2.7424e-06
-2.43998e-05
1.74796e-05
-3.46325e-06
-3.89688e-05
1.79132e-05
-3.34421e-06
-5.42018e-05
1.84258e-05
-3.19286e-06
-7.0208e-05
1.90082e-05
-3.00195e-06
-8.70584e-05
1.9617e-05
-2.76655e-06
-0.000104813
2.02395e-05
-2.48531e-06
-0.000123504
2.08489e-05
-2.15721e-06
-0.000143162
2.14425e-05
-1.78491e-06
-0.000163805
2.20157e-05
-1.37236e-06
-0.000185456
2.25754e-05
-9.24662e-07
-0.00020812
2.31063e-05
-4.4199e-07
-0.000231782
2.35913e-05
7.02278e-08
-0.000256419
2.40331e-05
6.03521e-07
2.45153e-05
1.14338e-06
-0.000282077
-1.02058e-05
2.33317e-05
-2.40511e-05
3.13248e-05
-3.84528e-05
3.23149e-05
-5.35011e-05
3.34742e-05
-6.93002e-05
3.48072e-05
-8.59129e-05
3.62297e-05
-0.00010339
3.7717e-05
-0.000121757
3.92159e-05
-0.000141031
4.07166e-05
-0.00016122
4.22046e-05
-0.000182334
4.36886e-05
-0.000204369
4.5142e-05
-0.00022731
4.65325e-05
-0.000251131
4.78535e-05
4.92483e-05
-0.000275864
-9.87667e-06
3.32084e-05
-2.34044e-05
4.48526e-05
-3.74967e-05
4.64072e-05
-5.22051e-05
4.81826e-05
-6.76247e-05
5.02268e-05
-8.3804e-05
5.2409e-05
-0.000100779
5.46922e-05
-0.000118559
5.69957e-05
-0.000137143
5.93005e-05
-0.000156517
6.15791e-05
-0.000176672
6.38429e-05
-0.00019759
6.60603e-05
-0.000219254
6.81963e-05
-0.000241633
7.02327e-05
7.23266e-05
-0.000264711
-9.4019e-06
4.26103e-05
-2.2471e-05
5.79216e-05
-3.61175e-05
6.00537e-05
-5.03404e-05
6.24055e-05
-6.52217e-05
6.51081e-05
-8.07906e-05
6.79779e-05
-9.70637e-05
7.09654e-05
-0.00011403
7.39616e-05
-0.000131666
7.69366e-05
-0.000149934
7.98474e-05
-0.0001688
8.27088e-05
-0.000188233
8.54933e-05
-0.000208213
8.8176e-05
-0.000228705
9.07248e-05
9.32778e-05
-0.000249656
-8.79266e-06
5.1403e-05
-2.12657e-05
7.03946e-05
-3.43378e-05
7.31258e-05
-4.79429e-05
7.60107e-05
-6.2145e-05
7.93101e-05
-7.69505e-05
8.27833e-05
-9.2354e-05
8.63689e-05
-0.000108322
8.993e-05
-0.000124811
9.3425e-05
-0.000141758
9.67946e-05
-0.000159108
0.000100058
-0.000176817
0.000103202
-0.000194866
0.000106225
-0.000213226
0.000109085
0.000111872
-0.00023182
-8.07541e-06
5.94784e-05
-1.98049e-05
8.21242e-05
-3.21845e-05
8.55054e-05
-4.50559e-05
8.88821e-05
-5.84584e-05
9.27126e-05
-7.23741e-05
9.66991e-05
-8.67752e-05
0.00010077
-0.000101608
0.000104763
-0.000116807
0.000108625
-0.000132294
0.000112282
-0.000147996
0.00011576
-0.00016386
0.000119066
-0.000179873
0.000122238
-0.000196024
0.000125236
0.00012809
-0.000212241
-7.22245e-06
6.67008e-05
-1.80963e-05
9.2998e-05
-2.96864e-05
9.70955e-05
-4.17269e-05
0.000100923
-5.42309e-05
0.000105217
-6.71576e-05
0.000109626
-8.04575e-05
0.00011407
-9.40588e-05
0.000118364
-0.000107882
0.000122448
-0.000121834
0.000126234
-0.000135834
0.000129759
-0.000149825
0.000133057
-0.000163803
0.000136216
-0.000177784
0.000139217
0.00014203
-0.000191725
-6.23845e-06
7.29393e-05
-1.61536e-05
0.000102913
-2.6874e-05
0.000107816
-3.80056e-05
0.000112054
-4.95338e-05
0.000116745
-6.13977e-05
0.00012149
-7.35293e-05
0.000126202
-8.58416e-05
0.000130676
-9.82443e-05
0.00013485
-0.00011064
0.00013863
-0.000122942
0.000142062
-0.000135095
0.00014521
-0.000147104
0.000148225
-0.000159015
0.000151129
0.000153844
-0.000170829
-5.13851e-06
7.80778e-05
-1.39946e-05
0.000111769
-2.37798e-05
0.000117601
-3.39423e-05
0.000122217
-4.44366e-05
0.000127239
-5.51874e-05
0.00013224
-6.61106e-05
0.000137125
-7.71073e-05
0.000141673
-8.80801e-05
0.000145823
-9.89318e-05
0.000149482
-0.000109578
0.000152708
-0.000119965
0.000155596
-0.000130099
0.00015836
-0.000140057
0.000161087
0.000163669
-0.000149883
-3.93301e-06
8.20108e-05
-1.16399e-05
0.000119476
-2.04385e-05
0.0001264
-2.95859e-05
0.000131364
-3.9006e-05
0.000136659
-4.86134e-05
0.000141848
-5.83104e-05
0.000146822
-6.79886e-05
0.000151351
-7.75469e-05
0.000155381
-8.6891e-05
0.000158826
-9.59431e-05
0.00016176
-0.000104649
0.000164302
-0.000113011
0.000166722
-0.000121116
0.000169191
0.000171605
-0.000129052
-2.62678e-06
8.46376e-05
-9.11333e-06
0.000125963
-1.6884e-05
0.00013417
-2.4983e-05
0.000139463
-3.33041e-05
0.00014498
-4.17543e-05
0.000150298
-5.02246e-05
0.000155292
-5.85993e-05
0.000159726
-6.67745e-05
0.000163556
-7.46591e-05
0.00016671
-8.21834e-05
0.000169285
-8.92949e-05
0.000171414
-9.59784e-05
0.000173406
-0.000102303
0.000175516
0.000177708
-0.000108406
-1.2103e-06
8.58479e-05
-6.44847e-06
0.000131201
-1.31502e-05
0.000140872
-2.01763e-05
0.000146489
-2.73876e-05
0.000152192
-3.4681e-05
0.000157591
-4.19365e-05
0.000162548
-4.90342e-05
0.000166823
-5.58677e-05
0.00017039
-6.23465e-05
0.000173189
-6.8407e-05
0.000175345
-7.40028e-05
0.000177009
-7.90927e-05
0.000178496
-8.36866e-05
0.00018011
0.000181992
-8.79711e-05
2.97258e-07
8.55506e-05
-3.68572e-06
0.000135184
-9.26197e-06
0.000146448
-1.52054e-05
0.000152433
-2.13093e-05
0.000158296
-2.74557e-05
0.000163738
-3.35169e-05
0.000168609
-3.93718e-05
0.000172678
-4.49098e-05
0.000175928
-5.00375e-05
0.000178317
-5.46907e-05
0.000179999
-5.88307e-05
0.000181149
-6.24064e-05
0.000182071
-6.5324e-05
0.000183028
0.000184414
-6.77457e-05
1.64273e-06
8.39079e-05
-8.68524e-07
0.000137695
-5.25098e-06
0.000150831
-1.01094e-05
0.000157291
-1.51171e-05
0.000163303
-2.0134e-05
0.000168755
-2.5027e-05
0.000173502
-2.96774e-05
0.000177329
-3.39664e-05
0.000180217
-3.77968e-05
0.000182147
-4.10946e-05
0.000183296
-4.38186e-05
0.000183873
-4.59488e-05
0.000184201
-4.73045e-05
0.000184383
0.000184696
-4.75873e-05
3.09301e-06
8.08149e-05
2.09241e-06
0.000138696
-1.16906e-06
0.000154092
-4.92804e-06
0.00016105
-8.85742e-06
0.000167233
-1.27661e-05
0.000172663
-1.65192e-05
0.000177255
-2.00066e-05
0.000180816
-2.30905e-05
0.000183301
-2.56736e-05
0.00018473
-2.76673e-05
0.00018529
-2.89989e-05
0.000185205
-2.96688e-05
0.000184871
-2.95988e-05
0.000184313
0.00018298
-2.78827e-05
4.56706e-06
7.62478e-05
5.10774e-06
0.000138155
3.05827e-06
0.000156142
2.69874e-07
0.000163838
-2.58177e-06
0.000170084
-5.40178e-06
0.000175483
-8.04728e-06
0.0001799
-1.04096e-05
0.000183178
-1.23284e-05
0.00018522
-1.37073e-05
0.000186109
-1.44439e-05
0.000186027
-1.44255e-05
0.000185187
-1.3584e-05
0.00018403
-1.2006e-05
0.000182735
0.000179923
-8.94874e-06
6.00854e-06
7.02393e-05
8.13137e-06
0.000136032
7.32198e-06
0.000156951
5.6279e-06
0.000165532
3.75256e-06
0.00017196
1.93147e-06
0.000177304
2.8695e-07
0.000181545
-9.58179e-07
0.000184424
-1.74776e-06
0.000186009
-1.95136e-06
0.000186313
-1.45663e-06
0.000185532
-1.55895e-07
0.000183886
2.05671e-06
0.000181817
5.3836e-06
0.000179409
0.000175612
9.69505e-06
7.35872e-06
6.28805e-05
1.11056e-05
0.000132285
1.15685e-05
0.000156488
1.09196e-05
0.000166181
1.00677e-05
0.000172812
9.2757e-06
0.000178096
8.70679e-06
0.000182114
8.47511e-06
0.000184655
8.75007e-06
0.000185734
9.65513e-06
0.000185408
1.13097e-05
0.000183877
1.38972e-05
0.000181298
1.75416e-05
0.000178173
2.20289e-05
0.000174921
0.000169487
2.81538e-05
8.53921e-06
5.43413e-05
1.3948e-05
0.000126876
1.5754e-05
0.000154682
1.61613e-05
0.000165774
1.62894e-05
0.000172683
1.64791e-05
0.000177907
1.68993e-05
0.000181694
1.76912e-05
0.000183863
1.90094e-05
0.000184416
2.10036e-05
0.000183414
2.37888e-05
0.000181092
2.75697e-05
0.000177517
3.26423e-05
0.0001731
3.84858e-05
0.000169078
0.000161809
4.61634e-05
9.43974e-06
4.49016e-05
1.65563e-05
0.00011976
1.98127e-05
0.000151426
2.13108e-05
0.000164276
2.23919e-05
0.000171602
2.35244e-05
0.000176774
2.49015e-05
0.000180317
2.66758e-05
0.000182089
2.90021e-05
0.00018209
3.20655e-05
0.00018035
3.59782e-05
0.000177179
4.08793e-05
0.000172616
4.74063e-05
0.000166573
5.46686e-05
0.000161815
0.000152771
6.37067e-05
9.91265e-06
3.49889e-05
1.88095e-05
0.000110863
2.36583e-05
0.000146577
2.63061e-05
0.000161628
2.83339e-05
0.000169575
3.03769e-05
0.000174731
3.26785e-05
0.000178015
3.53992e-05
0.000179368
3.86972e-05
0.000178792
4.28013e-05
0.000176246
4.78632e-05
0.000172118
5.37983e-05
0.000166681
6.17651e-05
0.000158606
7.05277e-05
0.000153053
0.000142353
8.09456e-05
9.79707e-06
2.51919e-05
2.0581e-05
0.000100079
2.71765e-05
0.000139982
3.10663e-05
0.000157738
3.40614e-05
0.000166579
3.69956e-05
0.000171797
4.01857e-05
0.000174825
4.38189e-05
0.000175735
4.80516e-05
0.000174559
5.31372e-05
0.00017116
5.94105e-05
0.000165844
6.63184e-05
0.000159773
7.56579e-05
0.000149267
8.59846e-05
0.000142726
0.000130335
9.80023e-05
9.01003e-06
1.61818e-05
2.17461e-05
8.73431e-05
3.02172e-05
0.00013151
3.54872e-05
0.000152468
3.95129e-05
0.000162554
4.33288e-05
0.000167981
4.73669e-05
0.000170787
5.18813e-05
0.000171221
5.70341e-05
0.000169406
6.29811e-05
0.000165213
7.05455e-05
0.00015828
7.84156e-05
0.000151903
8.89697e-05
0.000138713
0.000100911
0.000130784
0.000116246
0.000115
7.65578e-06
8.52605e-06
2.21524e-05
7.28465e-05
3.2595e-05
0.000121068
3.94438e-05
0.00014562
4.46048e-05
0.000157393
4.93186e-05
0.000163267
5.41659e-05
0.000165939
5.95022e-05
0.000165884
6.55981e-05
0.00016331
7.22835e-05
0.000158528
8.11786e-05
0.000149385
9.01442e-05
0.000142938
0.00010171
0.000127147
0.000114792
0.000117703
9.93549e-05
0.000131683
5.99147e-06
2.53458e-06
2.16073e-05
5.72307e-05
3.41086e-05
0.000108567
4.27829e-05
0.000136945
4.9233e-05
0.000150943
5.48758e-05
0.000157625
6.0516e-05
0.000160299
6.65857e-05
0.000159815
7.36853e-05
0.000156211
8.09834e-05
0.00015123
9.10568e-05
0.000139311
0.000101401
0.000132594
0.000114359
0.000114189
0.000127701
0.000104361
7.97461e-05
0.00014731
4.25938e-06
-1.7248e-06
1.99306e-05
4.15594e-05
3.45587e-05
9.39384e-05
4.53145e-05
0.000126189
5.32362e-05
0.000143021
5.98965e-05
0.000150964
6.63488e-05
0.000153847
7.30039e-05
0.000153159
8.11558e-05
0.000148059
8.9123e-05
0.000143263
0.000100016
0.000128419
0.000111578
0.000121031
0.000126849
9.89182e-05
0.000140396
9.08135e-05
5.80205e-05
0.000162122
2.63145e-06
-4.35625e-06
1.71305e-05
2.70604e-05
3.37706e-05
7.72983e-05
4.67795e-05
0.000113181
5.6408e-05
0.000133392
6.41891e-05
0.000143183
7.15787e-05
0.000146457
7.87214e-05
0.000146017
8.77716e-05
0.000139009
9.66139e-05
0.00013442
0.000108167
0.000116866
0.000120347
0.000108851
0.000138084
8.11816e-05
0.000152684
7.62134e-05
3.45155e-05
0.000176189
1.30208e-06
-5.65833e-06
1.35519e-05
1.48106e-05
3.16087e-05
5.92414e-05
4.68504e-05
9.79389e-05
5.8456e-05
0.000121787
6.75492e-05
0.00013409
7.5978e-05
0.000138029
8.36386e-05
0.000138356
9.33254e-05
0.000129322
0.000103264
0.000124482
0.000115524
0.000104606
0.000128032
9.63431e-05
0.000147178
6.20355e-05
0.000163644
5.97473e-05
9.66882e-06
0.000188491
4.56491e-07
-6.11482e-06
9.79929e-06
5.46776e-06
2.79152e-05
4.11256e-05
4.51751e-05
8.0679e-05
5.90299e-05
0.000107932
6.96142e-05
0.000123506
7.93343e-05
0.000128308
8.76835e-05
0.000130007
9.74329e-05
0.000119573
0.000108547
0.000113367
0.000121772
9.13808e-05
0.000135148
8.2967e-05
0.000153515
4.36688e-05
0.000172977
4.02852e-05
-1.60629e-05
0.000198709
5.61894e-08
-6.17101e-06
6.53072e-06
-1.00678e-06
2.27999e-05
2.48564e-05
4.14658e-05
6.20131e-05
5.77031e-05
9.16948e-05
7.00517e-05
0.000111157
8.09765e-05
0.000117384
9.07852e-05
0.000120198
0.000100307
0.000110051
0.00011192
0.000101755
0.000124913
7.83878e-05
0.000141557
6.63229e-05
0.000155888
2.93382e-05
0.000181163
1.501e-05
-3.74638e-05
0.000202564
-7.96858e-08
-6.09133e-06
4.08409e-06
-5.17055e-06
1.71101e-05
1.18304e-05
3.57583e-05
4.33649e-05
5.39805e-05
7.34726e-05
6.84328e-05
9.67048e-05
8.05332e-05
0.000105283
9.16453e-05
0.000109086
0.000101888
9.98082e-05
0.00011423
8.94124e-05
0.000125757
6.68607e-05
0.000145059
4.70208e-05
0.000158391
1.60061e-05
0.000183738
-1.03369e-05
-5.43651e-05
0.000200639
5.16711e-09
-6.09649e-06
2.71239e-06
-7.87777e-06
1.207e-05
2.4728e-06
2.87011e-05
2.67338e-05
4.76685e-05
5.45051e-05
6.40961e-05
8.02772e-05
7.75163e-05
9.18631e-05
9.01917e-05
9.64107e-05
0.000100266
8.97335e-05
0.000115658
7.4021e-05
0.000123579
5.89393e-05
0.00014629
2.43104e-05
0.000156046
6.25015e-06
0.000182048
-3.63392e-05
-7.24199e-05
0.000200103
2.09213e-07
-6.30571e-06
2.24078e-06
-9.90933e-06
8.51709e-06
-3.80351e-06
2.16266e-05
1.36243e-05
3.92759e-05
3.68559e-05
5.68004e-05
6.27527e-05
7.11152e-05
7.75482e-05
8.57692e-05
8.17567e-05
9.52634e-05
8.02394e-05
0.000112311
5.69734e-05
0.000120801
5.04495e-05
0.000143863
1.24803e-06
0.000150971
-8.57212e-07
0.000182275
-6.76432e-05
-7.76659e-05
0.000187521
4.91198e-07
-6.7969e-06
2.24889e-06
-1.1667e-05
6.47965e-06
-8.03427e-06
1.57831e-05
4.32078e-06
3.0138e-05
2.2501e-05
4.69593e-05
4.59314e-05
6.15615e-05
6.29461e-05
7.67406e-05
6.65777e-05
8.78342e-05
6.91458e-05
0.000102559
4.22487e-05
0.000115069
3.79391e-05
0.000133569
-1.72518e-05
0.00014348
-1.07683e-05
0.000172908
-9.70715e-05
-7.4605e-05
0.000169848
7.246e-07
-7.5215e-06
2.30024e-06
-1.32427e-05
5.25623e-06
-1.09903e-05
1.13868e-05
-1.80979e-06
2.16426e-05
1.22451e-05
3.56291e-05
3.1945e-05
4.95085e-05
4.90667e-05
6.33262e-05
5.276e-05
7.56471e-05
5.68248e-05
8.79214e-05
2.99744e-05
0.000101556
2.43045e-05
0.000111987
-2.76826e-05
0.000127375
-2.61564e-05
0.000143355
-0.000113052
-0.000100926
0.000169676
7.84965e-07
-8.30647e-06
2.01292e-06
-1.44706e-05
3.9588e-06
-1.29361e-05
7.69021e-06
-5.54119e-06
1.41489e-05
5.78638e-06
2.41136e-05
2.19804e-05
3.57605e-05
3.74197e-05
4.69501e-05
4.15705e-05
5.84466e-05
4.53283e-05
6.92545e-05
1.91665e-05
8.19218e-05
1.16371e-05
8.95232e-05
-3.52839e-05
0.000115285
-5.19186e-05
0.000139889
-0.000137656
-0.000165988
0.000204952
5.86028e-07
-8.8925e-06
1.15277e-06
-1.50374e-05
1.97284e-06
-1.37562e-05
3.74215e-06
-7.31051e-06
7.05317e-06
2.47536e-06
1.30493e-05
1.59842e-05
2.12502e-05
2.92189e-05
2.95045e-05
3.33161e-05
3.86644e-05
3.61684e-05
4.68151e-05
1.10159e-05
6.11661e-05
-2.71388e-06
8.01513e-05
-5.42692e-05
0.000125856
-9.76235e-05
0.000175518
-0.000187317
-0.000233061
0.00024259
1.06818e-07
-8.99932e-06
-3.16406e-07
-1.46141e-05
-8.63042e-07
-1.32096e-05
-9.86224e-07
-7.18732e-06
-4.52778e-07
1.94191e-06
2.20725e-06
1.33242e-05
6.37684e-06
2.50493e-05
1.15901e-05
2.81028e-05
1.81749e-05
2.95837e-05
2.71451e-05
2.0456e-06
5.4745e-05
-3.03137e-05
9.65417e-05
-9.60659e-05
0.00015796
-0.000159042
0.000207526
-0.000236884
-0.000280539
0.000255005
-5.98875e-07
-8.40044e-06
-2.21566e-06
-1.29973e-05
-4.26521e-06
-1.116e-05
-6.29738e-06
-5.15516e-06
-8.06849e-06
3.71303e-06
-9.04907e-06
1.43047e-05
-8.59494e-06
2.45952e-05
-5.51506e-06
2.5023e-05
4.07387e-06
1.99947e-05
2.6938e-05
-2.08185e-05
7.42301e-05
-7.76059e-05
0.000129451
-0.000151286
0.00018601
-0.000215601
0.00022399
-0.000274863
-0.000316611
0.000260062
-1.41008e-06
-6.99035e-06
-4.28135e-06
-1.01261e-05
-7.84377e-06
-7.5976e-06
-1.17089e-05
-1.29002e-06
-1.56033e-05
7.60743e-06
-1.9183e-05
1.78844e-05
-2.07561e-05
2.61683e-05
-1.5607e-05
1.98738e-05
7.03811e-06
-2.65038e-06
4.98667e-05
-6.3647e-05
0.000106587
-0.000134326
0.000157756
-0.000202456
0.000200667
-0.000258512
0.000232217
-0.000306413
-0.000343505
0.00025911
-2.15201e-06
-4.83834e-06
-6.08497e-06
-6.19312e-06
-1.08542e-05
-2.82834e-06
-1.59741e-05
3.82986e-06
-2.09947e-05
1.2628e-05
-2.48025e-05
2.16922e-05
-2.44123e-05
2.57781e-05
-1.02697e-05
5.73127e-06
2.82146e-05
-4.11347e-05
8.11086e-05
-0.000116541
0.000132889
-0.000186107
0.00017469
-0.000244257
0.000208413
-0.000292235
0.000233426
-0.000331426
-0.000364043
0.000253964
-2.64717e-06
-2.19118e-06
-7.20949e-06
-1.63079e-06
-1.25101e-05
2.47231e-06
-1.78727e-05
9.19243e-06
-2.23558e-05
1.71111e-05
-2.37267e-05
2.30631e-05
-1.73576e-05
1.9409e-05
9.69103e-06
-2.13173e-05
5.77694e-05
-8.9213e-05
0.000107416
-0.000166187
0.000150237
-0.000228928
0.0001844
-0.00027842
0.000210472
-0.000318307
0.000230545
-0.000351498
-0.000381895
0.000248397
-2.79204e-06
6.00857e-07
-7.43267e-06
3.00984e-06
-1.25135e-05
7.55315e-06
-1.70415e-05
1.37205e-05
-1.96234e-05
1.96929e-05
-1.72702e-05
2.07099e-05
-2.12861e-06
4.26741e-06
3.54026e-05
-5.88485e-05
8.37917e-05
-0.000137602
0.000126583
-0.000208978
0.000161315
-0.00026366
0.000188267
-0.000305372
0.000209113
-0.000339153
0.000226082
-0.000368467
-0.000396519
0.000240706
-2.59572e-06
3.19658e-06
-6.82667e-06
7.24079e-06
-1.10968e-05
1.18232e-05
-1.41141e-05
1.67379e-05
-1.41089e-05
1.96877e-05
-8.06016e-06
1.46612e-05
1.66229e-05
-2.04156e-05
6.00018e-05
-0.000102228
0.000103416
-0.000181016
0.000139372
-0.000244935
0.000167045
-0.000291333
0.000188629
-0.000326956
0.000205665
-0.000356189
0.000219683
-0.000382486
-0.000409948
0.000233112
-2.15153e-06
5.34811e-06
-5.64865e-06
1.07379e-05
-8.80278e-06
1.49774e-05
-1.01811e-05
1.81162e-05
-7.90428e-06
1.74108e-05
3.5128e-06
3.2441e-06
3.73092e-05
-5.4212e-05
8.00008e-05
-0.000144919
0.000117674
-0.00021869
0.000147074
-0.000274334
0.000169231
-0.00031349
0.000186515
-0.00034424
0.000200498
-0.000370172
0.000213182
-0.00039517
-0.000422
0.000225234
-1.59003e-06
6.93814e-06
-4.21686e-06
1.33647e-05
-6.21049e-06
1.6971e-05
-6.06852e-06
1.79742e-05
-2.35634e-06
1.36986e-05
1.67403e-05
-1.58525e-05
5.72463e-05
-9.4718e-05
9.57028e-05
-0.000183376
0.000127163
-0.000250149
0.000150871
-0.000298042
0.000168541
-0.000331161
0.000182686
-0.000358385
0.000194835
-0.00038232
0.000206008
-0.000406344
-0.000432848
0.000216857
-1.03422e-06
7.97236e-06
-2.80951e-06
1.514e-05
-3.78085e-06
1.79423e-05
-2.51835e-06
1.67117e-05
4.1004e-06
7.07987e-06
3.18816e-05
-4.36337e-05
7.31815e-05
-0.000136018
0.000107089
-0.000217283
0.000132837
-0.000275898
0.000151713
-0.000316918
0.000166046
-0.000345493
0.00017799
-0.000370329
0.00018843
-0.00039276
0.000198686
-0.000416599
-0.000443126
0.000208963
-5.74133e-07
8.54649e-06
-1.62002e-06
1.61859e-05
-1.68293e-06
1.80052e-05
-1.36582e-07
1.51654e-05
1.26148e-05
-5.67147e-06
4.81128e-05
-7.91317e-05
8.54945e-05
-0.0001734
0.000114563
-0.000246352
0.000135437
-0.000296772
0.000150516
-0.000331998
0.000162282
-0.000357259
0.000172447
-0.000380495
0.000181892
-0.000402206
0.00019138
-0.000426087
-0.000452264
0.000200518
-2.61858e-07
8.80835e-06
-7.23076e-07
1.66471e-05
-1.31746e-07
1.74139e-05
2.5976e-06
1.2436e-05
2.28211e-05
-2.5895e-05
6.19513e-05
-0.000118262
9.47502e-05
-0.000206198
0.000118813
-0.000270414
0.000135669
-0.000313628
0.000147812
-0.000344141
0.000157662
-0.000367108
0.000166648
-0.000389481
0.000175141
-0.000410699
0.000183784
-0.00043473
-0.000460915
0.000192435
-1.15923e-07
8.92427e-06
-5.44404e-08
1.65857e-05
6.48019e-07
1.67115e-05
6.89842e-06
6.18564e-06
3.5482e-05
-5.44786e-05
7.21989e-05
-0.000154979
0.000100772
-0.000234771
0.000120539
-0.000290182
0.000134121
-0.00032721
0.000144078
-0.000354097
0.000152552
-0.000375582
0.000160471
-0.0003974
0.000168244
-0.000418472
0.000176372
-0.000442858
-0.000468713
0.000184169
-1.01365e-07
9.02564e-06
2.35501e-07
1.62488e-05
8.40926e-07
1.6106e-05
1.31266e-05
-6.10002e-06
4.79818e-05
-8.93338e-05
8.02247e-05
-0.000187222
0.000104164
-0.00025871
0.000120272
-0.00030629
0.000131303
-0.000338241
0.000139634
-0.000362429
0.000147025
-0.000382973
0.000154193
-0.000404568
0.000161361
-0.00042564
0.000168735
-0.000450232
-0.000475894
0.000175916
-1.496e-07
9.17524e-06
3.2559e-07
1.57736e-05
1.71759e-06
1.4714e-05
2.09121e-05
-2.52946e-05
5.74263e-05
-0.000125848
8.57779e-05
-0.000215573
0.000105464
-0.000278396
0.000118515
-0.000319342
0.000127576
-0.000347301
0.000134693
-0.000369546
0.000141305
-0.000389584
0.000147773
-0.000411036
0.000154323
-0.00043219
0.000161187
-0.000457096
-0.000482491
0.000167784
-1.5905e-07
9.33429e-06
5.43007e-08
1.55603e-05
4.59194e-06
1.01764e-05
3.09371e-05
-5.16397e-05
6.41266e-05
-0.000159037
8.89369e-05
-0.000240384
0.000105158
-0.000294617
0.000115705
-0.000329889
0.000123233
-0.000354829
0.000129445
-0.000375758
0.00013538
-0.000395519
0.000141274
-0.00041693
0.000147345
-0.000438261
0.000153559
-0.000463309
-0.000488416
0.000159484
-1.98169e-07
9.53246e-06
-3.37334e-07
1.56994e-05
9.05039e-06
7.88664e-07
4.0628e-05
-8.32172e-05
6.93655e-05
-0.000187775
9.0123e-05
-0.000261141
0.000103461
-0.000307955
0.000112105
-0.000338534
0.000118478
-0.000361203
0.000123966
-0.000381245
0.000129367
-0.000400921
0.000134743
-0.000422307
0.000140262
-0.00044378
0.000145921
-0.000468969
-0.00049388
0.000151385
-2.61608e-07
9.79407e-06
-3.72019e-07
1.58098e-05
1.4169e-05
-1.37524e-05
4.76675e-05
-0.000116716
7.28707e-05
-0.000212978
8.99514e-05
-0.000278222
0.000100818
-0.000318822
0.000107969
-0.000345684
0.000113447
-0.00036668
0.000118363
-0.000386161
0.000123262
-0.00040582
0.000128146
-0.00042719
0.000133219
-0.000448852
0.000138317
-0.000474067
-0.000498706
0.000143143
-1.97187e-07
9.99125e-06
7.96972e-07
1.48157e-05
2.10028e-05
-3.39582e-05
5.20084e-05
-0.000147721
7.45906e-05
-0.00023556
8.87261e-05
-0.000292357
9.74936e-05
-0.000327589
0.000103445
-0.000351636
0.000108231
-0.000371467
0.000112654
-0.000390583
0.000117109
-0.000410276
0.000121553
-0.000431634
0.000126128
-0.000453427
0.000130666
-0.000478605
-0.000503093
0.000135052
-2.20563e-07
1.02118e-05
3.31702e-06
1.12781e-05
2.82029e-05
-5.88441e-05
5.53714e-05
-0.00017489
7.47301e-05
-0.000254919
8.6512e-05
-0.000304139
9.3686e-05
-0.000334763
9.86968e-05
-0.000356647
0.000102903
-0.000375673
0.000106896
-0.000394576
0.000110923
-0.000414303
0.000114915
-0.000435626
0.000119043
-0.000457555
0.000123085
-0.000482648
-0.000506933
0.000126926
-2.90642e-07
1.05025e-05
6.42156e-06
4.56589e-06
3.42914e-05
-8.6714e-05
5.76926e-05
-0.000198291
7.37966e-05
-0.000271023
8.35404e-05
-0.000313883
8.94971e-05
-0.00034072
9.37809e-05
-0.00036093
9.75079e-05
-0.0003794
0.000101096
-0.000398164
0.000104712
-0.000417919
0.000108292
-0.000439205
0.000111952
-0.000461216
0.000115465
-0.00048616
-0.000510347
0.000118878
-3.22897e-07
1.08254e-05
9.68698e-06
-5.44399e-06
3.83591e-05
-0.000115386
5.89598e-05
-0.000218892
7.21451e-05
-0.000284208
8.00708e-05
-0.000321809
8.50515e-05
-0.000345701
8.87708e-05
-0.00036465
9.20771e-05
-0.000382707
9.52847e-05
-0.000401372
9.85003e-05
-0.000421135
0.000101651
-0.000442356
0.000104862
-0.000464427
0.000107916
-0.000489214
-0.000513309
0.000110878
-3.17893e-07
1.11432e-05
1.33843e-05
-1.91461e-05
4.0285e-05
-0.000142287
5.90113e-05
-0.000237618
6.995e-05
-0.000295147
7.63232e-05
-0.000328182
8.04613e-05
-0.000349839
8.36937e-05
-0.000367882
8.6626e-05
-0.000385639
8.94663e-05
-0.000404212
9.22841e-05
-0.000423952
9.50302e-05
-0.000445102
9.77949e-05
-0.000467192
0.000100362
-0.000491781
-0.000515858
0.00010291
-2.35568e-07
1.13788e-05
1.74608e-05
-3.68425e-05
4.14397e-05
-0.000166266
5.79384e-05
-0.000254117
6.72101e-05
-0.000304419
7.23823e-05
-0.000333354
7.58104e-05
-0.000353267
7.86049e-05
-0.000370677
8.1176e-05
-0.00038821
8.36549e-05
-0.000406691
8.60847e-05
-0.000426382
8.84164e-05
-0.000447433
9.07364e-05
-0.000469512
9.28694e-05
-0.000493914
-0.000517992
9.50028e-05
3.39856e-07
1.1039e-05
2.08811e-05
-5.73838e-05
4.20884e-05
-0.000187473
5.61887e-05
-0.000268217
6.40047e-05
-0.000312235
6.82885e-05
-0.000337638
7.11429e-05
-0.000356121
7.35247e-05
-0.000373058
7.57389e-05
-0.000390424
7.78579e-05
-0.00040881
7.98982e-05
-0.000428422
8.18287e-05
-0.000449364
8.37181e-05
-0.000471401
8.54016e-05
-0.000495597
-0.000519689
8.70993e-05
1.20195e-06
9.83701e-06
2.35525e-05
-7.97343e-05
4.21452e-05
-0.000206066
5.40142e-05
-0.000280086
6.04964e-05
-0.000318717
6.40697e-05
-0.000341211
6.64685e-05
-0.00035852
6.84767e-05
-0.000375066
7.03331e-05
-0.000392281
7.20861e-05
-0.000410563
7.37414e-05
-0.000430078
7.52664e-05
-0.000450889
7.67198e-05
-0.000472854
7.79788e-05
-0.000496856
-0.000520969
7.92589e-05
2.52847e-06
7.30855e-06
2.53493e-05
-0.000102555
4.17668e-05
-0.000222483
5.15863e-05
-0.000289906
5.68448e-05
-0.000323975
5.97921e-05
-0.000344159
6.17987e-05
-0.000360527
6.34582e-05
-0.000376726
6.49612e-05
-0.000393784
6.63475e-05
-0.000411949
6.76143e-05
-0.000431345
6.8739e-05
-0.000452014
6.97679e-05
-0.000473883
7.05837e-05
-0.000497672
-0.000521771
7.13854e-05
4.31614e-06
2.99241e-06
2.62987e-05
-0.000124538
4.09606e-05
-0.000237145
4.89878e-05
-0.000297933
5.31437e-05
-0.000328131
5.5506e-05
-0.000346521
5.71458e-05
-0.000362166
5.84758e-05
-0.000378056
5.96317e-05
-0.00039494
6.06486e-05
-0.000412966
6.15285e-05
-0.000432225
6.22512e-05
-0.000452736
6.28486e-05
-0.000474481
6.32265e-05
-0.00049805
-0.000522112
6.35676e-05
6.3677e-06
-3.37529e-06
2.6342e-05
-0.000144512
3.96348e-05
-0.000250438
4.62565e-05
-0.000304555
4.94479e-05
-0.000331323
5.12573e-05
-0.00034833
5.25305e-05
-0.00036344
5.35311e-05
-0.000379057
5.43432e-05
-0.000395752
5.49943e-05
-0.000413617
5.54861e-05
-0.000432716
5.58067e-05
-0.000453057
5.59809e-05
-0.000474655
5.59177e-05
-0.000497987
-0.000521969
5.57742e-05
8.61296e-06
-1.19883e-05
2.63046e-05
-0.000162204
3.78622e-05
-0.000261995
4.33494e-05
-0.000310042
4.57608e-05
-0.000333734
4.70636e-05
-0.000349633
4.79663e-05
-0.000364342
4.86342e-05
-0.000379725
4.91041e-05
-0.000396221
4.93897e-05
-0.000413903
4.94944e-05
-0.000432821
4.94106e-05
-0.000452973
4.91563e-05
-0.000474401
4.86602e-05
-0.000497491
-0.000521355
4.80468e-05
1.04082e-05
-2.23964e-05
2.61079e-05
-0.000177903
3.58451e-05
-0.000271733
4.02733e-05
-0.00031447
4.20629e-05
-0.000335524
4.29271e-05
-0.000350497
4.34657e-05
-0.000364881
4.37926e-05
-0.000380051
4.39171e-05
-0.000396346
4.384e-05
-0.000413826
4.35585e-05
-0.000432539
4.30673e-05
-0.000452482
4.23861e-05
-0.000473719
4.14627e-05
-0.000496567
-0.00052026
4.03671e-05
1.15897e-05
-3.39862e-05
2.55423e-05
-0.000191856
3.36347e-05
-0.000279825
3.70872e-05
-0.000317923
3.83515e-05
-0.000336788
3.88389e-05
-0.000350985
3.90301e-05
-0.000365072
3.90149e-05
-0.000380036
3.8792e-05
-0.000396123
3.83518e-05
-0.000413385
3.76863e-05
-0.000431874
3.67873e-05
-0.000451583
3.567e-05
-0.000472602
3.43162e-05
-0.000495214
-0.000518703
3.27592e-05
1.21743e-05
-4.61605e-05
2.46215e-05
-0.000204303
3.12835e-05
-0.000286487
3.38625e-05
-0.000320501
3.46557e-05
-0.000337581
3.48016e-05
-0.000351131
3.46615e-05
-0.000364932
3.43052e-05
-0.00037968
3.37323e-05
-0.00039555
3.29302e-05
-0.000412583
3.18851e-05
-0.000430829
3.05836e-05
-0.000450281
2.90313e-05
-0.00047105
2.72223e-05
-0.000493405
-0.000516689
2.52084e-05
1.2266e-05
-5.84264e-05
2.33826e-05
-0.00021542
2.88165e-05
-0.000291921
3.06384e-05
-0.000322323
3.09999e-05
-0.000337943
3.08206e-05
-0.000350951
3.03597e-05
-0.000364471
2.96673e-05
-0.000378988
2.87454e-05
-0.000394628
2.75811e-05
-0.000411419
2.61599e-05
-0.000429408
2.44686e-05
-0.00044859
2.24966e-05
-0.000469078
2.01856e-05
-0.000491094
-0.000514219
1.77161e-05
1.20065e-05
-7.04329e-05
2.19028e-05
-0.000225316
2.62769e-05
-0.000296295
2.74431e-05
-0.00032349
2.7404e-05
-0.000337904
2.69065e-05
-0.000350454
2.61291e-05
-0.000363694
2.51038e-05
-0.000377962
2.38337e-05
-0.000393358
2.23086e-05
-0.000409894
2.05137e-05
-0.000427613
1.84411e-05
-0.000446517
1.6085e-05
-0.000466722
1.32633e-05
-0.000488272
-0.000511217
1.02614e-05
1.15049e-05
-8.19378e-05
2.02479e-05
-0.000234059
2.3694e-05
-0.000299741
2.42918e-05
-0.000324087
2.38803e-05
-0.000337492
2.30669e-05
-0.00034964
2.19736e-05
-0.0003626
2.06184e-05
-0.000376607
1.9003e-05
-0.000391743
1.71179e-05
-0.000408009
1.49491e-05
-0.000425444
1.24954e-05
-0.000444064
9.76259e-06
-0.000463989
6.55782e-06
-0.000485067
-0.000507434
2.77401e-06
1.0835e-05
-9.27729e-05
1.84802e-05
-0.000241704
2.11055e-05
-0.000302366
2.12019e-05
-0.000324184
2.04389e-05
-0.000336729
1.93099e-05
-0.000348512
1.78989e-05
-0.000361189
1.6214e-05
-0.000374922
1.42551e-05
-0.000389784
1.20119e-05
-0.000405766
9.47133e-06
-0.000422904
6.63984e-06
-0.000441232
3.45544e-06
-0.000460805
3.04434e-07
-0.000481916
-0.000502885
-4.24374e-06
1.00297e-05
-0.000102803
1.66461e-05
-0.000248321
1.85417e-05
-0.000304262
1.81871e-05
-0.000323829
1.70864e-05
-0.000335628
1.56402e-05
-0.000347065
1.39087e-05
-0.000359458
1.18934e-05
-0.000372907
9.5929e-06
-0.000387483
6.99188e-06
-0.000403165
4.08434e-06
-0.000419996
8.3889e-07
-0.000437987
-2.67797e-06
-0.000457288
-6.5417e-06
-0.000478052
-0.000498449
-1.09779e-05
9.0962e-06
-0.000111899
1.47914e-05
-0.000254016
1.60319e-05
-0.000305503
1.52611e-05
-0.000323058
1.38275e-05
-0.000334195
1.20616e-05
-0.000345299
1.00059e-05
-0.000357402
7.65702e-06
-0.000370558
5.0122e-06
-0.000384839
2.05146e-06
-0.000400204
-1.20358e-06
-0.000416741
-4.75074e-06
-0.00043444
-8.57553e-06
-0.000453463
-1.30321e-05
-0.000473596
-0.000493808
-1.76736e-05
8.22218e-06
-0.000120121
1.29614e-05
-0.000258755
1.35889e-05
-0.00030613
1.24248e-05
-0.000321894
1.06633e-05
-0.000332433
8.57543e-06
-0.000343212
6.18998e-06
-0.000355017
3.50104e-06
-0.000367869
4.87024e-07
-0.000381825
-2.77372e-06
-0.000396943
-6.35979e-06
-0.000413155
-1.02461e-05
-0.000430553
-1.44683e-05
-0.000449241
-1.93296e-05
-0.000468735
-0.000488843
-2.42948e-05
7.36866e-06
-0.00012749
1.11844e-05
-0.000262571
1.12254e-05
-0.000306171
9.67919e-06
-0.000320348
7.59367e-06
-0.000330348
5.1795e-06
-0.000340797
2.45293e-06
-0.00035229
-5.84069e-07
-0.000364832
-3.86226e-06
-0.000378546
-7.48567e-06
-0.00039332
-1.14175e-05
-0.000409223
-1.566e-05
-0.000426311
-2.03e-05
-0.000444601
-2.54785e-05
-0.000463556
-0.000483508
-3.08136e-05
6.52929e-06
-0.000134019
9.47196e-06
-0.000265513
8.94765e-06
-0.000305647
7.02791e-06
-0.000318428
4.61639e-06
-0.000327936
1.86084e-06
-0.000338042
-1.18622e-06
-0.000349243
-4.49373e-06
-0.000361524
-8.1357e-06
-0.000374904
-1.21007e-05
-0.000389355
-1.63769e-05
-0.000404947
-2.09885e-05
-0.000421699
-2.60525e-05
-0.000439537
-3.15099e-05
-0.000458099
-0.000477803