/*--------------------------------*- C++ -*----------------------------------*\
  =========                 |
  \\      /  F ield         | OpenFOAM: The Open Source CFD Toolbox
   \\    /   O peration     | Website:  https://openfoam.org
    \\  /    A nd           | Version:  7
     \\/     M anipulation  |
\*---------------------------------------------------------------------------*/
FoamFile
{
    version     2.0;
    format      ascii;
    class       surfaceScalarField;
    location    "14.9985";
    object      phi;
}
// * * * * * * * * * * * * * * * * * * * * * * * * * * * * * * * * * * * * * //

dimensions      [0 3 -1 0 0 0 0];

internalField   nonuniform List<scalar> 
37105
(
-1.24819e-05
1.24711e-05
1.08442e-08
-2.88061e-05
1.63097e-05
1.44921e-08
-4.55879e-05
1.67662e-05
1.56031e-08
-6.30165e-05
1.74118e-05
1.68831e-08
-8.11579e-05
1.81232e-05
1.8123e-08
-0.000100079
1.89023e-05
1.92784e-08
-0.000119841
1.97415e-05
2.02937e-08
-0.000140498
2.0636e-05
2.11226e-08
-0.000162119
2.15989e-05
2.17313e-08
-0.00018478
2.26391e-05
2.20812e-08
-0.000208568
2.37651e-05
2.21318e-08
-0.000233538
2.49484e-05
2.18077e-08
-0.000259704
2.61449e-05
2.102e-08
-0.00028704
2.73166e-05
1.9697e-08
2.85086e-05
1.78348e-08
-0.000315566
-1.22854e-05
2.47564e-05
-2.842e-05
3.24443e-05
-4.50123e-05
3.33586e-05
-6.22292e-05
3.46286e-05
-8.01303e-05
3.60243e-05
-9.87728e-05
3.75448e-05
-0.000118206
3.9175e-05
-0.000138474
4.09038e-05
-0.00015963
4.27551e-05
-0.000181735
4.47438e-05
-0.000204857
4.68872e-05
-0.000229041
4.91326e-05
-0.000254293
5.13968e-05
-0.000280575
5.35986e-05
5.58038e-05
-0.00030787
-1.1896e-05
3.66525e-05
-2.76561e-05
4.82043e-05
-4.38751e-05
4.95776e-05
-6.06771e-05
5.14306e-05
-7.81107e-05
5.34579e-05
-9.62137e-05
5.56479e-05
-0.000115017
5.79787e-05
-0.000134545
6.04313e-05
-0.000154827
6.30372e-05
-0.000175897
6.58136e-05
-0.000197798
6.8788e-05
-0.000220557
7.18922e-05
-0.000244175
7.50144e-05
-0.000268597
7.8021e-05
8.0955e-05
-0.000293749
-1.13225e-05
4.7975e-05
-2.6531e-05
6.34129e-05
-4.22027e-05
6.52492e-05
-5.84031e-05
6.7631e-05
-7.51653e-05
7.02202e-05
-9.25018e-05
7.29844e-05
-0.000110421
7.58976e-05
-0.000128921
7.89319e-05
-0.000148009
8.21245e-05
-0.000167687
8.54926e-05
-0.000187976
8.90763e-05
-0.000208888
9.28045e-05
-0.000230424
9.65506e-05
-0.000252524
0.000100121
0.000103493
-0.000275062
-1.05802e-05
5.85552e-05
-2.5067e-05
7.78996e-05
-4.00305e-05
8.02128e-05
-5.54647e-05
8.30653e-05
-7.13821e-05
8.61375e-05
-8.77659e-05
8.93682e-05
-0.0001046
9.27314e-05
-0.00012186
9.6192e-05
-0.000139529
9.97936e-05
-0.000157589
0.000103552
-0.000176037
0.000107525
-0.000194883
0.00011165
-0.000214136
0.000115803
-0.000233743
0.000119728
0.000123301
-0.000253551
-9.70869e-06
6.82639e-05
-2.32893e-05
9.14803e-05
-3.74e-05
9.43234e-05
-5.19291e-05
9.75944e-05
-6.68611e-05
0.000101069
-8.2149e-05
0.000104656
-9.77529e-05
0.000108335
-0.00011363
0.000112069
-0.000129746
0.00011591
-0.000146069
0.000119875
-0.000162584
0.000124041
-0.000179299
0.000128366
-0.000196239
0.000132742
-0.000213372
0.000136861
0.000140466
-0.000230537
-8.6682e-06
7.69321e-05
-2.1209e-05
0.000104021
-3.43544e-05
0.000107469
-4.78679e-05
0.000111108
-6.17066e-05
0.000114908
-7.57962e-05
0.000118746
-9.00761e-05
0.000122615
-0.000104488
0.000126481
-0.000118989
0.000130411
-0.000133541
0.000134427
-0.000148124
0.000138624
-0.000162746
0.000142987
-0.000177444
0.00014744
-0.000192216
0.000151634
0.000155156
-0.000206907
-7.46508e-06
8.43971e-05
-1.88447e-05
0.000115401
-3.09376e-05
0.000119562
-4.33525e-05
0.000123523
-5.60208e-05
0.000127577
-6.8846e-05
0.000131571
-8.17503e-05
0.00013552
-9.46642e-05
0.000139394
-0.000107542
0.000143289
-0.000120346
0.000147231
-0.000133057
0.000151335
-0.000145677
0.000155608
-0.000158249
0.000160011
-0.000170797
0.000164182
0.000167533
-0.000183174
-6.11941e-06
9.05165e-05
-1.62218e-05
0.000125503
-2.7195e-05
0.000130535
-3.84517e-05
0.000134779
-4.98987e-05
0.000139024
-6.14237e-05
0.000143096
-7.29353e-05
0.000147031
-8.43548e-05
0.000150814
-9.56363e-05
0.000154571
-0.000106749
0.000158343
-0.000117673
0.00016226
-0.000128403
0.000166338
-0.000138963
0.000170571
-0.00014939
0.000174608
0.000177706
-0.000159562
-4.64302e-06
9.51596e-05
-1.33683e-05
0.000134228
-2.31727e-05
0.000140339
-3.32291e-05
0.000144836
-4.34256e-05
0.00014922
-5.36396e-05
0.00015331
-6.37662e-05
0.000157158
-7.37192e-05
0.000160767
-8.34519e-05
0.000164303
-9.29398e-05
0.000167831
-0.000102167
0.000171487
-0.000111106
0.000175277
-0.000119744
0.000179209
-0.000128098
0.000182962
0.000185718
-0.00013611
-3.03818e-06
9.81977e-05
-1.03165e-05
0.000141507
-1.89126e-05
0.000148935
-2.77411e-05
0.000153664
-3.66767e-05
0.000158156
-4.55863e-05
0.000162219
-5.43526e-05
0.000165924
-6.28811e-05
0.000169295
-7.11209e-05
0.000172543
-7.90492e-05
0.000175759
-8.66511e-05
0.000179089
-9.3879e-05
0.000182505
-0.000100661
0.000185991
-0.000106951
0.000189253
0.00019153
-0.000112764
-1.28395e-06
9.94817e-05
-7.10874e-06
0.000147331
-1.44524e-05
0.000156279
-2.2037e-05
0.000161249
-2.97156e-05
0.000165834
-3.73415e-05
0.000169845
-4.47819e-05
0.000173365
-5.19333e-05
0.000176447
-5.87364e-05
0.000179346
-6.51596e-05
0.000182182
-7.11834e-05
0.000185112
-7.67484e-05
0.00018807
-8.1716e-05
0.000190958
-8.59282e-05
0.000193465
0.00019508
-8.94779e-05
5.37453e-07
9.89442e-05
-3.79488e-06
0.000151664
-9.81476e-06
0.000162299
-1.61602e-05
0.000167594
-2.25982e-05
0.000172272
-2.89684e-05
0.000176215
-3.5121e-05
0.000179517
-4.09432e-05
0.000182269
-4.63619e-05
0.000184765
-5.13267e-05
0.000187147
-5.57988e-05
0.000189585
-5.9716e-05
0.000191987
-6.29183e-05
0.000194161
-6.50731e-05
0.00019562
0.000196189
-6.61821e-05
2.21079e-06
9.67335e-05
-4.46828e-07
0.000154321
-5.03013e-06
0.000166882
-1.01553e-05
0.000172719
-1.53704e-05
0.000177487
-2.05196e-05
0.000181365
-2.54238e-05
0.000184421
-2.9962e-05
0.000186807
-3.40416e-05
0.000188845
-3.75883e-05
0.000190694
-4.05261e-05
0.000192522
-4.27755e-05
0.000194237
-4.42275e-05
0.000195613
-4.45114e-05
0.000195904
0.000194493
-4.28154e-05
4.02486e-06
9.27086e-05
3.21727e-06
0.000155129
-1.96283e-07
0.000170296
-4.06383e-06
0.000176587
-8.08019e-06
0.000181504
-1.20399e-05
0.000185324
-1.57328e-05
0.000188114
-1.90295e-05
0.000190104
-2.18078e-05
0.000191623
-2.39722e-05
0.000192858
-2.54041e-05
0.000193954
-2.59722e-05
0.000194805
-2.55735e-05
0.000195214
-2.41693e-05
0.0001945
0.00019054
-2.02166e-05
5.88909e-06
8.68195e-05
6.90751e-06
0.000154111
4.93946e-06
0.000172264
2.12959e-06
0.000179397
-8.13122e-07
0.000184447
-3.57784e-06
0.000188089
-6.09605e-06
0.000190633
-8.18604e-06
0.000192194
-9.69579e-06
0.000193133
-1.0502e-05
0.000193664
-1.04602e-05
0.000193912
-9.38114e-06
0.000193726
-7.15287e-06
0.000192986
-3.55302e-06
0.0001909
0.000185588
1.39882e-06
7.73183e-06
7.90877e-05
1.06185e-05
0.000151224
1.00428e-05
0.00017284
8.43574e-06
0.000181004
6.64446e-06
0.000186238
4.922e-06
0.000189812
3.4901e-06
0.000192065
2.54264e-06
0.000193141
2.25353e-06
0.000193422
2.7874e-06
0.00019313
4.28128e-06
0.000192419
6.97554e-06
0.000191032
1.10024e-05
0.000188959
1.633e-05
0.000185572
0.00017822
2.36985e-05
9.47569e-06
6.9612e-05
1.42798e-05
0.00014642
1.51425e-05
0.000171977
1.47068e-05
0.00018144
1.40116e-05
0.000186933
1.33821e-05
0.000190441
1.30449e-05
0.000192402
1.32096e-05
0.000192977
1.40945e-05
0.000192537
1.58987e-05
0.000191326
1.87664e-05
0.000189551
2.3012e-05
0.000186786
2.89532e-05
0.000183018
3.59287e-05
0.000178597
0.000168848
4.53007e-05
1.10092e-05
5.86028e-05
1.7777e-05
0.000139652
2.01791e-05
0.000169575
2.09281e-05
0.000180691
2.12975e-05
0.000186564
2.17171e-05
0.000190021
2.24345e-05
0.000191684
2.36769e-05
0.000191734
2.56907e-05
0.000190523
2.87528e-05
0.000188264
3.29959e-05
0.000185308
3.86414e-05
0.000181141
4.64924e-05
0.000175167
5.53059e-05
0.000169783
0.000157798
6.63558e-05
1.21566e-05
4.64461e-05
2.09557e-05
0.000130853
2.50612e-05
0.000165469
2.70506e-05
0.000178701
2.84706e-05
0.000185144
2.99055e-05
0.000188587
3.16464e-05
0.000189943
3.39386e-05
0.000189442
3.70311e-05
0.00018743
4.12995e-05
0.000183996
4.69427e-05
0.000179665
5.38243e-05
0.000174259
6.35107e-05
0.00016548
7.42158e-05
0.000159078
0.000145072
8.69413e-05
1.26432e-05
3.38029e-05
2.36246e-05
0.000119872
2.96654e-05
0.000159428
3.29924e-05
0.000175374
3.54746e-05
0.000182662
3.79065e-05
0.000186155
4.06437e-05
0.000187206
4.39641e-05
0.000186122
4.80963e-05
0.000183298
5.34455e-05
0.000178646
6.05506e-05
0.00017256
6.85084e-05
0.000166301
7.98765e-05
0.000154112
9.26808e-05
0.000146274
0.00013041
0.000107344
1.21556e-05
2.16473e-05
2.55893e-05
0.000106438
3.382e-05
0.000151198
3.86311e-05
0.000170563
4.2235e-05
0.000179058
4.56698e-05
0.00018272
4.93725e-05
0.000183503
5.3698e-05
0.000181796
5.88832e-05
0.000178113
6.51394e-05
0.00017239
7.37998e-05
0.000163899
8.28021e-05
0.000157299
9.52521e-05
0.000141662
0.00011
0.000131526
0.000112754
0.000127656
1.0614e-05
1.10332e-05
2.66948e-05
9.03572e-05
3.72887e-05
0.000140604
4.38064e-05
0.000164045
4.8654e-05
0.00017421
5.31233e-05
0.000178251
5.77734e-05
0.000178853
6.30489e-05
0.000176521
6.93699e-05
0.000171792
7.63535e-05
0.000165407
8.65318e-05
0.000153721
9.6987e-05
0.000146844
0.000110362
0.000128287
0.000125588
0.000116301
9.18026e-05
0.000146539
8.3813e-06
2.65192e-06
2.67183e-05
7.20202e-05
3.97814e-05
0.000127541
4.8322e-05
0.000155505
5.46075e-05
0.000167925
6.01702e-05
0.000172688
6.57727e-05
0.000173251
7.18741e-05
0.000170419
7.9472e-05
0.000164194
8.7132e-05
0.000157747
9.84369e-05
0.000142416
0.000110553
0.000134727
0.000126051
0.00011279
0.000141072
0.000101279
6.88362e-05
0.000164038
5.94922e-06
-3.2973e-06
2.53018e-05
5.26676e-05
4.0995e-05
0.000111848
5.19475e-05
0.000144552
5.99132e-05
0.000159959
6.6656e-05
0.000165945
7.32979e-05
0.000166609
8.00644e-05
0.000163653
8.89832e-05
0.000155275
9.75771e-05
0.000149153
0.000109639
0.000130354
0.00012267
0.000121696
0.000141141
9.43189e-05
0.000157084
8.53361e-05
4.46799e-05
0.00018124
3.58246e-06
-6.87976e-06
2.21462e-05
3.41038e-05
4.0642e-05
9.33519e-05
5.43706e-05
0.000130824
6.43227e-05
0.000150007
7.23598e-05
0.000157908
8.01943e-05
0.000158774
8.75678e-05
0.000156279
9.75558e-05
0.000145287
0.000107475
0.000139233
0.000120638
0.000117191
0.000133703
0.000108631
0.000154414
7.36082e-05
0.000172196
6.75541e-05
1.94427e-05
0.000197433
1.49571e-06
-8.37547e-06
1.75337e-05
1.80658e-05
3.85201e-05
7.23655e-05
5.51518e-05
0.000114192
6.7457e-05
0.000137702
7.69709e-05
0.000148394
8.61899e-05
0.000149555
9.43292e-05
0.00014814
0.000104932
0.000134685
0.000116071
0.000128095
0.000131061
0.000102201
0.000144482
9.52097e-05
0.000166191
5.18994e-05
0.000185371
4.83733e-05
-7.216e-06
0.00021203
1.22381e-07
-8.49785e-06
1.23091e-05
5.87909e-06
3.44397e-05
5.02349e-05
5.37639e-05
9.48676e-05
6.88565e-05
0.000122609
8.01041e-05
0.000137146
9.08151e-05
0.000138844
0.000100173
0.000138782
0.000111135
0.000123723
0.000123033
0.000116196
0.000139203
8.60319e-05
0.000154793
7.96196e-05
0.000176137
3.05554e-05
0.000196429
2.80809e-05
-3.56067e-05
0.00022482
-5.70339e-07
-7.92751e-06
7.68463e-06
-2.37587e-06
2.81728e-05
2.97468e-05
4.96834e-05
7.33569e-05
6.78723e-05
0.00010442
8.13465e-05
0.000123672
9.34595e-05
0.000126731
0.000104473
0.000127768
0.000115778
0.000112418
0.000129243
0.000102732
0.000143503
7.17722e-05
0.000162967
6.01554e-05
0.000182513
1.10088e-05
0.000204948
5.64589e-06
-6.51598e-05
0.000234501
-6.5467e-07
-7.27284e-06
4.16366e-06
-7.1942e-06
2.06214e-05
1.3289e-05
4.27829e-05
5.11954e-05
6.37927e-05
8.34103e-05
7.997e-05
0.000107495
9.34848e-05
0.000113217
0.000106579
0.000114674
0.000117483
0.000101514
0.000134013
8.62025e-05
0.000145296
6.04886e-05
0.00016882
3.66312e-05
0.000184192
-4.3627e-06
0.000210569
-2.07317e-05
-9.61714e-05
0.000241581
-4.89871e-07
-6.78297e-06
2.25844e-06
-9.94251e-06
1.36927e-05
1.85482e-06
3.37931e-05
3.1095e-05
5.60653e-05
6.1138e-05
7.52179e-05
8.83424e-05
8.97119e-05
9.87227e-05
0.000105716
9.86698e-05
0.00011634
9.08901e-05
0.00013561
6.6932e-05
0.000144777
5.13212e-05
0.000173028
8.38079e-06
0.000181388
-1.27227e-05
0.000215762
-5.51056e-05
-0.000112414
0.000232004
-9.52999e-08
-6.68767e-06
1.7793e-06
-1.18171e-05
8.88691e-06
-5.2528e-06
2.45642e-05
1.54177e-05
4.5248e-05
4.04542e-05
6.63122e-05
6.72783e-05
8.23026e-05
8.27323e-05
9.92657e-05
8.17068e-05
0.000112135
7.80208e-05
0.000131348
4.77189e-05
0.000143083
3.95869e-05
0.000171259
-1.97954e-05
0.000176819
-1.82832e-05
0.000219074
-9.73604e-05
-0.000103663
0.000210323
3.54656e-07
-7.04233e-06
2.0014e-06
-1.34639e-05
6.36496e-06
-9.61635e-06
1.70645e-05
4.71811e-06
3.34764e-05
2.40423e-05
5.33722e-05
4.73824e-05
7.09643e-05
6.51402e-05
8.72243e-05
6.54468e-05
0.000102001
6.32445e-05
0.000119207
3.05125e-05
0.000135333
2.34612e-05
0.000153579
-3.8042e-05
0.000168073
-3.27767e-05
0.000198152
-0.000127439
-9.19779e-05
0.000186466
7.07985e-07
-7.75031e-06
2.22288e-06
-1.49788e-05
5.07592e-06
-1.24694e-05
1.16569e-05
-1.86285e-06
2.28587e-05
1.28405e-05
3.85094e-05
3.17317e-05
5.53476e-05
4.83021e-05
7.05181e-05
5.02764e-05
8.49384e-05
4.88241e-05
9.99108e-05
1.55401e-05
0.000118122
5.24999e-06
0.000128836
-4.87554e-05
0.000150114
-5.40557e-05
0.000158353
-0.000135678
-0.000124447
0.000190822
7.97258e-07
-8.54757e-06
1.89301e-06
-1.60745e-05
3.5914e-06
-1.41678e-05
7.19742e-06
-5.46887e-06
1.36687e-05
6.3692e-06
2.38337e-05
2.15667e-05
3.71278e-05
3.5008e-05
5.00323e-05
3.73719e-05
6.35859e-05
3.52705e-05
7.53275e-05
3.7985e-06
9.37854e-05
-1.32079e-05
0.000105262
-6.02317e-05
0.00013373
-8.25237e-05
0.000159809
-0.000161757
-0.000193877
0.000229239
5.13805e-07
-9.06138e-06
7.26627e-07
-1.62873e-05
1.0378e-06
-1.44789e-05
2.21656e-06
-6.64762e-06
4.78229e-06
3.80347e-06
9.8608e-06
1.64882e-05
1.802e-05
2.68488e-05
2.7483e-05
2.79088e-05
3.90346e-05
2.37189e-05
4.94708e-05
-6.63775e-06
7.01471e-05
-3.38842e-05
9.40679e-05
-8.41524e-05
0.000142421
-0.000130876
0.000194161
-0.000213497
-0.000260335
0.000260618
-1.51437e-07
-8.90994e-06
-1.22499e-06
-1.52138e-05
-2.62649e-06
-1.30774e-05
-3.81882e-06
-5.45529e-06
-4.69022e-06
4.67486e-06
-4.15086e-06
1.59488e-05
-1.42207e-06
2.412e-05
4.29569e-06
2.2191e-05
1.46141e-05
1.34005e-05
3.09885e-05
-2.30121e-05
6.59045e-05
-6.88002e-05
0.000113318
-0.000131566
0.000175035
-0.000192594
0.000224056
-0.000262519
-0.000305494
0.000269215
-1.10388e-06
-7.80606e-06
-3.71543e-06
-1.26022e-05
-7.05346e-06
-9.73942e-06
-1.0703e-05
-1.80573e-06
-1.47453e-05
8.71713e-06
-1.86792e-05
1.98827e-05
-2.0788e-05
2.62289e-05
-1.63222e-05
1.77252e-05
2.27845e-06
-5.20022e-06
3.74104e-05
-5.81441e-05
9.07901e-05
-0.00012218
0.000147112
-0.000187887
0.000199753
-0.000245235
0.000235686
-0.000298452
-0.000337472
0.000267664
-2.15442e-06
-5.65163e-06
-6.32267e-06
-8.43398e-06
-1.15438e-05
-4.51827e-06
-1.74829e-05
4.13337e-06
-2.41628e-05
1.5397e-05
-3.07296e-05
2.64495e-05
-3.34243e-05
2.89236e-05
-2.15636e-05
5.8645e-06
1.4199e-05
-4.09628e-05
6.63603e-05
-0.000110305
0.000122197
-0.000178016
0.000170022
-0.000235712
0.000208998
-0.000284211
0.000237702
-0.000327156
-0.00036362
0.000263849
-3.0462e-06
-2.60543e-06
-8.43595e-06
-3.04424e-06
-1.50062e-05
2.05201e-06
-2.22778e-05
1.1405e-05
-2.97607e-05
2.28799e-05
-3.50817e-05
3.17705e-05
-3.17271e-05
2.5569e-05
-5.29136e-06
-2.05712e-05
4.29173e-05
-8.91714e-05
9.61431e-05
-0.000163531
0.000142943
-0.000224817
0.00018103
-0.000273799
0.000212209
-0.000315389
0.000236816
-0.000351763
-0.00038412
0.000257316
-3.53592e-06
9.30487e-07
-9.49317e-06
2.91301e-06
-1.63938e-05
8.95261e-06
-2.34694e-05
1.84806e-05
-2.93403e-05
2.87507e-05
-3.03095e-05
3.27398e-05
-1.64228e-05
1.16823e-05
2.21574e-05
-5.91515e-05
7.17824e-05
-0.000138796
0.000117299
-0.000209048
0.000155713
-0.000263231
0.000187283
-0.000305369
0.00021263
-0.000340736
0.000232272
-0.000371404
-0.000401464
0.000249616
-3.5047e-06
4.43519e-06
-9.24977e-06
8.65808e-06
-1.54647e-05
1.51675e-05
-2.09093e-05
2.39252e-05
-2.35546e-05
3.1396e-05
-1.94714e-05
2.86566e-05
5.63397e-06
-1.34231e-05
4.92848e-05
-0.000102802
9.37324e-05
-0.000183244
0.000132493
-0.000247809
0.000164215
-0.000294953
0.000189583
-0.000330737
0.000209598
-0.000360751
0.00022634
-0.000388146
-0.000416888
0.000241763
-3.00549e-06
7.44068e-06
-7.89979e-06
1.35524e-05
-1.26815e-05
1.99492e-05
-1.57164e-05
2.69601e-05
-1.48096e-05
3.04893e-05
-4.49729e-06
1.83443e-05
2.86954e-05
-4.66157e-05
7.14332e-05
-0.00014554
0.000110679
-0.00022249
0.000143096
-0.000280225
0.000168435
-0.000320291
0.000188633
-0.000350935
0.000205382
-0.0003775
0.000219865
-0.00040263
-0.000430193
0.00023317
-2.19997e-06
9.64065e-06
-5.86001e-06
1.72124e-05
-8.90012e-06
2.29893e-05
-9.36697e-06
2.7427e-05
-6.09334e-06
2.72156e-05
1.17925e-05
4.58468e-07
5.09027e-05
-8.5726e-05
8.94326e-05
-0.00018407
0.00012304
-0.000256098
0.000149365
-0.000306551
0.000169611
-0.000340537
0.000186188
-0.000367512
0.000200087
-0.000391399
0.000212637
-0.00041518
-0.000442568
0.000225012
-1.28363e-06
1.09243e-05
-3.58237e-06
1.95112e-05
-4.89965e-06
2.43066e-05
-3.12508e-06
2.56524e-05
2.54258e-06
2.1548e-05
2.78954e-05
-2.48944e-05
6.86962e-05
-0.000126527
0.000103501
-0.000218875
0.00013129
-0.000283886
0.000152418
-0.000327678
0.000168709
-0.000356828
0.000182213
-0.000381016
0.000194097
-0.000403283
0.000205558
-0.000426641
-0.000453441
0.00021643
-4.31794e-07
1.13561e-05
-1.453e-06
2.05324e-05
-1.11788e-06
2.39715e-05
1.66978e-06
2.28647e-05
1.18519e-05
1.13658e-05
4.4563e-05
-5.76055e-05
8.28641e-05
-0.000164828
0.000113489
-0.0002495
0.000136227
-0.000306624
0.000152991
-0.000344442
0.00016606
-0.000369897
0.000177479
-0.000392435
0.000187908
-0.000413712
0.000198052
-0.000436785
-0.000463537
0.000208148
2.25209e-07
1.11309e-05
2.30695e-07
2.05269e-05
1.73677e-06
2.24654e-05
4.94655e-06
1.9655e-05
2.09788e-05
-4.66635e-06
5.95195e-05
-9.61462e-05
9.4128e-05
-0.000199436
0.000120063
-0.000275436
0.000138352
-0.000324912
0.00015161
-0.000357701
0.000162397
-0.000380684
0.000172155
-0.000402193
0.000181306
-0.000422862
0.000190738
-0.000446218
-0.000472623
0.000199824
6.19094e-07
1.05118e-05
1.35587e-06
1.97901e-05
3.55592e-06
2.02653e-05
7.59361e-06
1.56173e-05
3.1522e-05
-2.85947e-05
7.10007e-05
-0.000135625
0.000102066
-0.000230501
0.000123555
-0.000296925
0.000138226
-0.000339583
0.000148925
-0.0003684
0.000157917
-0.000389676
0.000166407
-0.000410684
0.000174735
-0.00043119
0.000183223
-0.000454705
-0.00048086
0.000191459
7.29601e-07
9.78217e-06
1.91742e-06
1.86023e-05
3.97806e-06
1.82047e-05
1.15443e-05
8.05103e-06
4.35945e-05
-6.06449e-05
8.01408e-05
-0.000172171
0.000107092
-0.000257452
0.00012475
-0.000314584
0.000136521
-0.000351354
0.000145208
-0.000377087
0.000152918
-0.000397385
0.000160461
-0.000418227
0.000167908
-0.000438637
0.000175753
-0.000462551
-0.000488446
0.00018334
5.72695e-07
9.20948e-06
1.87897e-06
1.7296e-05
3.18889e-06
1.68948e-05
1.68538e-05
-5.61388e-06
5.49345e-05
-9.87256e-05
8.70754e-05
-0.000204312
0.000109577
-0.000279954
0.000123962
-0.000328969
0.000133502
-0.000360894
0.000140809
-0.000384394
0.000147559
-0.000404135
0.00015426
-0.000424929
0.000161128
-0.000445505
0.000168273
-0.000469695
-0.000495173
0.000175
3.08765e-07
8.90071e-06
1.5002e-06
1.61046e-05
2.92081e-06
1.54742e-05
2.45765e-05
-2.72696e-05
6.33004e-05
-0.00013745
9.16843e-05
-0.000232696
0.0001102
-0.00029847
0.000121845
-0.000340613
0.000129705
-0.000368753
0.000135936
-0.000390626
0.000141919
-0.000410117
0.000148001
-0.000431012
0.000154213
-0.000451717
0.000160701
-0.000476183
-0.000501419
0.000166947
8.39678e-08
8.81674e-06
5.21333e-07
1.56672e-05
5.4025e-06
1.0593e-05
3.46012e-05
-5.64682e-05
6.92124e-05
-0.000172061
9.39584e-05
-0.000257442
0.00010925
-0.000313762
0.000118686
-0.000350049
0.000125228
-0.000375296
0.000130696
-0.000396094
0.000136113
-0.000415534
0.000141583
-0.000436482
0.000147293
-0.000457427
0.000153221
-0.000482111
-0.00050692
0.000158721
-2.18988e-07
9.03573e-06
-6.39429e-07
1.60877e-05
9.67125e-06
2.82299e-07
4.43028e-05
-9.10998e-05
7.38083e-05
-0.000201566
9.44104e-05
-0.000278044
0.000107057
-0.000326409
0.000114836
-0.000357827
0.00012042
-0.00038088
0.000125274
-0.000400948
0.000130155
-0.000420415
0.000135148
-0.000441475
0.000140338
-0.000462616
0.000145618
-0.000487392
-0.000511966
0.000150664
-4.88761e-07
9.52449e-06
-1.02224e-06
1.66211e-05
1.49301e-05
-1.56701e-05
5.10124e-05
-0.000127182
7.68722e-05
-0.000227426
9.37014e-05
-0.000294873
0.000103988
-0.000336695
0.000110457
-0.000364297
0.000115287
-0.00038571
0.000119649
-0.00040531
0.000124116
-0.000424881
0.000128624
-0.000445983
0.000133336
-0.000467328
0.000138128
-0.000492184
-0.000516424
0.000142586
-4.82697e-07
1.00072e-05
3.08792e-07
1.58297e-05
2.2411e-05
-3.77723e-05
5.49226e-05
-0.000159694
7.80659e-05
-0.000250569
9.20279e-05
-0.000308835
0.000100338
-0.000345006
0.000105753
-0.000369712
0.000110013
-0.00038997
0.00011397
-0.000409267
0.000118002
-0.000428913
0.000122088
-0.00045007
0.000126356
-0.000471595
0.000130558
-0.000496386
-0.000520415
0.000134549
-5.26165e-07
1.05334e-05
3.1585e-06
1.2145e-05
3.0186e-05
-6.47998e-05
5.81024e-05
-0.00018761
7.77553e-05
-0.000270222
8.94304e-05
-0.00032051
9.6254e-05
-0.000351829
0.000100834
-0.000374292
0.000104602
-0.000393738
0.000108177
-0.000412841
0.000111843
-0.00043258
0.000115513
-0.00045374
0.000119312
-0.000475394
0.000123057
-0.000500131
-0.000523961
0.000126602
-5.79788e-07
1.11131e-05
6.56752e-06
4.99768e-06
3.64717e-05
-9.4704e-05
6.02931e-05
-0.000211431
7.64904e-05
-0.000286419
8.61303e-05
-0.00033015
9.18359e-05
-0.000357535
9.57849e-05
-0.000378241
9.91467e-05
-0.0003971
0.000102384
-0.000416079
0.000105662
-0.000435857
0.000108927
-0.000457006
0.000112311
-0.000478777
0.000115537
-0.000503357
-0.00052705
0.000118626
-5.64883e-07
1.1678e-05
1.0115e-05
-5.68222e-06
4.04164e-05
-0.000125005
6.14589e-05
-0.000232474
7.46207e-05
-0.000299581
8.24187e-05
-0.000337948
8.71943e-05
-0.00036231
9.06433e-05
-0.00038169
9.3645e-05
-0.000400101
9.6536e-05
-0.00041897
9.94562e-05
-0.000438777
0.000102338
-0.000459887
0.00010527
-0.000481709
0.000108053
-0.00050614
-0.00052976
0.000110763
-5.6885e-07
1.22469e-05
1.43018e-05
-2.05529e-05
4.21062e-05
-0.00015281
6.13008e-05
-0.000251669
7.22477e-05
-0.000310528
7.84817e-05
-0.000344182
8.24444e-05
-0.000366273
8.54591e-05
-0.000384705
8.81344e-05
-0.000402777
9.07094e-05
-0.000421545
9.32611e-05
-0.000441329
9.5746e-05
-0.000462372
9.82733e-05
-0.000484237
0.000100607
-0.000508474
-0.000532028
0.000102875
-5.22482e-07
1.27694e-05
1.85547e-05
-3.96301e-05
4.3247e-05
-0.000177502
6.00281e-05
-0.00026845
6.93287e-05
-0.000319829
7.43931e-05
-0.000349247
7.76641e-05
-0.000369544
8.02682e-05
-0.000387309
8.26214e-05
-0.00040513
8.48628e-05
-0.000423786
8.70573e-05
-0.000443524
8.91708e-05
-0.000464486
9.12684e-05
-0.000486334
9.31741e-05
-0.00051038
-0.000533948
9.50942e-05
2.00895e-07
1.25685e-05
2.21506e-05
-6.15798e-05
4.38409e-05
-0.000199192
5.81283e-05
-0.000282737
6.59582e-05
-0.000327659
7.01607e-05
-0.000353449
7.28852e-05
-0.000372269
7.51052e-05
-0.000389529
7.71298e-05
-0.000407154
7.90478e-05
-0.000425704
8.08836e-05
-0.000445359
8.26073e-05
-0.000466209
8.43034e-05
-0.00048803
8.58024e-05
-0.000511879
-0.000535453
8.73071e-05
1.11148e-06
1.1457e-05
2.49107e-05
-8.5379e-05
4.38626e-05
-0.000218144
5.58348e-05
-0.000294709
6.23084e-05
-0.000334132
6.58204e-05
-0.000356961
6.8113e-05
-0.000374561
6.99782e-05
-0.000391394
7.16699e-05
-0.000408846
7.32436e-05
-0.000427278
7.47165e-05
-0.000446832
7.60709e-05
-0.000467564
7.73559e-05
-0.000489315
7.8444e-05
-0.000512967
-0.000536598
7.95892e-05
2.55748e-06
8.89951e-06
2.67071e-05
-0.000109529
4.34616e-05
-0.000234899
5.33217e-05
-0.000304569
5.8546e-05
-0.000339356
6.14325e-05
-0.000359848
6.33498e-05
-0.000376478
6.489e-05
-0.000392934
6.62493e-05
-0.000410205
6.74815e-05
-0.00042851
6.85931e-05
-0.000447944
6.95619e-05
-0.000468533
7.0445e-05
-0.000490198
7.11361e-05
-0.000513658
-0.000537305
7.18433e-05
4.52219e-06
4.37732e-06
2.75909e-05
-0.000132597
4.26286e-05
-0.000249936
5.06595e-05
-0.0003126
5.4756e-05
-0.000343453
5.70529e-05
-0.000362145
5.86129e-05
-0.000378038
5.98378e-05
-0.000394159
6.08696e-05
-0.000411237
6.17514e-05
-0.000429392
6.24933e-05
-0.000448686
6.30881e-05
-0.000469127
6.35681e-05
-0.000490678
6.38387e-05
-0.000513929
-0.000537575
6.41085e-05
6.78769e-06
-2.41037e-06
2.7527e-05
-0.000153337
4.12212e-05
-0.000263631
4.78707e-05
-0.00031925
5.09879e-05
-0.00034657
5.27219e-05
-0.000363879
5.39177e-05
-0.000379234
5.48277e-05
-0.000395069
5.5533e-05
-0.000411942
5.60686e-05
-0.000429928
5.64458e-05
-0.000449063
5.66552e-05
-0.000469337
5.67295e-05
-0.000490753
5.65917e-05
-0.000513791
-0.000537392
5.64091e-05
9.2698e-06
-1.16802e-05
2.75602e-05
-0.000171627
3.93734e-05
-0.000275444
4.48891e-05
-0.000324766
4.72312e-05
-0.000348912
4.84552e-05
-0.000365103
4.92818e-05
-0.000380061
4.98664e-05
-0.000395654
5.02435e-05
-0.000412319
5.04303e-05
-0.000430115
5.0436e-05
-0.000449069
5.02632e-05
-0.000469164
4.99343e-05
-0.000490424
4.93794e-05
-0.000513236
-0.000536756
4.87433e-05
1.1173e-05
-2.28532e-05
2.7383e-05
-0.000187837
3.72909e-05
-0.000285352
4.17246e-05
-0.000329199
4.34554e-05
-0.000350643
4.42467e-05
-0.000365894
4.47115e-05
-0.000380526
4.49633e-05
-0.000395905
4.50074e-05
-0.000412364
4.48465e-05
-0.000429954
4.44852e-05
-0.000448707
4.39221e-05
-0.000468601
4.31818e-05
-0.000489684
4.22218e-05
-0.000512276
-0.000535666
4.11309e-05
1.24166e-05
-3.52698e-05
2.67966e-05
-0.000202217
3.50091e-05
-0.000293564
3.8449e-05
-0.000332639
3.96616e-05
-0.000351856
4.00857e-05
-0.000366318
4.021e-05
-0.00038065
4.01253e-05
-0.000395821
3.98312e-05
-0.000412069
3.932e-05
-0.000429443
3.85877e-05
-0.000447975
3.76336e-05
-0.000467647
3.64801e-05
-0.00048853
3.51076e-05
-0.000510903
-0.000534123
3.35648e-05
1.30055e-05
-4.82754e-05
2.58368e-05
-0.000215048
3.25831e-05
-0.00030031
3.51368e-05
-0.000335193
3.58833e-05
-0.000352602
3.59742e-05
-0.000366409
3.57741e-05
-0.00038045
3.5356e-05
-0.000395402
3.4721e-05
-0.000411435
3.38586e-05
-0.00042858
3.27603e-05
-0.000446877
3.14173e-05
-0.000466304
2.98416e-05
-0.000486954
2.80359e-05
-0.000509098
-0.000532142
2.60551e-05
1.30625e-05
-6.13378e-05
2.45354e-05
-0.000226521
3.00348e-05
-0.00030581
3.18273e-05
-0.000336985
3.21455e-05
-0.00035292
3.19189e-05
-0.000366182
3.1406e-05
-0.000379937
3.06585e-05
-0.000394655
2.96816e-05
-0.000410458
2.84662e-05
-0.000427365
2.7001e-05
-0.000445411
2.52783e-05
-0.000464581
2.32952e-05
-0.000484971
2.10098e-05
-0.000506812
-0.000529719
1.85869e-05
1.27539e-05
-7.40917e-05
2.29833e-05
-0.000236751
2.74117e-05
-0.000310238
2.8548e-05
-0.000338122
2.84695e-05
-0.000352842
2.79307e-05
-0.000365643
2.71077e-05
-0.000379114
2.60341e-05
-0.000393581
2.4717e-05
-0.000409141
2.31482e-05
-0.000425796
2.13181e-05
-0.000443581
1.92233e-05
-0.000462486
1.68602e-05
-0.000482608
1.4075e-05
-0.000504027
-0.000526791
1.11468e-05
1.21963e-05
-8.62881e-05
2.12474e-05
-0.000245802
2.4742e-05
-0.000313733
2.53136e-05
-0.000338693
2.48675e-05
-0.000352396
2.40183e-05
-0.000364794
2.28855e-05
-0.000377981
2.14874e-05
-0.000392183
1.98312e-05
-0.000407484
1.79088e-05
-0.000423874
1.57109e-05
-0.000441383
1.32409e-05
-0.000460016
1.05127e-05
-0.00047988
7.33515e-06
-0.00050085
-0.000523125
3.66941e-06
1.14689e-05
-9.77569e-05
1.93966e-05
-0.000253729
2.20674e-05
-0.000316404
2.21424e-05
-0.000338768
2.135e-05
-0.000351603
2.01897e-05
-0.000363634
1.87438e-05
-0.000376535
1.70207e-05
-0.00039046
1.50272e-05
-0.000405491
1.27516e-05
-0.000421598
1.01878e-05
-0.00043882
7.34184e-06
-0.00045717
4.18199e-06
-0.00047672
9.74743e-07
-0.000497642
-0.000518672
-3.47835e-06
1.06038e-05
-0.000108361
1.74781e-05
-0.000260604
1.94185e-05
-0.000318344
1.90486e-05
-0.000338398
1.79234e-05
-0.000350478
1.64496e-05
-0.00036216
1.46878e-05
-0.000374774
1.26393e-05
-0.000388412
1.03061e-05
-0.000403158
7.67655e-06
-0.000418968
4.75137e-06
-0.000435894
1.5041e-06
-0.000453923
-2.04072e-06
-0.000473175
-5.80537e-06
-0.000493878
-0.000514242
-1.02353e-05
9.59974e-06
-0.00011796
1.55409e-05
-0.000266545
1.68277e-05
-0.000319631
1.6047e-05
-0.000337618
1.45929e-05
-0.000349024
1.28019e-05
-0.000360369
1.07189e-05
-0.000372691
8.34373e-06
-0.000386037
5.66472e-06
-0.000400479
2.68018e-06
-0.000415984
-6.02264e-07
-0.000432612
-4.16079e-06
-0.000450365
-7.96774e-06
-0.000469368
-1.23722e-05
-0.000489473
-0.000509634
-1.698e-05
8.67298e-06
-0.000126633
1.36331e-05
-0.000271505
1.43071e-05
-0.000320305
1.3138e-05
-0.000336449
1.13593e-05
-0.000347245
9.24838e-06
-0.000358258
6.83713e-06
-0.000370279
4.13019e-06
-0.00038333
1.0867e-06
-0.000397435
-2.21042e-06
-0.000412687
-5.8119e-06
-0.000429011
-9.70746e-06
-0.000446469
-1.3908e-05
-0.000465168
-1.87385e-05
-0.000484643
-0.000504712
-2.36605e-05
7.77459e-06
-0.000134408
1.17849e-05
-0.000275515
1.18698e-05
-0.00032039
1.03215e-05
-0.0003349
8.22256e-06
-0.000345146
5.78755e-06
-0.000355823
3.03739e-06
-0.000367529
-5.76591e-08
-0.000380235
-3.34359e-06
-0.000394149
-6.98054e-06
-0.00040905
-1.09296e-05
-0.000425061
-1.51773e-05
-0.000442221
-1.97964e-05
-0.000460549
-2.49559e-05
-0.000479483
-0.000499418
-3.02499e-05
6.89405e-06
-0.000141302
1.00069e-05
-0.000278628
9.52327e-06
-0.000319906
7.60271e-06
-0.00033298
5.18063e-06
-0.000342724
2.40745e-06
-0.00035305
-6.82274e-07
-0.000364439
-4.00107e-06
-0.000376916
-7.67507e-06
-0.000390475
-1.1659e-05
-0.000405066
-1.59508e-05
-0.00042077
-2.05662e-05
-0.000437606
-2.56146e-05
-0.0004555
-3.10562e-05
-0.000474042
-0.000493737
-3.67374e-05
6.03967e-06
-0.000147342
8.30665e-06
-0.000280895
7.27075e-06
-0.00031887
4.98623e-06
-0.000330695
2.22243e-06
-0.000339961
-8.83676e-07
-0.000349944
-4.22921e-06
-0.000361094
-7.90603e-06
-0.000373239
-1.19152e-05
-0.000386466
-1.62386e-05
-0.000400742
-2.08745e-05
-0.000416134
-2.58573e-05
-0.000432623
-3.12764e-05
-0.000450081
-3.70431e-05
-0.000468275
-0.000487688
-4.30922e-05
5.21756e-06
-0.000152559