/*--------------------------------*- C++ -*----------------------------------*\
  =========                 |
  \\      /  F ield         | OpenFOAM: The Open Source CFD Toolbox
   \\    /   O peration     | Website:  https://openfoam.org
    \\  /    A nd           | Version:  7
     \\/     M anipulation  |
\*---------------------------------------------------------------------------*/
FoamFile
{
    version     2.0;
    format      ascii;
    class       volVectorField;
    location    "14.9985";
    object      U;
}
// * * * * * * * * * * * * * * * * * * * * * * * * * * * * * * * * * * * * * //

dimensions      [0 1 -1 0 0 0 0];

internalField   nonuniform List<vector> 
18750
(
(-0.042627 0.0264728 -1.51106e-20)
(-0.148297 0.0316818 4.81389e-21)
(-0.259812 0.0294835 4.65675e-20)
(-0.357297 0.027823 1.01782e-20)
(-0.453393 0.0262581 -2.30814e-20)
(-0.542315 0.0248562 -5.51029e-20)
(-0.628289 0.0235382 5.54477e-20)
(-0.708839 0.0223218 3.61592e-20)
(-0.78638 0.0211886 -2.69674e-20)
(-0.859701 0.0201566 -7.19559e-20)
(-0.930443 0.0192034 2.73108e-19)
(-0.997608 0.0182959 -2.24406e-19)
(-1.06201 0.0173756 1.33463e-19)
(-1.12248 0.0164348 -2.61233e-19)
(-1.17934 0.0155275 6.0866e-20)
(-0.0443592 0.0790774 9.46186e-21)
(-0.149554 0.094796 1.26237e-20)
(-0.259774 0.0882699 4.90951e-21)
(-0.356012 0.0833152 6.57372e-20)
(-0.450807 0.0786407 1.32831e-19)
(-0.538368 0.0744432 1.73894e-19)
(-0.622854 0.0704894 -1.45611e-19)
(-0.701764 0.066833 2.34714e-19)
(-0.777463 0.0634195 2.17549e-19)
(-0.848725 0.060303 -6.84433e-20)
(-0.917181 0.0574197 -2.89335e-19)
(-0.981818 0.0546775 1.4648e-20)
(-1.04339 0.0519064 6.51349e-20)
(-1.1006 0.0490749 1.70542e-19)
(-1.15371 0.046321 -2.60383e-19)
(-0.0477573 0.130386 2.60992e-20)
(-0.152031 0.156811 3.52234e-20)
(-0.259704 0.146155 -1.11913e-19)
(-0.35349 0.137977 5.88127e-21)
(-0.445742 0.130249 -2.48231e-19)
(-0.530661 0.123278 7.92947e-20)
(-0.612283 0.116693 -2.20571e-19)
(-0.688065 0.110585 -2.67046e-20)
(-0.760287 0.104866 -1.67408e-19)
(-0.82771 0.0996262 4.96626e-19)
(-0.891956 0.0947714 6.55693e-19)
(-0.952018 0.0901703 5.76452e-19)
(-1.00856 0.0855564 3.38775e-19)
(-1.06012 0.080854 2.29532e-19)
(-1.10678 0.0762232 -4.25611e-19)
(-0.052691 0.179572 -1.24587e-19)
(-0.155653 0.217017 1.43958e-19)
(-0.259612 0.202561 -1.05255e-19)
(-0.34982 0.19129 -2.1578e-19)
(-0.438398 0.180608 3.65363e-19)
(-0.519537 0.170911 -3.35924e-19)
(-0.59711 0.161713 4.88124e-19)
(-0.668532 0.153148 -4.09123e-19)
(-0.735983 0.145103 2.8502e-19)
(-0.798224 0.137704 -6.96198e-19)
(-0.856896 0.130841 -9.94793e-19)
(-0.911041 0.124369 5.456e-20)
(-0.961259 0.117949 -1.88995e-19)
(-1.0059 0.111437 -4.11225e-19)
(-1.04486 0.104943 1.56363e-18)
(-0.058969 0.225853 -8.91425e-20)
(-0.160298 0.274731 2.00414e-19)
(-0.259496 0.256949 4.84603e-20)
(-0.34511 0.242783 1.73151e-19)
(-0.429031 0.229297 -2.22137e-19)
(-0.505436 0.216955 9.50373e-20)
(-0.578005 0.20519 1.15127e-18)
(-0.644134 0.19419 1.76065e-19)
(-0.705897 0.183823 3.11093e-19)
(-0.762082 0.174257 -1.08292e-19)
(-0.814378 0.165378 9.45615e-20)
(-0.861934 0.157058 -3.80574e-20)
(-0.905343 0.148907 -1.07175e-18)
(-0.94278 0.140701 -6.01402e-19)
(-0.973909 0.132428 -1.77384e-18)
(-0.0663899 0.268566 2.03379e-19)
(-0.165838 0.329298 5.82789e-20)
(-0.259338 0.308828 -9.54157e-20)
(-0.33947 0.292049 -6.90166e-20)
(-0.417922 0.275964 7.1441e-20)
(-0.488833 0.261099 -9.92073e-19)
(-0.555685 0.24685 -1.27258e-19)
(-0.615876 0.233469 6.28707e-20)
(-0.67139 0.220826 -4.60877e-19)
(-0.721059 0.209128 -6.29772e-19)
(-0.766642 0.198274 4.58718e-19)
(-0.807449 0.188169 -4.54229e-19)
(-0.844122 0.178402 1.40805e-18)
(-0.874689 0.168663 -1.1021e-18)
(-0.898516 0.158765 2.42153e-18)
(-0.0747131 0.307056 -1.75945e-19)
(-0.172073 0.38009 -3.04155e-19)
(-0.259059 0.357787 1.2057e-19)
(-0.332995 0.338752 8.99556e-19)
(-0.405349 0.320327 9.01848e-19)
(-0.470204 0.303111 -3.09007e-19)
(-0.530847 0.286503 1.56549e-19)
(-0.584718 0.270841 1.00078e-19)
(-0.633716 0.256013 9.88708e-19)
(-0.676738 0.242272 1.3647e-18)
(-0.715609 0.229534 -6.63028e-19)
(-0.749837 0.217748 -1.27258e-18)
(-0.780155 0.206502 -2.36892e-18)
(-0.804478 0.195413 4.09431e-19)
(-0.821798 0.18408 -2.96288e-18)
(-0.0836475 0.340645 -1.49906e-19)
(-0.178767 0.426599 -1.78408e-19)
(-0.258546 0.403514 -1.29999e-18)
(-0.325764 0.382635 4.55751e-19)
(-0.391566 0.362175 -5.44861e-19)
(-0.449987 0.342827 3.65617e-19)
(-0.504128 0.324035 3.83286e-19)
(-0.551504 0.306232 -1.67892e-18)
(-0.593948 0.289355 -1.11327e-18)
(-0.630423 0.273705 -1.87437e-18)
(-0.662805 0.259214 -3.12822e-19)
(-0.690791 0.245877 1.35195e-18)
(-0.715241 0.233298 5.30501e-18)
(-0.733999 0.221048 -8.14584e-19)
(-0.745598 0.208497 1.45536e-18)
(-0.0928186 0.368683 8.10904e-19)
(-0.185625 0.468392 3.2781e-19)
(-0.257673 0.445787 1.42197e-18)
(-0.317832 0.423512 -1.04144e-18)
(-0.376796 0.401367 4.87472e-19)
(-0.428561 0.380155 -8.10111e-19)
(-0.476071 0.359393 -1.85383e-18)
(-0.516942 0.339632 1.64616e-18)
(-0.552951 0.320882 1.95308e-19)
(-0.583131 0.3035 2.79679e-18)
(-0.609359 0.287431 -9.10527e-19)
(-0.631491 0.2727 -4.11759e-18)
(-0.650505 0.258936 -2.51933e-18)
(-0.664239 0.245694 2.64208e-19)
(-0.670712 0.23213 -1.23025e-18)
(-0.101785 0.390621 -6.67463e-19)
(-0.1923 0.505149 -3.8197e-19)
(-0.256298 0.484452 4.8194e-19)
(-0.30924 0.461265 7.42796e-20)
(-0.361208 0.437816 -1.91094e-19)
(-0.406239 0.415055 -2.18706e-19)
(-0.447123 0.392582 8.4739e-19)
(-0.481592 0.371079 -9.98191e-19)
(-0.511379 0.350659 9.80839e-19)
(-0.535579 0.33175 1.22202e-18)
(-0.556016 0.314298 -2.17002e-18)
(-0.572628 0.298333 4.11763e-18)
(-0.586481 0.283503 4.83558e-19)
(-0.595483 0.269391 6.61506e-19)
(-0.597197 0.255011 1.52312e-18)
(-0.110024 0.405951 1.23912e-18)
(-0.198375 0.536566 -4.06367e-19)
(-0.254257 0.51942 -1.81548e-18)
(-0.299992 0.495821 7.15561e-19)
(-0.344937 0.471499 -4.14224e-19)
(-0.383263 0.447543 4.86044e-19)
(-0.417622 0.423645 3.58542e-18)
(-0.44587 0.400641 1.72148e-18)
(-0.469685 0.378774 1.13927e-18)
(-0.488227 0.358555 -3.81284e-18)
(-0.503204 0.33993 4.16305e-18)
(-0.514547 0.322908 1.52503e-18)
(-0.523345 0.307132 -2.46483e-18)
(-0.527657 0.29224 2.99335e-18)
(-0.524724 0.277204 -1.02338e-19)
(-0.116943 0.414296 2.43024e-19)
(-0.20344 0.56258 6.54988e-20)
(-0.251392 0.550608 -1.17263e-19)
(-0.290089 0.527165 -1.2773e-18)
(-0.328056 0.502431 2.54155e-18)
(-0.359806 0.477663 -1.29636e-18)
(-0.387822 0.452655 -3.79638e-18)
(-0.410067 0.428411 1.15585e-18)
(-0.428162 0.405326 -1.84793e-18)
(-0.441322 0.384009 2.86075e-18)
(-0.451097 0.364422 -5.1511e-18)
(-0.457325 0.346512 4.03127e-19)
(-0.46101 0.329874 2.19944e-18)
(-0.460393 0.314197 -4.62852e-18)
(-0.452758 0.298555 -1.09046e-18)
(-0.121772 0.415192 -8.11895e-19)
(-0.207009 0.583001 2.35162e-19)
(-0.24755 0.577936 7.20404e-19)
(-0.279461 0.555313 -3.33638e-20)
(-0.310615 0.530675 -3.44956e-18)
(-0.33599 0.505503 3.32898e-19)
(-0.357883 0.479702 1.23595e-18)
(-0.374364 0.454483 -3.3415e-18)
(-0.38697 0.430405 2.49683e-18)
(-0.394961 0.408188 -2.29505e-18)
(-0.399715 0.387823 6.28432e-18)
(-0.400915 0.369193 -2.61928e-18)
(-0.399385 0.351796 3.19338e-18)
(-0.393518 0.335341 6.50278e-18)
(-0.381093 0.319052 2.81975e-18)
(-0.123917 0.409023 -3.17927e-19)
(-0.208726 0.597965 -4.12767e-21)
(-0.242623 0.601243 -2.99006e-20)
(-0.268068 0.580364 -8.06971e-20)
(-0.29261 0.556324 -1.66544e-18)
(-0.311879 0.531145 -7.4008e-19)
(-0.327917 0.504881 1.20471e-18)
(-0.338872 0.478962 7.29306e-19)
(-0.346193 0.454106 -4.22928e-18)
(-0.349163 0.431155 -2.3643e-19)
(-0.34898 0.410162 -1.23327e-18)
(-0.345186 0.390967 2.51525e-18)
(-0.338354 0.372927 -3.52955e-18)
(-0.326847 0.355635 -5.00415e-19)
(-0.309088 0.338463 -3.18951e-18)
(-0.122881 0.39595 1.41105e-18)
(-0.208123 0.60698 -1.24986e-18)
(-0.236444 0.620518 -1.71798e-18)
(-0.255748 0.602411 3.06981e-18)
(-0.274057 0.579487 2.71756e-18)
(-0.287526 0.554716 3.48538e-18)
(-0.297972 0.528295 1.49847e-19)
(-0.303635 0.501933 2.37634e-18)
(-0.305851 0.476496 3.19007e-18)
(-0.303904 0.452954 4.76627e-18)
(-0.298804 0.431434 -2.20872e-18)
(-0.29 0.411788 4.65586e-18)
(-0.277901 0.393267 -2.53886e-20)
(-0.260647 0.37528 -2.37693e-18)
(-0.236699 0.356878 -5.93519e-18)
(-0.118352 0.375877 -8.84895e-19)
(-0.204755 0.609658 1.39182e-18)
(-0.22889 0.635923 9.26557e-19)
(-0.24249 0.621609 -2.88436e-18)
(-0.254931 0.600314 -1.35305e-18)
(-0.262932 0.57628 -2.49143e-19)
(-0.268087 0.550033 -1.82745e-18)
(-0.268681 0.523491 -3.13794e-18)
(-0.265952 0.497651 -5.35538e-18)
(-0.259174 0.473633 -2.32768e-18)
(-0.249138 0.45165 3.27249e-18)
(-0.235225 0.43162 -6.85915e-18)
(-0.217854 0.412798 2.38698e-19)
(-0.195315 0.394254 4.40214e-18)
(-0.163061 0.374567 6.36761e-18)
(-0.110097 0.34871 -2.11608e-18)
(-0.198359 0.605829 1.65179e-18)
(-0.219728 0.647354 -2.86354e-18)
(-0.228315 0.638155 -1.37947e-18)
(-0.235314 0.618979 -8.03849e-20)
(-0.238141 0.59596 1.91955e-18)
(-0.238265 0.570209 3.11676e-18)
(-0.234004 0.543703 1.03192e-18)
(-0.226472 0.517614 1.50278e-18)
(-0.214943 0.493212 -4.24401e-18)
(-0.199988 0.470817 1.13961e-19)
(-0.180837 0.450391 -3.28923e-18)
(-0.158107 0.431331 -2.44401e-18)
(-0.13093 0.412567 -7.04121e-18)
(-0.0906161 0.392477 -8.87386e-20)
(-0.0980401 0.314573 1.86226e-18)
(-0.188838 0.59535 2.94636e-19)
(-0.208855 0.654628 4.50059e-19)
(-0.213199 0.652026 3.42568e-18)
(-0.215227 0.635512 1.44804e-18)
(-0.213225 0.613903 -1.7866e-18)
(-0.208559 0.588937 1.40779e-18)
(-0.199645 0.56267 -8.19189e-19)
(-0.187427 0.53646 -1.64031e-18)
(-0.171202 0.511729 1.87013e-18)
(-0.151402 0.488967 -6.32299e-18)
(-0.126941 0.468129 -2.59066e-19)
(-0.0984823 0.44882 -3.61807e-18)
(-0.0674817 0.43006 5.61904e-18)
(-0.0178507 0.410995 5.18415e-19)
(-0.0824625 0.273863 -7.06987e-19)
(-0.176279 0.577925 -1.9875e-18)
(-0.196321 0.65739 5.30564e-19)
(-0.197182 0.663094 -3.93261e-18)
(-0.194693 0.649944 -2.69618e-18)
(-0.188213 0.630149 -1.5211e-18)
(-0.179011 0.606256 -2.67189e-18)
(-0.165634 0.580442 2.58743e-18)
(-0.148852 0.554249 3.65315e-18)
(-0.127953 0.529225 7.14034e-18)
(-0.103419 0.506105 -3.20458e-19)
(-0.073806 0.484855 8.10646e-18)
(-0.0389002 0.464999 3.20757e-18)
(-0.00543026 0.446475 2.5263e-18)
(0.0558749 0.430355 -5.61185e-18)
(-0.064302 0.227223 1.213e-18)
(-0.160972 0.552998 3.02138e-18)
(-0.182279 0.654985 2.07758e-18)
(-0.180376 0.671105 2.73692e-18)
(-0.173793 0.66225 1.23323e-20)
(-0.163149 0.644717 1.08512e-18)
(-0.149662 0.622171 2.96606e-20)
(-0.132015 0.59704 -1.99254e-18)
(-0.110801 0.57101 3.11859e-18)
(-0.0852241 0.545731 -1.08994e-17)
(-0.0559735 0.522243 3.2039e-18)
(-0.0218307 0.500751 -2.12489e-18)
(0.0209057 0.480114 4.19636e-19)
(0.0545229 0.460719 -3.20305e-18)
(0.130602 0.45025 -3.62555e-18)
(-0.0457361 0.175543 -1.97996e-18)
(-0.143475 0.51964 2.63906e-18)
(-0.166909 0.646398 -6.70922e-19)
(-0.162936 0.675593 -1.15086e-18)
(-0.152652 0.672327 2.42115e-18)
(-0.138137 0.65754 2.57226e-19)
(-0.120588 0.636661 -7.26686e-19)
(-0.0988204 0.612439 -8.57174e-20)
(-0.0733584 0.586772 -2.01203e-18)
(-0.0431251 0.561305 5.22714e-18)
(-0.00882972 0.537281 3.20594e-18)
(0.0284952 0.515754 1.70234e-18)
(0.0811218 0.494348 -1.58484e-19)
(0.111563 0.472601 4.10815e-18)
(0.207162 0.471944 -3.69809e-19)
(-0.0303969 0.120921 5.79354e-19)
(-0.124591 0.476531 -6.33156e-19)
(-0.150355 0.630254 4.905e-19)
(-0.145011 0.675809 2.13017e-18)
(-0.131458 0.67985 -1.36483e-18)
(-0.113315 0.668527 -8.88803e-19)
(-0.0919201 0.649636 -1.68081e-18)
(-0.0661469 0.626583 1.32785e-18)
(-0.0365687 0.601452 -1.38708e-18)
(-0.00196676 0.57602 -1.59477e-18)
(0.038466 0.551246 -2.7734e-18)
(0.0767491 0.530042 -1.6156e-18)
(0.14268 0.508778 5.91069e-18)
(0.1637 0.478197 -8.16685e-18)
(0.284233 0.494074 -2.18995e-19)
(-0.0206463 0.0680216 2.48077e-18)
(-0.105199 0.422136 -9.64011e-19)
(-0.132671 0.604985 -2.50663e-18)
(-0.126744 0.670626 -6.74356e-19)
(-0.110401 0.684254 3.56131e-18)
(-0.0888935 0.677348 -6.91517e-20)
(-0.0638476 0.660981 1.73619e-18)
(-0.0341373 0.639333 -9.55799e-19)
(-0.000415476 0.61492 -3.73323e-18)
(0.0376452 0.589899 8.68805e-18)
(0.0864011 0.563917 -6.40441e-18)
(0.122104 0.542635 1.90629e-18)
(0.207327 0.527661 -8.41147e-18)
(0.212698 0.480218 2.97915e-18)
(0.358207 0.507507 2.45406e-18)
(-0.0142226 0.022984 -8.82882e-19)
(-0.0854892 0.355029 -2.83843e-18)
(-0.113848 0.569051 1.28308e-18)
(-0.108246 0.658472 2.26896e-19)
(-0.0897297 0.684521 -3.19497e-18)
(-0.0650646 0.683618 1.98268e-18)
(-0.0366304 0.670368 9.82413e-20)
(-0.00319416 0.650554 -4.84951e-19)
(0.0353721 0.626786 -3.79762e-18)
(0.074917 0.602887 -4.47184e-19)
(0.135653 0.5761 5.09e-18)
(0.163142 0.549982 4.25814e-19)
(0.274035 0.549644 1.21417e-18)
(0.263152 0.489196 3.49741e-18)
(0.430076 0.516161 -8.95268e-18)
(-0.00677496 -0.00959362 -1.34366e-18)
(-0.065799 0.275298 4.19781e-20)
(-0.0938662 0.520977 -1.62806e-18)
(-0.0896771 0.637244 1.3204e-18)
(-0.0696614 0.679239 1.80077e-18)
(-0.0421884 0.686442 -1.35281e-18)
(-0.0104506 0.677445 -2.36881e-19)
(0.0260036 0.659922 -1.12854e-18)
(0.0710024 0.636701 2.85847e-18)
(0.108891 0.613926 5.44675e-19)
(0.186976 0.590266 -7.34517e-18)
(0.200224 0.551673 1.99739e-18)
(0.339538 0.565534 1.25272e-18)
(0.315243 0.503309 -5.64807e-18)
(0.500875 0.527882 1.30465e-18)
(0.00268911 -0.0282453 3.0396e-19)
(-0.048207 0.188096 8.12151e-19)
(-0.073405 0.459124 1.52472e-18)
(-0.0711914 0.604357 -1.28722e-18)
(-0.0505403 0.666373 -5.36341e-20)
(-0.0206357 0.684839 3.247e-18)
(0.0144415 0.681245 -1.52798e-19)
(0.0524569 0.667158 3.42128e-21)
(0.106782 0.644389 4.57717e-18)
(0.138383 0.620442 -2.62228e-18)
(0.239455 0.607277 1.89208e-18)
(0.2361 0.554225 -5.33252e-18)
(0.401524 0.572505 4.6016e-19)
(0.367999 0.513883 -1.41384e-18)
(0.567919 0.537953 2.46433e-18)
(0.0112459 -0.0352644 -2.26111e-19)
(-0.0335798 0.105909 1.02158e-18)
(-0.053767 0.382489 -1.35138e-18)
(-0.0532532 0.556965 2.83942e-18)
(-0.032635 0.64335 -2.38071e-18)
(-0.00132765 0.67677 -2.13283e-18)
(0.0381185 0.680843 -1.32327e-18)
(0.0749391 0.670878 -2.84271e-18)
(0.142298 0.651305 -5.52215e-18)
(0.163417 0.619554 8.63728e-19)
(0.289604 0.620814 4.36338e-18)
(0.273327 0.562391 3.50612e-18)
(0.457843 0.575627 6.04322e-19)
(0.421645 0.52268 -2.94657e-18)
(0.62991 0.542239 -1.48498e-18)
(0.016568 -0.0352461 5.48028e-19)
(-0.0186537 0.0428877 9.64132e-19)
(-0.0356256 0.291554 -4.08212e-18)
(-0.0364598 0.49283 -2.80684e-18)
(-0.016456 0.606934 -8.13757e-20)
(0.0148603 0.659977 2.22573e-18)
(0.0597913 0.67404 -8.04082e-19)
(0.0928991 0.668974 6.30737e-18)
(0.17596 0.657532 5.61603e-19)
(0.185376 0.615171 -3.5008e-18)
(0.332677 0.622797 -3.3428e-18)
(0.312194 0.569829 -5.35701e-18)
(0.506152 0.576058 5.91844e-18)
(0.473797 0.529988 3.94996e-18)
(0.686205 0.542562 -3.1718e-21)
(0.0186201 -0.0320561 -1.52517e-18)
(-0.00189326 0.00301724 -2.83637e-18)
(-0.0201185 0.191857 2.03452e-18)
(-0.0219916 0.410625 2.47892e-18)
(-0.00235288 0.553408 1.52702e-18)
(0.0263158 0.630327 -1.54237e-18)
(0.0789326 0.659666 3.90873e-18)
(0.10511 0.657294 -5.55498e-18)
(0.204596 0.659809 6.18655e-18)
(0.207614 0.609733 3.97523e-18)
(0.362673 0.617548 -1.22237e-18)
(0.350034 0.567434 -1.72891e-18)
(0.544919 0.571098 -2.35487e-18)
(0.518666 0.531538 -4.72652e-18)
(0.738798 0.532005 5.67857e-18)
(0.0186522 -0.0282342 4.31573e-18)
(0.013199 -0.0181876 3.3177e-18)
(-0.00666931 0.103298 7.52577e-19)
(-0.0112452 0.313472 -4.34679e-20)
(0.00872075 0.479569 -5.31521e-19)
(0.0324302 0.583277 -6.24816e-19)
(0.0921238 0.633372 -3.04365e-18)
(0.113841 0.63528 5.24036e-18)
(0.220209 0.650923 -4.07901e-18)
(0.233633 0.600486 -4.64368e-20)
(0.377227 0.608046 3.96594e-18)
(0.38751 0.5557 2.79595e-18)
(0.570233 0.561796 2.80179e-18)
(0.55516 0.524993 -3.19043e-20)
(0.777566 0.506788 -3.34494e-18)
(0.0185439 -0.0245903 -2.59392e-18)
(0.0248544 -0.0271929 -2.69567e-18)
(0.00809709 0.0434415 8.43521e-19)
(-0.00330999 0.212504 -1.3519e-18)
(0.0161696 0.385828 -6.24628e-19)
(0.0323385 0.513655 2.22196e-18)
(0.0968776 0.591571 -5.92413e-19)
(0.117625 0.596686 -5.49862e-19)
(0.22062 0.629537 -1.59375e-18)
(0.258888 0.578263 -3.66079e-18)
(0.376087 0.594613 1.71744e-18)
(0.429025 0.529748 -2.05498e-18)
(0.583662 0.562123 -3.22166e-18)
(0.574903 0.480315 -1.47089e-18)
(0.821072 0.518746 5.95857e-18)
(0.019501 -0.0216044 2.93815e-18)
(0.0345897 -0.0297872 -2.31411e-18)
(0.0241808 0.0114218 -3.79653e-18)
(0.00562737 0.126722 3.79425e-19)
(0.0199711 0.282999 9.062e-19)
(0.027885 0.420074 -6.11691e-19)
(0.0872407 0.527541 1.67605e-18)
(0.121864 0.543375 3.34632e-19)
(0.193706 0.578338 -2.00196e-19)
(0.296076 0.5555 1.59291e-19)
(0.332953 0.546402 -1.76988e-18)
(0.509217 0.522023 2.37476e-19)
(0.526588 0.518273 1.04168e-18)
(0.661061 0.457484 -8.22189e-19)
(0.820063 0.517704 5.59795e-18)
(0.0220025 -0.0197014 6.20803e-19)
(0.0435839 -0.0300358 -1.33556e-18)
(0.0383683 -0.00361153 3.7048e-18)
(0.0173366 0.0695744 2.85791e-18)
(0.0203394 0.189069 -2.8303e-18)
(0.0224591 0.315462 -1.75702e-19)
(0.0631659 0.434628 -1.25592e-18)
(0.119268 0.477855 -4.6757e-19)
(0.153799 0.495373 3.2792e-18)
(0.305536 0.510245 1.64445e-18)
(0.288797 0.468714 2.2219e-18)
(0.541294 0.495078 -1.82984e-18)
(0.424624 0.412615 1.26366e-18)
(0.771132 0.464022 -7.2223e-19)
(0.612229 0.383137 -7.14236e-18)
(0.0257362 -0.0191092 4.96449e-19)
(0.0515347 -0.0306406 7.90545e-19)
(0.0484075 -0.0119799 -2.04445e-18)
(0.0279373 0.0365595 -2.32547e-18)
(0.0186169 0.116973 -2.119e-18)
(0.014129 0.217984 1.83115e-19)
(0.0344356 0.324691 1.45408e-18)
(0.0946096 0.387953 -2.58895e-18)
(0.121771 0.405099 -1.29909e-18)
(0.260454 0.412334 7.09789e-19)
(0.276669 0.393759 -2.01625e-18)
(0.467451 0.396111 2.12119e-19)
(0.410375 0.333182 1.4567e-18)
(0.716381 0.393219 -2.04851e-18)
(0.454604 0.248233 1.67064e-18)
(0.0297788 -0.0196899 -1.11605e-18)
(0.0568471 -0.0328633 2.53862e-18)
(0.0525883 -0.0202735 1.68003e-18)
(0.0317003 0.0138769 1.12141e-18)
(0.0130301 0.0652781 1.81473e-18)
(-0.00126395 0.135888 -1.83871e-19)
(0.0057744 0.217775 -1.36079e-18)
(0.0503689 0.276267 3.069e-19)
(0.0875125 0.307815 1.71096e-18)
(0.195856 0.29147 -2.69707e-18)
(0.247379 0.296381 -1.2421e-18)
(0.39326 0.283416 1.20267e-19)
(0.408945 0.265017 -4.11905e-19)
(0.659015 0.315313 2.42862e-18)
(0.661932 0.297372 -2.31802e-18)
(0.0327564 -0.0209043 1.22227e-18)
(0.0575225 -0.0367214 8.22046e-19)
(0.0491724 -0.0310538 -9.49254e-20)
(0.0250475 -0.008164 -7.28403e-19)
(-0.00122925 0.0235445 1.59156e-19)
(-0.0256182 0.0668406 -2.1316e-18)
(-0.0280069 0.121869 4.52457e-19)
(-0.00323887 0.158288 -8.73273e-19)
(0.0411471 0.196001 -8.59806e-19)
(0.129521 0.169199 1.84203e-18)
(0.210217 0.182979 2.64884e-18)
(0.352127 0.189553 1.2914e-18)
(0.47585 0.2346 1.37596e-18)
(0.762427 0.317657 -1.8137e-18)
(0.938887 0.396518 -1.92805e-18)
(0.0331963 -0.0219652 1.01723e-18)
(0.0521315 -0.0413826 -1.92411e-18)
(0.0372729 -0.0440153 -9.32448e-19)
(0.00726579 -0.0324798 -2.09337e-18)
(-0.0269605 -0.0163056 9.40197e-19)
(-0.0601889 0.00474583 2.23935e-18)
(-0.0729155 0.0334881 -2.52473e-18)
(-0.0615586 0.0438479 8.61244e-19)
(-0.014263 0.0758436 1.50269e-18)
(0.0819467 0.0601811 4.23047e-19)
(0.219222 0.100443 -1.74654e-18)
(0.436844 0.170342 -7.4615e-19)
(0.673769 0.276201 -1.23284e-21)
(0.937119 0.369396 1.06562e-18)
(1.08083 0.439974 4.25036e-18)
(0.0299475 -0.0220429 -1.64124e-18)
(0.0402771 -0.0454981 -1.65063e-18)
(0.0174264 -0.057262 9.27964e-19)
(-0.020009 -0.0576205 3.71956e-18)
(-0.0633112 -0.0556023 -2.41363e-18)
(-0.10588 -0.052853 6.59037e-19)
(-0.129347 -0.0486279 9.8512e-19)
(-0.117489 -0.0578155 -9.03639e-20)
(-0.0458907 -0.0260632 1.90517e-19)
(0.122074 0.0092518 8.81845e-19)
(0.365946 0.105558 -8.14709e-19)
(0.638729 0.223218 -1.65397e-18)
(0.867777 0.329133 -1.54111e-18)
(1.0442 0.398085 1.28825e-18)
(1.13973 0.440247 4.11346e-19)
(0.0225578 -0.0204193 -4.07927e-19)
(0.0226749 -0.0473808 3.28526e-18)
(-0.00844792 -0.067855 6.96134e-19)
(-0.0536514 -0.079177 9.92847e-19)
(-0.106139 -0.0890156 9.04082e-19)
(-0.156664 -0.0999107 8.48354e-19)
(-0.180034 -0.11199 -2.86494e-19)
(-0.131107 -0.121018 5.53341e-19)
(0.0247569 -0.0630192 2.7162e-19)
(0.298487 0.0411433 1.16678e-18)
(0.584559 0.165372 2.39102e-20)
(0.81776 0.274749 1.13805e-18)
(0.982719 0.353322 -9.92169e-19)
(1.10044 0.399855 -9.87096e-19)
(1.17869 0.432829 6.84618e-19)
(0.0115274 -0.0166675 1.47688e-18)
(0.00125058 -0.0453509 -1.3465e-18)
(-0.0367855 -0.0721369 1.50037e-19)
(-0.0877859 -0.0906535 -2.02174e-18)
(-0.144369 -0.106921 -1.70297e-18)
(-0.191061 -0.122513 2.98804e-18)
(-0.187817 -0.134408 8.83555e-19)
(-0.0549685 -0.119186 -1.21414e-18)
(0.208166 -0.020293 3.67059e-19)
(0.517724 0.106715 -3.18211e-18)
(0.760953 0.215587 1.06819e-18)
(0.934371 0.301501 -1.31635e-18)
(1.05641 0.360115 1.57943e-18)
(1.14412 0.399538 -1.72749e-19)
(1.20255 0.426742 -9.98234e-19)
(-0.00173101 -0.0108685 -2.31308e-18)
(-0.0211434 -0.0383928 -2.36548e-18)
(-0.0628225 -0.0673258 -2.4297e-18)
(-0.114297 -0.0875159 -1.8619e-18)
(-0.165296 -0.102913 1.24933e-18)
(-0.192459 -0.113442 -5.23447e-18)
(-0.140211 -0.115685 4.76875e-19)
(0.103511 -0.0576647 5.06737e-19)
(0.422514 0.0571947 2.63531e-19)
(0.693843 0.162017 1.49348e-18)
(0.887732 0.24954 -1.25737e-18)
(1.02171 0.319092 2.90258e-18)
(1.11233 0.366509 -6.248e-19)
(1.17157 0.397626 -1.22568e-18)
(1.21106 0.41311 6.91374e-19)
(-0.0153015 -0.00369823 4.10111e-19)
(-0.0416215 -0.0269374 1.92336e-18)
(-0.0827504 -0.0537999 2.77301e-18)
(-0.128215 -0.0705194 4.4096e-19)
(-0.164722 -0.0792131 2.29752e-18)
(-0.16281 -0.0812757 1.31207e-18)
(-0.0443436 -0.0740138 4.25152e-19)
(0.298431 0.0247843 -2.09297e-18)
(0.603308 0.121318 -1.18433e-19)
(0.833802 0.205714 8.49938e-19)
(0.988477 0.278247 3.10941e-18)
(1.08658 0.333659 -3.74227e-19)
(1.14722 0.36815 1.07024e-18)
(1.18612 0.390223 1.01603e-18)
(1.21891 0.403987 1.65615e-18)
(-0.0273915 0.00374375 7.62819e-19)
(-0.0582251 -0.012781 -2.5579e-18)
(-0.0950177 -0.0344063 -5.43989e-19)
(-0.129497 -0.0444219 2.00796e-20)
(-0.146283 -0.0436801 -4.32906e-18)
(-0.112052 -0.040779 1.17938e-18)
(0.0966843 -0.00716737 -6.05795e-19)
(0.475707 0.0936927 7.12623e-19)
(0.754493 0.176051 2.25706e-18)
(0.946273 0.244694 -7.37959e-19)
(1.06192 0.302043 -2.43857e-18)
(1.12925 0.342167 -3.17822e-19)
(1.16979 0.367041 -3.65941e-19)
(1.19801 0.386407 -7.98742e-19)
(1.22075 0.393821 -1.78553e-18)
(-0.0367409 0.0103547 1.58992e-19)
(-0.0701121 0.00181578 6.9241e-19)
(-0.100093 -0.0130079 -1.81005e-18)
(-0.120548 -0.0154798 7.67662e-19)
(-0.117299 -0.00641034 1.79818e-18)
(-0.0441722 -0.00889996 -8.19082e-19)
(0.265781 0.0685503 -1.77294e-19)
(0.62908 0.153602 -1.90856e-18)
(0.878371 0.224501 3.63495e-19)
(1.03095 0.276808 -1.28519e-18)
(1.11387 0.319631 1.18331e-18)
(1.15937 0.348254 -9.60576e-19)
(1.18593 0.367345 1.6842e-18)
(1.20315 0.38026 -6.38799e-19)
(1.22198 0.384979 -1.31197e-18)
(-0.0427625 0.0153194 8.20676e-19)
(-0.0772683 0.0148224 5.12897e-19)
(-0.0993499 0.00690259 4.64699e-19)
(-0.104341 0.0119632 1.15844e-19)
(-0.0853877 0.0238279 8.30002e-19)
(0.0471656 0.0244546 -2.07344e-18)
(0.431234 0.12816 1.18298e-18)
(0.765389 0.205727 2.72721e-18)
(0.976047 0.26397 -2.68779e-19)
(1.09322 0.302209 1.92109e-18)
(1.15037 0.333997 1.13237e-18)
(1.17915 0.352981 1.8725e-19)
(1.19432 0.365575 3.5547e-19)
(1.2073 0.376168 6.69596e-19)
(1.22201 0.378417 1.54158e-18)
(-0.0455098 0.0182369 1.25281e-18)
(-0.0802334 0.024789 1.78877e-18)
(-0.0941784 0.0227892 -1.62143e-18)
(-0.0848096 0.0351931 1.49182e-18)
(-0.0508281 0.03907 -3.55619e-18)
(0.171423 0.0750434 9.18468e-19)
(0.577814 0.180388 -3.19916e-19)
(0.876294 0.249775 -1.69593e-18)
(1.04951 0.296176 -2.91579e-18)
(1.13704 0.322976 -1.07326e-18)
(1.17426 0.344923 -2.60709e-18)
(1.19121 0.355483 1.60065e-18)
(1.20078 0.365623 -2.12447e-18)
(1.20906 0.37212 1.43004e-18)
(1.22029 0.37128 9.69593e-19)
(-0.0455546 0.0190987 -2.96641e-18)
(-0.0799705 0.030838 1.00426e-19)
(-0.0858691 0.0337756 2.18925e-19)
(-0.0668249 0.0502267 4.18433e-19)
(-0.00450421 0.0380599 2.75139e-19)
(0.324938 0.126784 1.73549e-18)
(0.711594 0.225575 9.683e-19)
(0.96756 0.285968 -2.61651e-19)
(1.10439 0.321478 1.30507e-18)
(1.16684 0.33851 8.15884e-19)
(1.18954 0.352938 3.71234e-19)
(1.19934 0.358264 -9.01746e-19)
(1.2034 0.364896 2.93911e-18)
(1.2095 0.368447 5.07529e-19)
(1.21925 0.367215 -1.04417e-18)
(-0.0437929 0.0182067 2.72409e-18)
(-0.0775226 0.0328207 -1.94864e-18)
(-0.0758084 0.04037 6.27748e-19)
(-0.0527209 0.0530392 -6.54303e-20)
(0.0667603 0.0465885 3.28983e-18)
(0.476129 0.173026 -2.70132e-19)
(0.825146 0.263764 -1.16434e-18)
(1.03693 0.3146 2.78519e-18)
(1.14207 0.34064 2.5589e-19)
(1.18565 0.35065 1.06778e-18)
(1.19874 0.359595 -2.11439e-18)
(1.20308 0.359768 5.02414e-20)
(1.20492 0.365112 -9.17098e-19)
(1.20955 0.365931 -1.80685e-19)
(1.21611 0.362329 -6.09807e-19)
(-0.0412869 0.0160056 -7.29611e-19)
(-0.0738205 0.0310558 2.02245e-18)
(-0.066309 0.0429434 1.22314e-18)
(-0.0371942 0.0404932 9.78284e-19)
(0.181505 0.0826205 -5.49396e-19)
(0.613599 0.215463 -2.18741e-19)
(0.919013 0.295777 1.45693e-18)
(1.08993 0.337107 -1.18716e-18)
(1.16852 0.355333 3.5272e-19)
(1.19748 0.359865 -1.80791e-18)
(1.20348 0.364114 1.22208e-19)
(1.20535 0.361693 2.66228e-19)
(1.20493 0.365343 -3.8168e-19)
(1.208 0.362917 -2.25907e-18)
(1.21383 0.359771 9.38606e-19)
(-0.0391273 0.012961 -1.27479e-18)
(-0.0696216 0.0268132 -1.5928e-18)
(-0.0607958 0.0398164 8.3165e-19)
(-0.00592074 0.0189214 -1.15056e-19)
(0.3339 0.130066 -1.30825e-18)
(0.736747 0.251389 -4.91701e-20)
(0.994054 0.321238 -1.0368e-18)
(1.12805 0.354167 -2.02593e-18)
(1.18493 0.366005 -8.12319e-19)
(1.20331 0.366687 7.48082e-19)
(1.20556 0.368176 6.69519e-19)
(1.2053 0.363134 -6.5991e-20)
(1.20382 0.365697 -1.03588e-18)
(1.20675 0.361308 1.86727e-18)
(1.21008 0.357132 5.74262e-19)
(-0.0379699 0.00946262 1.24936e-18)
(-0.0654654 0.0223667 1.47504e-21)
(-0.0589116 0.0295849 -2.04244e-18)
(0.0565817 0.0151467 -4.82179e-20)
(0.484831 0.174635 3.1265e-19)
(0.840263 0.282587 5.88622e-19)
(1.05168 0.341882 -1.05996e-18)
(1.155 0.36726 5.55066e-19)
(1.19529 0.374167 -2.49928e-20)
(1.20634 0.372281 6.03596e-19)
(1.20556 0.371025 -5.32927e-19)
(1.20452 0.36477 -1.47563e-18)
(1.20236 0.366437 -7.14573e-20)
(1.20407 0.359154 -9.04164e-19)
(1.20653 0.355586 -7.72142e-19)
(-0.0378198 0.00588862 5.04324e-19)
(-0.0629528 0.0191038 -1.03191e-18)
(-0.052858 0.011798 1.03729e-18)
(0.16035 0.0509698 -3.21265e-19)
(0.615207 0.215433 -1.80103e-19)
(0.92563 0.30943 -5.25117e-19)
(1.09601 0.358097 8.36186e-19)
(1.17336 0.376948 5.39994e-19)
(1.20067 0.380131 -3.21535e-19)
(1.2063 0.376331 -9.01867e-19)
(1.20435 0.373689 -3.22973e-19)
(1.20262 0.366374 1.51266e-18)
(1.19974 0.366851 9.15233e-19)
(1.20162 0.358111 8.93292e-19)
(1.20245 0.35473 -2.72088e-19)
(-0.0385861 0.0034334 -3.19413e-19)
(-0.0640317 0.0150535 1.13427e-19)
(-0.0288802 -0.00934906 -4.24957e-19)
(0.302737 0.106688 -7.76952e-21)
(0.729672 0.24983 -3.32503e-19)
(0.993981 0.331352 -5.03509e-19)
(1.12847 0.371069 1.81855e-19)
(1.18509 0.3845 -1.06373e-18)
(1.20293 0.384864 9.42412e-19)
(1.20532 0.380057 1.19273e-18)
(1.20226 0.37587 1.48834e-19)
(1.20014 0.367962 -1.31182e-18)
(1.19724 0.367743 -1.262e-18)
(1.19823 0.356923 -9.43749e-19)
(1.19789 0.354034 3.74912e-19)
(-0.0401506 0.00370146 -1.02215e-18)
(-0.0673621 0.00837762 2.78426e-19)
(0.0215253 -0.0174646 -2.0183e-19)
(0.451648 0.15576 -4.75409e-21)
(0.82808 0.279589 -8.35639e-20)
(1.04757 0.349797 -1.89215e-19)
(1.15213 0.381413 3.61388e-19)
(1.19235 0.390272 -2.02437e-19)
(1.20312 0.388618 -2.70483e-19)
(1.20287 0.382888 -5.17203e-19)
(1.19949 0.377905 -4.55998e-19)
(1.1972 0.369714 -2.07522e-19)
(1.19375 0.368244 7.83863e-19)
(1.19471 0.356379 -3.05273e-20)
(1.19346 0.354319 6.03143e-19)
(-0.0419059 0.0072017 4.24948e-19)
(-0.0686607 -0.000617548 7.14158e-19)
(0.0974728 0.00385917 1.16476e-19)
(0.575992 0.197215 4.38252e-19)
(0.909687 0.306951 9.64377e-19)
(1.08933 0.365443 3.58213e-19)
(1.16851 0.389781 1.32507e-18)
(1.196 0.395063 7.03371e-19)
(1.20168 0.391873 4.42494e-19)
(1.20009 0.385768 1.012e-18)
(1.19637 0.379909 3.11598e-19)
(1.1937 0.371353 5.63865e-19)
(1.19038 0.369147 2.77769e-19)
(1.19079 0.356116 1.28331e-19)
(1.18829 0.354363 4.17308e-19)
(-0.0437333 0.0123221 5.91343e-19)
(-0.0616118 -0.0117192 -1.01135e-18)
(0.20168 0.0525043 -1.90527e-19)
(0.681857 0.234201 4.58018e-19)
(0.976196 0.330828 -9.71301e-19)
(1.12115 0.378843 -3.9925e-19)
(1.17968 0.396779 -8.17249e-19)
(1.19746 0.399059 -2.70823e-20)
(1.19955 0.394816 -2.20917e-19)
(1.19666 0.388209 -8.49857e-19)
(1.19275 0.381765 6.41793e-19)
(1.19005 0.373202 4.82146e-20)
(1.18632 0.369821 -2.71477e-20)
(1.18641 0.356114 2.24843e-19)
(1.18344 0.355199 -5.12117e-19)
(-0.0461061 0.0153657 -4.32759e-20)
(-0.0405314 -0.0209231 4.41873e-19)
(0.325729 0.106465 1.18074e-19)
(0.773915 0.265332 -6.40297e-19)
(1.02907 0.351158 4.29759e-19)
(1.14479 0.390234 1.37802e-19)
(1.18674 0.4028 -3.62004e-19)
(1.19714 0.402781 -1.71675e-19)
(1.19652 0.397654 -5.2209e-19)
(1.19299 0.390811 9.22488e-20)
(1.18899 0.383821 -6.20623e-19)
(1.18586 0.374955 -4.35803e-19)
(1.1822 0.370761 1.15278e-19)
(1.18197 0.356596 1.17901e-19)
(1.178 0.355759 -2.04086e-19)
(-0.0491055 0.0129149 -2.19416e-19)
(-0.00394042 -0.0220161 -1.39433e-19)
(0.450253 0.153995 3.05574e-19)
(0.854184 0.293399 5.50867e-19)
(1.07084 0.368425 1.07189e-19)
(1.16169 0.399937 -2.96774e-19)
(1.19078 0.408227 3.75102e-19)
(1.19576 0.406303 3.26981e-19)
(1.1933 0.40052 1.70049e-19)
(1.18907 0.39328 3.22391e-20)
(1.1848 0.385756 1.9926e-19)
(1.1816 0.376881 8.75226e-20)
(1.17769 0.371668 -6.03939e-20)
(1.17697 0.357118 -7.59521e-20)
(1.17276 0.356719 6.62407e-20)
(-0.0523797 0.00307928 -1.02413e-19)
(0.0476288 -0.0129245 -1.20186e-19)
(0.560076 0.195125 9.89052e-20)
(0.923528 0.319672 -1.30885e-19)
(1.10387 0.383657 -2.7937e-19)
(1.17345 0.408359 2.16599e-20)
(1.19246 0.413204 1.72539e-19)
(1.19346 0.40989 -1.56208e-19)
(1.18952 0.403484 1.03322e-19)
(1.18484 0.395928 2.07397e-19)
(1.18049 0.387971 3.30289e-20)
(1.17689 0.378781 8.16389e-20)
(1.17293 0.372715 -9.77705e-20)
(1.17202 0.358096 6.62767e-20)