/*--------------------------------*- C++ -*----------------------------------*\
  =========                 |
  \\      /  F ield         | OpenFOAM: The Open Source CFD Toolbox
   \\    /   O peration     | Website:  https://openfoam.org
    \\  /    A nd           | Version:  7
     \\/     M anipulation  |
\*---------------------------------------------------------------------------*/
FoamFile
{
    version     2.0;
    format      ascii;
    class       volScalarField;
    location    "0.5";
    object      p;
}
// * * * * * * * * * * * * * * * * * * * * * * * * * * * * * * * * * * * * * //

dimensions      [0 2 -2 0 0 0 0];

internalField   nonuniform List<scalar> 
10000
(
2.73179e-08
1.02169e-06
-1.40496e-05
-4.54961e-05
-8.95778e-05
-0.000142056
-0.000199325
-0.000258434
-0.000317098
-0.000373523
-0.000426289
-0.000474312
-0.000516797
-0.000553169
-0.000582987
-0.000605931
-0.000621818
-0.000630566
-0.000632139
-0.000626515
-0.000613669
-0.000593611
-0.000566397
-0.000532105
-0.000490791
-0.000442474
-0.000387159
-0.000324858
-0.000255608
-0.000179452
-9.64289e-05
-6.55679e-06
9.01548e-05
0.000193688
0.000304002
0.000421022
0.000544641
0.00067472
0.000811097
0.000953586
0.00110197
0.00125598
0.00141533
0.00157965
0.0017485
0.0019214
0.00209779
0.00227705
0.00245855
0.00264157
0.00282537
0.00300917
0.00319214
0.00337339
0.00355204
0.00372713
0.00389771
0.00406283
0.0042215
0.00437279
0.00451577
0.00464956
0.00477332
0.00488629
0.00498778
0.00507717
0.00515395
0.00521771
0.00526814
0.00530505
0.00532839
0.00533821
0.00533472
0.00531824
0.00528921
0.00524824
0.00519602
0.00513337
0.00506124
0.00498066
0.00489276
0.00479875
0.00469993
0.00459763
0.00449326
0.00438828
0.00428415
0.00418239
0.00408451
0.00399204
0.00390648
0.00382933
0.00376204
0.00370597
0.00366234
0.00363205
0.00361549
0.00361202
0.00361951
0.00363234
5.46247e-06
6.29027e-06
-7.15545e-06
-3.37193e-05
-7.01563e-05
-0.000113609
-0.000161436
-0.000211253
-0.000261065
-0.000309237
-0.00035445
-0.00039569
-0.000432184
-0.000463318
-0.000488604
-0.000507693
-0.000520365
-0.000526484
-0.000525955
-0.000518695
-0.000504648
-0.000483801
-0.000456191
-0.000421866
-0.000380853
-0.000333146
-0.000278742
-0.000217656
-0.000149928
-7.56051e-05
5.27648e-06
9.26975e-05
0.000186645
0.000287095
0.000393993
0.000507251
0.000626746
0.00075233
0.000883838
0.00102108
0.00116384
0.00131187
0.00146486
0.00162246
0.00178424
0.00194972
0.00211837
0.0022896
0.00246279
0.00263728
0.00281236
0.00298729
0.00316129
0.00333353
0.00350318
0.00366935
0.00383114
0.00398766
0.00413802
0.00428132
0.00441672
0.00454339
0.00466058
0.00476757
0.00486375
0.00494855
0.00502151
0.00508226
0.00513052
0.00516616
0.00518911
0.00519947
0.00519743
0.00518331
0.00515755
0.0051207
0.00507345
0.00501656
0.00495093
0.00487753
0.00479742
0.00471174
0.00462168
0.0045285
0.0044335
0.00433803
0.00424344
0.00415111
0.00406241
0.00397871
0.00390135
0.00383162
0.00377073
0.00371978
0.00367968
0.00365104
0.00363395
0.00362787
0.00363227
0.00364512
2.99703e-05
2.72736e-05
1.25033e-05
-1.25574e-05
-4.53332e-05
-8.37595e-05
-0.000125806
-0.000169573
-0.000213358
-0.000255697
-0.000295411
-0.000331596
-0.000363521
-0.000390563
-0.000412232
-0.000428193
-0.000438228
-0.000442166
-0.000439858
-0.000431185
-0.00041608
-0.000394532
-0.000366566
-0.000332203
-0.000291436
-0.000244239
-0.000190608
-0.000130565
-6.41588e-05
8.56845e-06
8.75891e-05
0.00017289
0.000264458
0.000362264
0.000466244
0.000576301
0.000692302
0.000814099
0.000941524
0.0010744
0.00121251
0.00135561
0.0015034
0.00165552
0.00181157
0.00197107
0.00213351
0.00229832
0.00246491
0.00263264
0.00280084
0.00296881
0.0031358
0.00330103
0.00346369
0.00362294
0.00377795
0.00392786
0.00407181
0.00420898
0.00433857
0.0044598
0.00457195
0.00467437
0.00476647
0.00484774
0.00491774
0.00497613
0.00502268
0.00505724
0.0050798
0.00509043
0.00508934
0.00507685
0.00505338
0.00501947
0.00497577
0.00492302
0.00486208
0.00479388
0.00471942
0.00463977
0.00455608
0.00446953
0.00438135
0.00429278
0.00420511
0.00411959
0.0040375
0.00396008
0.00388854
0.00382404
0.00376762
0.00372024
0.00368266
0.00365542
0.00363862
0.00363199
0.00363656
0.00365266
7.05967e-05
6.10559e-05
4.26888e-05
1.66728e-05
-1.53146e-05
-5.15749e-05
-9.04915e-05
-0.000130545
-0.000170316
-0.000208561
-0.000244278
-0.000276667
-0.000305039
-0.000328804
-0.000347518
-0.000360888
-0.000368699
-0.000370757
-0.000366885
-0.000356957
-0.00034091
-0.000318736
-0.000290449
-0.000256048
-0.000215498
-0.000168762
-0.000115837
-5.67582e-05
8.42638e-06
7.96811e-05
0.000156993
0.000240359
0.000329768
0.000425182
0.00052653
0.000633706
0.000746583
0.000865014
0.000988843
0.00111789
0.00125196
0.0013908
0.00153412
0.00168158
0.00183276
0.00198723
0.00214446
0.00230393
0.00246505
0.00262722
0.00278979
0.00295209
0.0031134
0.00327297
0.00343002
0.00358375
0.00373335
0.003878
0.00401688
0.00414921
0.0042742
0.00439114
0.00449932
0.00459813
0.00468701
0.00476547
0.00483311
0.00488959
0.00493471
0.00496833
0.00499045
0.00500115
0.00500064
0.00498922
0.00496732
0.00493547
0.00489429
0.00484451
0.00478695
0.0047225
0.00465213
0.00457688
0.00449784
0.00441612
0.0043329
0.00424936
0.0041667
0.00408612
0.00400879
0.00393587
0.00386846
0.00380763
0.00375432
0.00370941
0.00367361
0.00364748
0.00363122
0.00362489
0.00363049
0.00364961
0.000122325
0.000103859
8.03376e-05
5.19116e-05
1.91664e-05
-1.65103e-05
-5.37919e-05
-9.14465e-05
-0.00012834
-0.000163487
-0.000196054
-0.000225326
-0.000250683
-0.000271614
-0.000287745
-0.00029882
-0.000304619
-0.000304936
-0.000299598
-0.000288496
-0.00027158
-0.000248837
-0.000220263
-0.000185833
-0.000145502
-9.92315e-05
-4.70249e-05
1.10793e-05
7.50363e-05
0.000144823
0.000220441
0.000301898
0.000389184
0.000482253
0.000581025
0.000685395
0.000795241
0.000910429
0.00103081
0.00115623
0.00128647
0.0014213
0.00156045
0.00170356
0.00185024
0.00200006
0.00215253
0.00230713
0.00246331
0.00262048
0.00277801
0.00293526
0.00309153
0.0032461
0.00339822
0.00354711
0.003692
0.00383208
0.00396657
0.0040947
0.00421574
0.00432897
0.00443374
0.00452944
0.00461553
0.00469156
0.00475712
0.00481191
0.00485573
0.00488846
0.00491009
0.00492071
0.00492054
0.00490988
0.00488914
0.00485883
0.00481958
0.00477209
0.00471715
0.00465564
0.00458849
0.00451669
0.00444131
0.00436341
0.00428411
0.00420454
0.00412583
0.00404912
0.0039755
0.00390606
0.00384184
0.00378379
0.00373281
0.0036897
0.00365518
0.0036298
0.00361389
0.00360769
0.00361372
0.0036341
0.000181794
0.000153096
0.000123207
9.12322e-05
5.65381e-05
2.02136e-05
-1.66177e-05
-5.29865e-05
-8.80312e-05
-0.000120995
-0.000151186
-0.000177977
-0.000200852
-0.000219408
-0.000233348
-0.000242439
-0.00024646
-0.000245207
-0.000238538
-0.000226379
-0.000208693
-0.000185457
-0.000156644
-0.000122212
-8.21161e-05
-3.63288e-05
1.51401e-05
7.22544e-05
0.000134981
0.000203313
0.000277263
0.000356847
0.000442053
0.000532832
0.0006291
0.000730754
0.000837685
0.000949772
0.00106688
0.00118886
0.00131552
0.00144662
0.00158188
0.00172098
0.00186354
0.00200913
0.00215729
0.00230752
0.00245928
0.002612
0.00276509
0.00291791
0.0030698
0.00322003
0.0033679
0.00351264
0.00365349
0.00378969
0.00392045
0.00404505
0.00416275
0.00427286
0.00437476
0.00446784
0.00455159
0.00462555
0.00468934
0.00474267
0.00478534
0.00481723
0.00483835
0.00484878
0.00484874
0.00483853
0.00481856
0.00478933
0.00475144
0.0047056
0.00465257
0.00459322
0.00452844
0.00445921
0.00438655
0.00431149
0.00423511
0.00415849
0.00408271
0.00400886
0.00393796
0.00387105
0.00380908
0.00375297
0.00370355
0.00366158
0.00362776
0.00360267
0.00358668
0.00358017
0.00358577
0.00360571
0.000246012
0.000206388
0.000169335
0.000132899
9.52804e-05
5.73391e-05
1.99941e-05
-1.60522e-05
-5.01693e-05
-8.17631e-05
-0.000110271
-0.000135189
-0.000156125
-0.000172782
-0.000184922
-0.000192337
-0.000194822
-0.000192204
-0.000184381
-0.000171314
-0.000152977
-0.000129334
-0.00010034
-6.59492e-05
-2.61243e-05
1.91491e-05
6.98551e-05
0.000125965
0.000187461
0.000254355
0.000326672
0.000404427
0.000487607
0.000576159
0.000670004
0.00076905
0.000873199
0.000982347
0.00109638
0.00121514
0.00133847
0.00146611
0.00159782
0.00173327
0.0018721
0.00201389
0.0021582
0.00230456
0.00245244
0.0026013
0.00275055
0.00289957
0.00304771
0.00319429
0.00333859
0.00347987
0.00361739
0.00375038
0.0038781
0.00399981
0.0041148
0.0042224
0.00432197
0.00441294
0.0044948
0.00456708
0.00462943
0.00468154
0.00472321
0.00475435
0.00477495
0.00478511
0.00478502
0.00477499
0.00475542
0.00472682
0.00468977
0.00464497
0.00459318
0.00453523
0.00447202
0.0044045
0.00433365
0.00426049
0.00418606
0.0041114
0.00403757
0.00396559
0.00389645
0.00383112
0.00377052
0.00371551
0.00366689
0.00362537
0.00359164
0.00356628
0.0035497
0.00354233
0.00354668
0.0035648
0.000312225
0.000261461
0.000216796
0.000175282
0.000134033
9.37321e-05
5.50929e-05
1.85766e-05
-1.53548e-05
-4.624e-05
-7.36569e-05
-9.72514e-05
-0.000116756
-0.000131955
-0.000142655
-0.000148679
-0.000149868
-0.000146098
-0.000137318
-0.000123509
-0.000104647
-8.0687e-05
-5.15804e-05
-1.72898e-05
2.22092e-05
6.69211e-05
0.000116829
0.000171915
0.000232179
0.000297647
0.000368355
0.000444317
0.000525517
0.000611903
0.000703403
0.00079994
0.000901434
0.0010078
0.00111893
0.0012347
0.00135493
0.0014794
0.00160785
0.00173998
0.00187544
0.00201385
0.00215476
0.00229772
0.00244223
0.00258776
0.00273374
0.00287956
0.00302458
0.00316814
0.00330951
0.00344799
0.00358282
0.00371326
0.00383857
0.00395802
0.00407091
0.00417656
0.00427435
0.0043637
0.0044441
0.00451509
0.0045763
0.00462744
0.00466831
0.0046988
0.0047189
0.00472871
0.00472843
0.00471836
0.00469889
0.00467053
0.00463386
0.00458955
0.00453838
0.00448117
0.00441879
0.00435218
0.00428231
0.00421019
0.00413682
0.00406322
0.00399041
0.00391939
0.00385111
0.0037865
0.00372644
0.00367174
0.00362318
0.00358145
0.0035472
0.00352101
0.00350329
0.00349448
0.00349686
0.00351215
0.00037811
0.000316259
0.000263788
0.000216842
0.00017148
0.000128238
8.76764e-05
5.00786e-05
1.57588e-05
-1.49593e-05
-4.18051e-05
-6.45706e-05
-8.30941e-05
-9.72226e-05
-0.000106804
-0.000111709
-0.000111844
-0.000107148
-9.76084e-05
-8.32251e-05
-6.39678e-05
-3.97892e-05
-1.06521e-05
2.3464e-05
6.25675e-05
0.000106657
0.000155724
0.000209761
0.000268785
0.000332833
0.000401947
0.000476141
0.000555399
0.000639672
0.0007289
0.000823024
0.000921983
0.00102571
0.00113412
0.00124708
0.00136444
0.00148599
0.00161147
0.00174061
0.00187306
0.00200845
0.00214638
0.00228639
0.00242802
0.00257073
0.00271397
0.00285715
0.00299963
0.00314075
0.00327981
0.0034161
0.00354887
0.00367739
0.0038009
0.00391869
0.00403005
0.00413431
0.00423083
0.00431904
0.00439841
0.00446849
0.0045289
0.00457933
0.00461959
0.00464955
0.00466921
0.00467866
0.00467809
0.00466779
0.00464816
0.0046197
0.00458299
0.00453871
0.00448761
0.00443052
0.0043683
0.00430189
0.00423225
0.00416036
0.00408723
0.00401386
0.00394123
0.00387033
0.00380207
0.00373737
0.00367706
0.00362194
0.00357274
0.00353014
0.00349477
0.00346719
0.0034478
0.00343704
0.00343684
0.00344859
0.000441745
0.000369001
0.000308697
0.000256115
0.000206303
0.000159681
0.000116733
7.76021e-05
4.24457e-05
1.14346e-05
-1.53027e-05
-3.76742e-05
-5.55994e-05
-6.89842e-05
-7.77329e-05
-8.17853e-05
-8.11153e-05
-7.57213e-05
-6.56209e-05
-5.08228e-05
-3.12993e-05
-7.01138e-06
2.20595e-05
5.59109e-05
9.45374e-05
0.000137937
0.00018611
0.000239067
0.000296837
0.000359464
0.00042699
0.000499432
0.000576775
0.000658981
0.000746005
0.000837804
0.000934341
0.00103557
0.00114141
0.00125176
0.00136646
0.00148532
0.00160811
0.00173454
0.0018643
0.00199705
0.00213239
0.00226988
0.00240907
0.00254944
0.00269046
0.00283152
0.00297202
0.00311128
0.00324862
0.00338331
0.00351461
0.0036418
0.00376411
0.00388082
0.00399122
0.00409462
0.00419039
0.00427794
0.00435673
0.00442629
0.00448623
0.00453624
0.0045761
0.00460569
0.00462499
0.00463409
0.00463316
0.0046225
0.00460251
0.00457366
0.00453656
0.00449187
0.00444036
0.00438284
0.00432019
0.00425332
0.00418321
0.00411083
0.00403718
0.00396325
0.00389002
0.00381844
0.00374942
0.00368386
0.00362256
0.00356631
0.00351581
0.00347172
0.00343465
0.00340514
0.00338359
0.00337041
0.00336718
0.00337492
0.000501504
0.000418128
0.000350038
0.000291693
0.000237209
0.000186927
0.000141282
0.000100281
6.39207e-05
3.22221e-05
5.19915e-06
-1.71411e-05
-3.47856e-05
-4.77078e-05
-5.58882e-05
-5.93446e-05
-5.81175e-05
-5.2248e-05
-4.1775e-05
-2.67153e-05
-7.05573e-06
1.72228e-05
4.61151e-05
7.95979e-05
0.000117656
0.00016029
0.000207515
0.000259355
0.000315847
0.000377039
0.000442974
0.000513669
0.000589117
0.000669293
0.000754169
0.000843725
0.000937942
0.00103679
0.00114022
0.00124813
0.00136037
0.00147677
0.0015971
0.00172111
0.0018485
0.00197893
0.00211205
0.00224742
0.0023846
0.0025231
0.00266237
0.00280183
0.00294086
0.00307881
0.00321497
0.00334864
0.00347906
0.00360549
0.00372718
0.00384338
0.00395337
0.00405646
0.00415199
0.00423936
0.00431801
0.00438745
0.00444728
0.00449717
0.00453688
0.00456629
0.00458535
0.00459415
0.00459285
0.00458174
0.00456121
0.00453176
0.00449396
0.00444851
0.00439615
0.00433771
0.00427407
0.00420616
0.00413493
0.00406139
0.00398652
0.0039113
0.00383673
0.00376373
0.00369322
0.00362607
0.00356308
0.00350502
0.00345258
0.00340641
0.00336708
0.00333514
0.00331097
0.00329496
0.00328835
0.00329177
0.000555907
0.000462202
0.000386415
0.000322263
0.000263
0.00020891
0.00016036
0.000117219
7.9345e-05
4.66365e-05
1.90174e-05
-3.57686e-06
-2.1204e-05
-3.39161e-05
-4.178e-05
-4.48904e-05
-4.33411e-05
-3.72029e-05
-2.65314e-05
-1.13601e-05
8.30083e-06
3.24423e-05
6.10319e-05
9.403e-05
0.000131419
0.000173209
0.000219425
0.000270102
0.000325282
0.000385015
0.00044934
0.000518284
0.000591846
0.000670019
0.000752795
0.000840176
0.000932166
0.00102875
0.0011299
0.00123551
0.00134547
0.00145961
0.00157772
0.00169956
0.00182486
0.00195331
0.00208454
0.00221817
0.00235375
0.0024908
0.00262877
0.00276711
0.00290518
0.00304234
0.00317787
0.00331106
0.00344116
0.0035674
0.00368903
0.00380528
0.00391542
0.00401873
0.00411454
0.00420222
0.00428119
0.00435094
0.00441103
0.00446113
0.00450098
0.00453042
0.00454941
0.004558
0.00455636
0.00454476
0.0045236
0.00449335
0.00445462
0.00440808
0.0043545
0.00429471
0.00422959
0.00416009
0.00408718
0.00401184
0.00393509
0.00385792
0.0037813
0.00370619
0.00363348
0.00356405
0.0034987
0.00343818
0.00338319
0.00333435
0.00329225
0.00325739
0.00323019
0.00321101
0.00320073
0.00319968
0.000603582
0.000499881
0.000416554
0.000346638
0.000282584
0.000224608
0.000172998
0.000127498
8.7861e-05
5.38977e-05
2.54526e-05
2.38312e-06
-1.54512e-05
-2.81891e-05
-3.59786e-05
-3.89776e-05
-3.73195e-05
-3.10991e-05
-2.03918e-05
-5.25793e-06
1.42617e-05
3.81263e-05
6.62795e-05
9.86713e-05
0.000135287
0.000176147
0.000221287
0.000270747
0.000324568
0.000382799
0.000445486
0.000512658
0.000584331
0.000660516
0.000741228
0.000826489
0.000916324
0.00101074
0.00110972
0.00121318
0.00132101
0.00143307
0.00154916
0.00166907
0.00179254
0.00191928
0.00204896
0.0021812
0.00231555
0.00245155
0.00258867
0.00272633
0.00286392
0.00300078
0.0031362
0.00326945
0.00339977
0.00352638
0.0036485
0.00376537
0.00387621
0.00398029
0.00407691
0.0041654
0.00424517
0.00431567
0.00437645
0.00442712
0.00446742
0.00449716
0.00451627
0.0045248
0.0045229
0.00451082
0.00448897
0.00445781
0.00441795
0.00437008
0.00431495
0.00425343
0.0041864
0.00411482
0.00403968
0.00396198
0.00388274
0.00380297
0.00372366
0.00364576
0.00357019
0.00349782
0.00342945
0.00336585
0.00330771
0.00325567
0.00321028
0.00317206
0.00314143
0.00311877
0.00310461
0.00309898
0.000643299
0.000529951
0.000439305
0.000363731
0.000294908
0.000232993
0.000178207
0.000130194
8.86249e-05
5.32373e-05
2.3795e-05
6.66291e-08
-1.81795e-05
-3.11653e-05
-3.91052e-05
-4.22035e-05
-4.06246e-05
-3.44887e-05
-2.39012e-05
-8.9569e-06
1.02695e-05
3.37074e-05
6.12829e-05
9.29431e-05
0.000128679
0.000168519
0.000212506
0.00026068
0.000313081
0.000369757
0.000430757
0.000496125
0.000565893
0.00064009
0.000718756
0.000801936
0.000889675
0.000981998
0.00107889
0.00118031
0.00128615
0.00139628
0.00151053
0.00162871
0.00175059
0.0018759
0.00200431
0.00213547
0.00226894
0.00240427
0.00254093
0.00267836
0.00281592
0.00295296
0.00308876
0.00322259
0.00335366
0.00348118
0.00360436
0.0037224
0.0038345
0.00393991
0.00403788
0.00412772
0.00420879
0.00428052
0.00434242
0.00439407
0.00443518
0.00446553
0.00448502
0.00449369
0.00449165
0.00447917
0.00445663
0.0044245
0.00438338
0.00433397
0.00427704
0.00421346
0.00414414
0.00407004
0.00399218
0.00391159
0.00382929
0.00374633
0.0036637
0.00358238
0.0035033
0.00342735
0.00335534
0.00328806
0.00322619
0.00317039
0.00312123
0.00307922
0.00304479
0.00301835
0.00300013
0.00298984
0.000673976
0.000551332
0.000453602
0.000372494
0.000298935
0.000233048
0.000175021
0.000124414
8.08192e-05
4.38939e-05
1.33159e-05
-1.12381e-05
-3.00877e-05
-4.3524e-05
-5.18111e-05
-5.51895e-05
-5.38551e-05
-4.79597e-05
-3.76465e-05
-2.30494e-05
-4.27778e-06
1.85767e-05
4.54315e-05
7.62328e-05
0.000110978
0.000149702
0.000192448
0.000239253
0.000290155
0.000345204
0.000404457
0.000467971
0.000535798
0.000607993
0.000684615
0.000765731
0.000851406
0.000941682
0.00103656
0.00113602
0.00123996
0.00134829
0.00146086
0.00157749
0.00169798
0.00182208
0.00194949
0.00207985
0.00221276
0.00234777
0.00248435
0.00262193
0.00275989
0.00289757
0.00303424
0.00316914
0.00330149
0.00343047
0.00355526
0.00367503
0.00378896
0.00389626
0.00399614
0.00408788
0.0041708
0.00424428
0.00430778
0.00436087
0.00440319
0.00443451
0.0044547
0.00446375
0.00446178
0.00444903
0.00442586
0.00439276
0.00435031
0.00429923
0.0042403
0.00417439
0.00410243
0.00402543
0.00394442
0.00386044
0.00377456
0.00368783
0.00360129
0.00351594
0.00343274
0.00335258
0.00327633
0.00320477
0.00313861
0.00307853
0.0030251
0.00297886
0.00294027
0.00290977
0.00288731
0.00287231
0.000694627
0.000563014
0.000458413
0.000371891
0.000293656
0.000223814
0.000162541
0.000109318
6.3648e-05
2.50989e-05
-6.7405e-06
-3.22764e-05
-5.19015e-05
-6.59609e-05
-7.47592e-05
-7.85719e-05
-7.76307e-05
-7.21289e-05
-6.22509e-05
-4.8167e-05
-3.00152e-05
-7.90307e-06
1.80848e-05
4.78988e-05
8.15384e-05
0.000119039
0.000160439
0.000205774
0.00025508
0.000308411
0.000365835
0.000427428
0.000493263
0.000563417
0.000637973
0.000717017
0.000800633
0.00088888
0.000981783
0.00107933
0.00118145
0.00128807
0.00139906
0.00151428
0.00163355
0.00175663
0.00188326
0.00201308
0.00214571
0.0022807
0.00241754
0.00255565
0.00269442
0.00283316
0.00297115
0.00310762
0.00324175
0.00337272
0.00349968
0.00362176
0.00373811
0.00384788
0.00395027
0.0040445
0.00412984
0.00420562
0.00427127
0.00432629
0.0043703
0.00440301
0.00442427
0.00443404
0.0044324
0.00441958
0.00439592
0.00436191
0.00431814
0.00426531
0.00420423
0.00413578
0.00406093
0.00398068
0.00389611
0.0038083
0.00371833
0.00362731
0.00353631
0.00344634
0.00335841
0.00327345
0.00319234
0.00311591
0.0030449
0.00298
0.00292183
0.00287093
0.00282781
0.00279296
0.00276606
0.00274627
0.000704304
0.000564017
0.000452737
0.000360931
0.000278123
0.0002044
0.000139923
8.40913e-05
3.63103e-05
-3.94107e-06
-3.7157e-05
-6.38122e-05
-8.43558e-05
-9.91777e-05
-0.000108621
-0.000113004
-0.000112602
-0.000107649
-9.83723e-05
-8.49745e-05
-6.7612e-05
-4.63987e-05
-2.1421e-05
7.27203e-06
3.96793e-05
7.58327e-05
0.000115767
0.00015951
0.000207101
0.000258602
0.000314097
0.00037368
0.000437449
0.0005055
0.000577939
0.000654872
0.000736399
0.000822602
0.000913522
0.00100916
0.00110949
0.00121445
0.00132395
0.00143786
0.00155602
0.00167825
0.00180426
0.00193375
0.00206634
0.00220158
0.00233898
0.00247796
0.0026179
0.00275811
0.00289786
0.00303636
0.00317279
0.00330628
0.00343596
0.00356092
0.00368029
0.00379316
0.00389868
0.00399601
0.00408439
0.00416309
0.00423147
0.004289
0.00433524
0.00436985
0.00439263
0.00440352
0.00440255
0.00438994
0.00436602
0.00433125
0.00428622
0.00423165
0.00416834
0.0040972
0.00401923
0.00393545
0.00384698
0.00375492
0.00366042
0.00356461
0.00346859
0.00337344
0.00328019
0.00318983
0.00310328
0.00302139
0.00294496
0.00287471
0.00281129
0.00275528
0.00270725
0.00266774
0.00263618
0.00261147
0.000702078
0.000553402
0.000435644
0.000338707
0.000251463
0.000173969
0.000106347
4.79127e-05
-2.01522e-06
-4.40407e-05
-7.87289e-05
-0.00010661
-0.000128179
-0.000143875
-0.000154083
-0.000159167
-0.000159449
-0.000155209
-0.000146706
-0.000134167
-0.000117759
-9.76003e-05
-7.37798e-05
-4.63487e-05
-1.53128e-05
1.93525e-05
5.76754e-05
9.96836e-05
0.00014542
0.000194958
0.0002484
0.000305861
0.00036746
0.000433316
0.000503554
0.0005783
0.000657672
0.000741771
0.000830661
0.000924371
0.00102289
0.0011262
0.00123421
0.00134686
0.001464
0.00158546
0.00171099
0.00184031
0.00197304
0.00210876
0.00224697
0.00238711
0.00252856
0.00267061
0.00281253
0.00295352
0.00309272
0.00322926
0.00336221
0.00349065
0.00361365
0.00373025
0.00383956
0.00394067
0.00403276
0.00411505
0.00418684
0.00424751
0.00429659
0.00433368
0.00435853
0.00437102
0.00437117
0.00435915
0.00433526
0.00429996
0.00425384
0.0041976
0.00413207
0.00405818
0.00397692
0.00388939
0.00379672
0.00370006
0.0036006
0.00349951
0.00339796
0.00329708
0.00319794
0.00310159
0.00300899
0.00292106
0.00283863
0.00276247
0.00269329
0.0026317
0.00257835
0.00253385
0.00249737
0.00246756
0.000687061
0.000530295
0.000406288
0.000304396
0.000212861
0.000131698
6.09844e-05
-4.65623e-08
-5.21545e-05
-9.60085e-05
-0.000132233
-0.000161413
-0.000184092
-0.000200755
-0.00021184
-0.00021776
-0.000218882
-0.000215522
-0.000207966
-0.000196455
-0.000181165
-0.000162219
-0.000139709
-0.000113694
-8.41881e-05
-5.11755e-05
-1.46314e-05
2.54738e-05
6.91905e-05
0.000116607
0.000167845
0.000223041
0.000282336
0.000345869
0.000413783
0.000486221
0.000563324
0.000645213
0.000731976
0.00082367
0.000920316
0.00102191
0.00112842
0.00123979
0.00135592
0.00147665
0.00160177
0.00173101
0.00186402
0.00200038
0.00213962
0.00228116
0.00242439
0.00256862
0.00271309
0.00285698
0.00299943
0.00313953
0.00327632
0.00340884
0.0035361
0.00365711
0.00377089
0.00387651
0.00397305
0.00405966
0.00413559
0.00420014
0.00425277
0.00429302
0.00432058
0.00433528
0.00433708
0.00432613
0.00430269
0.0042672
0.00422024
0.00416251
0.00409484
0.00401819
0.00393358
0.00384213
0.00374501
0.00364343
0.00353862
0.00343182
0.00332425
0.0032171
0.0031115
0.00300856
0.00290932
0.00281473
0.00272571
0.00264309
0.0025676
0.00249994
0.00244082
0.00239093
0.00234922
0.00231406
0.000658439
0.00049389
0.000363874
0.000257205
0.000161509
7.67623e-05
3.00226e-06
-6.06135e-05
-0.000114911
-0.00016062
-0.000198418
-0.000228947
-0.000252805
-0.00027053
-0.000282611
-0.000289509
-0.00029163
-0.000289319
-0.00028288
-0.000272565
-0.000258556
-0.000240985
-0.000219952
-0.000195527
-0.000167734
-0.000136563
-0.000101992
-6.39849e-05
-2.24794e-05
2.26293e-05
7.14819e-05
0.000124236
0.000181053
0.00024209
0.000307508
0.000377469
0.000452136
0.000531652
0.000616133
0.000705665
0.000800302
0.000900071
0.00100498
0.00111499
0.00123005
0.00135002
0.00147473
0.00160392
0.00173727
0.00187438
0.00201477
0.00215791
0.00230317
0.00244985
0.0025972
0.0027444
0.00289054
0.0030347
0.00317589
0.00331309
0.00344527
0.00357138
0.00369039
0.00380128
0.00390307
0.00399483
0.00407572
0.00414497
0.00420196
0.00424617
0.0042772
0.00429482
0.00429894
0.00428965
0.0042672
0.00423197
0.00418454
0.0041256
0.00405599
0.00397666
0.0038887
0.00379323
0.00369149
0.00358472
0.00347423
0.00336131
0.00324724
0.00313329
0.00302068
0.00291056
0.00280406
0.00270221
0.00260598
0.00251628
0.00243392
0.00235965
0.00229428
0.00223858
0.00219125
0.0021504
0.000615448
0.000443411
0.000307612
0.000196331
9.65875e-05
8.3349e-06
-6.8419e-05
-0.000134587
-0.000191058
-0.00023862
-0.000278012
-0.000309935
-0.000335043
-0.000353932
-0.000367137
-0.000375161
-0.000378441
-0.000377344
-0.000372186
-0.000363231
-0.000350673
-0.000334653
-0.000315283
-0.000292646
-0.000266774
-0.000237662
-0.000205285
-0.000169598
-0.000130525
-8.79435e-05
-4.16935e-05
8.40204e-06
6.25214e-05
0.00012084
0.000183536
0.000250793
0.000322794
0.000399711
0.00048169
0.000568846
0.000661269
0.000759022
0.000862146
0.000970648
0.0010845
0.0012036
0.00132781
0.0014569
0.00159057
0.00172845
0.00187007
0.00201492
0.00216237
0.00231174
0.00246226
0.00261311
0.00276336
0.00291206
0.00305819
0.00320069
0.00333846
0.00347042
0.00359543
0.00371243
0.00382034
0.00391814
0.00400491
0.00407981
0.00414209
0.00419116
0.00422656
0.00424795
0.00425521
0.00424833
0.00422752
0.00419315
0.00414575
0.004086
0.00401474
0.00393295
0.00384172
0.00374224
0.00363576
0.0035236
0.00340713
0.00328771
0.0031667
0.00304545
0.00292526
0.00280737
0.00269299
0.00258324
0.00247917
0.00238177
0.00229192
0.00221046
0.00213829
0.0020763
0.00202289
0.00197592
0.000557342
0.000378086
0.000236707
0.000120962
1.72891e-05
-7.43796e-05
-0.000154055
-0.000222717
-0.000281325
-0.000330731
-0.000371736
-0.000405103
-0.000431546
-0.000451708
-0.000466171
-0.000475469
-0.000480064
-0.000480339
-0.000476628
-0.000469205
-0.000458278
-0.000444002
-0.000426506
-0.000405881
-0.000382167
-0.000355359
-0.000325425
-0.000292311
-0.000255924
-0.000216126
-0.000172738
-0.000125566
-7.44167e-05
-1.90969e-05
4.05906e-05
0.00010485
0.000173889
0.000247909
0.000327086
0.000411573
0.000501496
0.000596956
0.000698032
0.000804772
0.000917182
0.00103521
0.00115874
0.00128758
0.00142145
0.00156003
0.00170286
0.00184944
0.00199918
0.00215139
0.00230531
0.0024601
0.00261485
0.00276854
0.00292014
0.00306854
0.0032126
0.00335115
0.00348301
0.00360701
0.00372198
0.00382683
0.00392052
0.0040021
0.00407074
0.00412575
0.00416654
0.00419273
0.00420408
0.00420052
0.0041822
0.00414943
0.00410271
0.0040427
0.00397024
0.00388631
0.00379202
0.0036886
0.00357736
0.00345969
0.003337
0.00321075
0.00308238
0.00295334
0.00282502
0.00269877
0.00257587
0.00245756
0.00234498
0.00223921
0.00214123
0.00205193
0.00197237
0.00190352
0.00184352
0.0017899
0.000483371
0.000297153
0.000150381
3.03193e-05
-7.71484e-05
-0.000172117
-0.000254622
-0.00032571
-0.000386417
-0.000437662
-0.00048031
-0.000515185
-0.000543054
-0.000564606
-0.00058046
-0.000591175
-0.000597236
-0.000599044
-0.000596948
-0.000591241
-0.000582147
-0.000569836
-0.000554451
-0.000536092
-0.000514801
-0.000490571
-0.000463362
-0.000433107
-0.000399698
-0.000362981
-0.000322764
-0.000278836
-0.000230989
-0.000179013
-0.000122692
-6.17984e-05
3.90368e-06
7.4645e-05
0.000150638
0.000232072
0.000319112
0.000411903
0.000510564
0.000615185
0.000725816
0.000842445
0.000964997
0.00109332
0.00122718
0.00136627
0.00151018
0.00165843
0.00181045
0.00196557
0.00212304
0.00228201
0.00244155
0.00260065
0.00275823
0.00291314
0.00306418
0.00321011
0.00334968
0.00348163
0.00360471
0.0037177
0.00381945
0.0039089
0.00398512
0.00404728
0.0040947
0.00412688
0.00414346
0.00414432
0.00412951
0.00409928
0.00405407
0.00399453
0.00392146
0.00383586
0.00373885
0.00363171
0.00351579
0.00339253
0.00326346
0.0031301
0.00299401
0.00285671
0.00271972
0.0025845
0.00245245
0.0023249
0.0022031
0.00208825
0.00198142
0.00188361
0.00179598
0.00171966
0.00165245
0.00159155
0.000392794
0.000199874
4.79054e-05
-7.631e-05
-0.000187423
-0.000285561
-0.000370798
-0.000444251
-0.000507029
-0.000560122
-0.000604457
-0.000640913
-0.000670305
-0.000693363
-0.000710735
-0.000723007
-0.000730684
-0.00073419
-0.000733895
-0.000730109
-0.000723073
-0.000712976
-0.000699969
-0.000684159
-0.000665588
-0.000644242
-0.000620073
-0.000593
-0.000562905
-0.000529619
-0.000492937
-0.000452636
-0.000408493
-0.00036028
-0.00030776
-0.000250682
-0.00018878
-0.00012179
-4.94633e-05
2.84304e-05
0.000112099
0.00020173
0.000297489
0.000399513
0.000507897
0.000622678
0.000743828
0.000871241
0.00100473
0.00114402
0.00128875
0.00143848
0.00159266
0.00175065
0.00191171
0.00207501
0.0022396
0.00240446
0.00256848
0.00273047
0.00288918
0.00304331
0.00319151
0.00333244
0.00346473
0.00358705
0.00369814
0.00379681
0.00388198
0.0039527
0.00400816
0.00404771
0.00407091
0.00407749
0.00406743
0.00404088
0.00399823
0.00394007
0.00386718
0.00378056
0.00368134
0.00357081
0.00345041
0.00332164
0.0031861
0.00304542
0.00290126
0.00275528
0.0026091
0.00246431
0.00232244
0.00218494
0.0020532
0.00192851
0.00181207
0.00170499
0.00160857
0.00152407
0.00144895
0.00138002
0.000284903
8.55543e-05
-7.13936e-05
-0.000199585
-0.000314187
-0.000415372
-0.000503253
-0.000579023
-0.000643862
-0.000698824
-0.000744897
-0.000783009
-0.000814019
-0.000838692
-0.000857706
-0.000871675
-0.000881129
-0.000886515
-0.000888224
-0.000886588
-0.000881867
-0.00087426
-0.000863929
-0.00085098
-0.000835455
-0.000817333
-0.000796557
-0.000773035
-0.000746639
-0.000717189
-0.000684471
-0.000648249
-0.000608286
-0.000564336
-0.000516139
-0.000463418
-0.000405876
-0.000343214
-0.000275144
-0.000201393
-0.000121708
-3.5855e-05
5.63817e-05
0.000155189
0.000260715
0.000373051
0.000492221
0.000618175
0.000750777
0.00088981
0.00103496
0.00118583
0.00134192
0.00150261
0.00166719
0.00183485
0.00200464
0.00217554
0.0023464
0.00251602
0.00268308
0.00284621
0.00300399
0.00315497
0.00329767
0.00343064
0.00355248
0.00366186
0.00375754
0.00383842
0.00390354
0.00395211
0.00398352
0.00399739
0.00399356
0.0039721
0.00393329
0.00387767
0.00380597
0.00371917
0.00361842
0.00350504
0.0033805
0.00324639
0.00310441
0.00295628
0.00280379
0.00264874
0.00249287
0.00233792
0.00218556
0.00203738
0.00189491
0.00175958
0.00163272
0.00151555
0.00140953
0.00131608
0.00123225
0.00115443
0.000159036
-4.64516e-05
-0.000208147
-0.000340134
-0.000458081
-0.000562204
-0.000652658
-0.000730711
-0.000797609
-0.000854468
-0.000902328
-0.000942167
-0.000974884
-0.00100128
-0.00102206
-0.00103788
-0.00104928
-0.00105675
-0.0010607
-0.00106147
-0.00105935
-0.00105454
-0.00104721
-0.00103746
-0.00102534
-0.00101082
-0.000993833
-0.00097428
-0.000952024
-0.000926881
-0.000898625
-0.000867011
-0.000831787
-0.000792687
-0.000749429
-0.000701706
-0.000649192
-0.000591548
-0.000528446
-0.00045957
-0.000384618
-0.000303305
-0.000215363
-0.000120549
-1.86573e-05