/*--------------------------------*- C++ -*----------------------------------*\
  =========                 |
  \\      /  F ield         | OpenFOAM: The Open Source CFD Toolbox
   \\    /   O peration     | Website:  https://openfoam.org
    \\  /    A nd           | Version:  7
     \\/     M anipulation  |
\*---------------------------------------------------------------------------*/
FoamFile
{
    version     2.0;
    format      ascii;
    class       surfaceScalarField;
    location    "0.5";
    object      phi;
}
// * * * * * * * * * * * * * * * * * * * * * * * * * * * * * * * * * * * * * //

dimensions      [0 3 -1 0 0 0 0];

internalField   nonuniform List<scalar> 
19800
(
8.3805e-11
-8.39523e-11
2.1808e-10
-1.34276e-10
3.16161e-10
-9.80945e-11
3.31487e-10
-1.53161e-11
2.44744e-10
8.67422e-11
5.06007e-11
1.94138e-10
-2.48713e-10
2.99327e-10
-6.46935e-10
3.98216e-10
-1.13583e-09
4.88894e-10
-1.70645e-09
5.70627e-10
-2.34968e-09
6.43238e-10
-3.05658e-09
7.06907e-10
-3.81873e-09
7.62144e-10
-4.62832e-09
8.09593e-10
-5.47823e-09
8.49886e-10
-6.36187e-09
8.83639e-10
-7.27333e-09
9.11453e-10
-8.20728e-09
9.33947e-10
-9.15897e-09
9.517e-10
-1.01242e-08
9.65191e-10
-1.1099e-08
9.74822e-10
-1.20799e-08
9.80924e-10
-1.30637e-08
9.83811e-10
-1.40475e-08
9.83764e-10
-1.50285e-08
9.80988e-10
-1.6004e-08
9.75598e-10
-1.69717e-08
9.67658e-10
-1.79289e-08
9.5721e-10
-1.88732e-08
9.44272e-10
-1.9802e-08
9.2883e-10
-2.07129e-08
9.10829e-10
-2.1603e-08
8.90181e-10
-2.24698e-08
8.66781e-10
-2.33103e-08
8.40518e-10
-2.41216e-08
8.11276e-10
-2.49006e-08
7.78933e-10
-2.56439e-08
7.43379e-10
-2.63485e-08
7.0451e-10
-2.70107e-08
6.62238e-10
-2.76272e-08
6.16487e-10
-2.81944e-08
5.67199e-10
-2.87087e-08
5.14345e-10
-2.91666e-08
4.57925e-10
-2.95646e-08
3.97975e-10
-2.98992e-08
3.34578e-10
-3.01671e-08
2.67856e-10
-3.0365e-08
1.97977e-10
-3.04902e-08
1.25157e-10
-3.05398e-08
4.96557e-11
-3.05116e-08
-2.82223e-11
-3.04035e-08
-1.08118e-10
-3.02139e-08
-1.89629e-10
-2.99416e-08
-2.72306e-10
-2.95859e-08
-3.55646e-10
-2.91468e-08
-4.39109e-10
-2.86247e-08
-5.22125e-10
-2.80206e-08
-6.0408e-10
-2.73363e-08
-6.84331e-10
-2.65741e-08
-7.62225e-10
-2.5737e-08
-8.37091e-10
-2.48287e-08
-9.08249e-10
-2.38537e-08
-9.75037e-10
-2.28169e-08
-1.0368e-09
-2.1724e-08
-1.0929e-09
-2.05812e-08
-1.14274e-09
-1.93955e-08
-1.18577e-09
-1.8174e-08
-1.22149e-09
-1.69245e-08
-1.24944e-09
-1.56553e-08
-1.26925e-09
-1.43746e-08
-1.28063e-09
-1.30913e-08
-1.28335e-09
-1.1814e-08
-1.27729e-09
-1.05516e-08
-1.2624e-09
-9.31285e-09
-1.23875e-09
-8.10638e-09
-1.20647e-09
-6.94056e-09
-1.16582e-09
-5.82342e-09
-1.11713e-09
-4.7626e-09
-1.06082e-09
-3.7652e-09
-9.97409e-10
-2.83772e-09
-9.27484e-10
-1.98601e-09
-8.51713e-10
-1.21517e-09
-7.7084e-10
-5.29498e-10
-6.8567e-10
6.7569e-11
-5.97066e-10
5.7355e-10
-5.05973e-10
9.86928e-10
-4.13371e-10
1.30727e-09
-3.20342e-10
1.5353e-09
-2.28037e-10
1.67302e-09
-1.37714e-10
1.7238e-09
-5.07796e-11
1.69265e-09
3.11589e-11
1.58643e-09
1.06212e-10
1.41434e-09
1.72085e-10
1.18847e-09
2.25878e-10
9.24683e-10
2.63788e-10
6.43884e-10
2.80793e-10
3.73471e-10
2.70404e-10
1.4917e-10
2.24308e-10
1.5461e-11
1.33729e-10
1.54707e-11
1.39748e-10
-2.23701e-10
2.98633e-10
-2.93164e-10
3.36329e-10
-1.35807e-10
1.7239e-10
1.48614e-10
-2.37316e-10
4.96449e-10
-9.10749e-10
8.67564e-10
-1.84838e-09
1.23696e-09
-3.03999e-09
1.58984e-09
-4.46918e-09
1.91809e-09
-6.1161e-09
2.21754e-09
-7.95936e-09
2.48649e-09
-9.97734e-09
2.72489e-09
-1.21489e-08
2.93374e-09
-1.4454e-08
3.11462e-09
-1.68735e-08
3.26941e-09
-1.93899e-08
3.40008e-09
-2.19871e-08
3.50869e-09
-2.46504e-08
3.59722e-09
-2.73663e-08
3.66756e-09
-3.01224e-08
3.72137e-09
-3.29077e-08
3.76012e-09
-3.57119e-08
3.7851e-09
-3.85255e-08
3.79742e-09
-4.13397e-08
3.79798e-09
-4.41463e-08
3.78749e-09
-4.69371e-08
3.76647e-09
-4.97047e-08
3.73522e-09
-5.24414e-08
3.69394e-09
-5.51398e-08
3.64267e-09
-5.77923e-08
3.58137e-09
-6.03914e-08
3.50987e-09
-6.29291e-08
3.42791e-09
-6.53975e-08
3.33516e-09
-6.77882e-08
3.23125e-09
-7.00928e-08
3.1158e-09
-7.23022e-08
2.98841e-09
-7.44076e-08
2.8487e-09
-7.63994e-08
2.69635e-09
-7.82682e-08
2.53105e-09
-8.00043e-08
2.35258e-09
-8.15979e-08
2.1608e-09
-8.30392e-08
1.95564e-09
-8.43185e-08
1.7372e-09
-8.54262e-08
1.50566e-09
-8.6353e-08
1.26138e-09
-8.709e-08
1.00486e-09
-8.76288e-08
7.36768e-10
-8.79616e-08
4.57932e-10
-8.80813e-08
1.69364e-10
-8.79817e-08
-1.27752e-10
-8.76578e-08
-4.32057e-10
-8.71054e-08
-7.42004e-10
-8.63219e-08
-1.05589e-09
-8.53057e-08
-1.37184e-09
-8.40569e-08
-1.68783e-09
-8.25773e-08
-2.00172e-09
-8.08702e-08
-2.31124e-09
-7.89405e-08
-2.61404e-09
-7.6795e-08
-2.90767e-09
-7.44425e-08
-3.18968e-09
-7.18931e-08
-3.4576e-09
-6.91592e-08
-3.70897e-09
-6.62546e-08
-3.94138e-09
-6.3195e-08
-4.15252e-09
-5.99975e-08
-4.34022e-09
-5.66808e-08
-4.50243e-09
-5.3265e-08
-4.63731e-09
-4.97712e-08
-4.74326e-09
-4.62215e-08
-4.8189e-09
-4.2639e-08
-4.86314e-09
-3.90472e-08
-4.8752e-09
-3.54699e-08
-4.85459e-09
-3.19311e-08
-4.80119e-09
-2.84546e-08
-4.7152e-09
-2.50639e-08
-4.59716e-09
-2.17818e-08
-4.44797e-09
-1.863e-08
-4.26888e-09
-1.56294e-08
-4.06143e-09
-1.27993e-08
-3.82754e-09
-1.01574e-08
-3.56939e-09
-7.71962e-09
-3.28948e-09
-5.4999e-09
-2.99056e-09
-3.5099e-09
-2.67566e-09
-1.7589e-09
-2.34806e-09
-2.53574e-10
-2.01129e-09
1.00219e-09
-1.66914e-09
2.00752e-09
-1.32567e-09
2.76479e-09
-9.85308e-10
3.27996e-09
-6.52867e-10
3.56286e-09
-3.33686e-10
3.6278e-09
-3.37835e-11
3.49411e-09
2.39904e-10
3.18699e-09
4.792e-10
2.73862e-09
6.74255e-10
2.18936e-09
8.13042e-10
1.58918e-09
8.80961e-10
9.98605e-10
8.60979e-10
4.88111e-10
7.34803e-10
1.32824e-10
4.88994e-10
1.48302e-10
1.02496e-10
-3.2621e-10
1.44067e-10
-3.34735e-10
-3.0616e-11
3.88719e-11
-5.13975e-10
6.31969e-10
-1.35978e-09
1.34225e-09
-2.59197e-09
2.09976e-09
-4.2133e-09
2.85828e-09
-6.21216e-09
3.58871e-09
-8.5676e-09
4.27353e-09
-1.1253e-08
4.90296e-09
-1.42389e-08
5.47235e-09
-1.74945e-08
5.98047e-09
-2.09892e-08
6.4284e-09
-2.46931e-08
6.81857e-09
-2.85779e-08
7.15425e-09
-3.2617e-08
7.43916e-09
-3.67855e-08
7.67719e-09
-4.10605e-08
7.87218e-09
-4.54207e-08
8.02779e-09
-4.98467e-08
8.14739e-09
-5.43206e-08
8.23397e-09
-5.88257e-08
8.29018e-09
-6.33465e-08
8.31828e-09
-6.78687e-08
8.32014e-09
-7.23784e-08
8.29723e-09
-7.68626e-08
8.25064e-09
-8.13085e-08
8.1811e-09
-8.57036e-08
8.08903e-09
-9.00355e-08
7.97458e-09
-9.42917e-08
7.83765e-09
-9.84598e-08
7.67795e-09
-1.02527e-07
7.49498e-09
-1.0648e-07
7.28813e-09
-1.10305e-07
7.05669e-09
-1.13989e-07
6.79992e-09
-1.17518e-07
6.51703e-09
-1.20877e-07
6.20732e-09
-1.2405e-07
5.87014e-09
-1.27024e-07
5.50493e-09
-1.29783e-07
5.1113e-09
-1.32311e-07
4.68905e-09
-1.34594e-07
4.23815e-09
-1.36615e-07
3.75885e-09
-1.38362e-07
3.25169e-09
-1.39818e-07
2.71747e-09
-1.4097e-07
2.15735e-09
-1.41806e-07
1.57283e-09
-1.42314e-07
9.65752e-10
-1.42483e-07
3.38329e-10
-1.42304e-07
-3.06843e-10
-1.41769e-07
-9.66806e-10
-1.40873e-07
-1.63824e-09
-1.39611e-07
-2.31745e-09
-1.37983e-07
-3.00044e-09
-1.35988e-07
-3.68289e-09
-1.33629e-07
-4.36021e-09
-1.30913e-07
-5.02759e-09
-1.27847e-07
-5.68002e-09
-1.24442e-07
-6.31237e-09
-1.20712e-07
-6.91941e-09
-1.16674e-07
-7.49591e-09
-1.12346e-07
-8.03671e-09
-1.07751e-07
-8.53673e-09
-1.02912e-07
-8.99112e-09
-9.78573e-08
-9.39527e-09
-9.26148e-08
-9.74491e-09
-8.7216e-08
-1.00362e-08
-8.16935e-08
-1.02657e-08
-7.60819e-08
-1.04306e-08
-7.04165e-08
-1.05285e-08
-6.47338e-08
-1.05579e-08
-5.90708e-08
-1.05177e-08
-5.34643e-08
-1.04076e-08
-4.79514e-08
-1.02281e-08
-4.25682e-08
-9.98036e-09
-3.735e-08
-9.66623e-09
-3.23305e-08
-9.28834e-09
-2.75419e-08
-8.85002e-09
-2.30142e-08
-8.35527e-09
-1.87748e-08
-7.80877e-09
-1.48485e-08
-7.2158e-09
-1.12568e-08
-6.58227e-09
-8.01776e-09
-5.91467e-09
-5.14581e-09
-5.22001e-09
-2.6512e-09
-4.5059e-09
-5.39841e-10
-3.78049e-09
1.18708e-09
-3.05258e-09
2.53345e-09
-2.33168e-09
3.5087e-09
-1.62812e-09
4.12831e-09
-9.53288e-10
4.41439e-09
-3.19863e-10
4.3965e-09
2.57785e-10
4.11255e-09
7.63152e-10
3.60977e-09
1.17703e-09
2.94581e-09
1.47699e-09
2.18963e-09
1.63716e-09
1.4217e-09
1.62893e-09
7.3302e-10
1.4235e-09
2.22374e-10
9.99626e-10
3.70683e-10
1.89936e-11
-3.45203e-10
-1.44093e-10
-1.71661e-10
-6.31026e-10
5.25813e-10
-1.53112e-09
1.53208e-09
-2.89685e-09
2.70797e-09
-4.75214e-09
3.95506e-09
-7.09922e-09
5.20536e-09
-9.92465e-09
6.41414e-09
-1.32042e-08
7.55304e-09
-1.69064e-08
8.60525e-09
-2.09961e-08
9.56202e-09
-2.54358e-08
1.04202e-08
-3.01877e-08
1.11803e-08
-3.52145e-08
1.18454e-08
-4.04804e-08
1.24201e-08
-4.59512e-08
1.291e-08
-5.15949e-08
1.33208e-08
-5.73814e-08
1.36587e-08
-6.32828e-08
1.39292e-08
-6.92732e-08
1.41378e-08
-7.53286e-08
1.42893e-08
-8.14264e-08
1.4388e-08
-8.75457e-08
1.44376e-08
-9.36666e-08
1.44411e-08
-9.97703e-08
1.44009e-08
-1.05839e-07
1.43189e-08
-1.11854e-07
1.41963e-08
-1.17799e-07
1.40339e-08
-1.23656e-07
1.3832e-08
-1.29409e-07
1.35905e-08
-1.3504e-07
1.33089e-08
-1.40531e-07
1.29864e-08
-1.45865e-07
1.26222e-08
-1.51024e-07
1.22151e-08
-1.55988e-07
1.17639e-08
-1.60738e-07
1.12675e-08
-1.65256e-07
1.07249e-08
-1.6952e-07
1.01349e-08
-1.73512e-07
9.49678e-09
-1.77211e-07
8.81003e-09
-1.80596e-07
8.0744e-09
-1.83648e-07
7.29e-09
-1.86347e-07
6.45739e-09
-1.88673e-07
5.57758e-09
-1.90607e-07
4.65209e-09
-1.92133e-07
3.68299e-09
-1.93233e-07
2.67291e-09
-1.93892e-07
1.62512e-09
-1.94098e-07
5.43446e-10
-1.93837e-07
-5.67624e-10
-1.93101e-07
-1.703e-09
-1.91882e-07
-2.85698e-09
-1.90176e-07
-4.02329e-09
-1.87981e-07
-5.19511e-09
-1.85299e-07
-6.36511e-09
-1.82134e-07
-7.52553e-09
-1.78493e-07
-8.66822e-09
-1.74388e-07
-9.78473e-09
-1.69834e-07
-1.08664e-08
-1.64849e-07
-1.19045e-08
-1.59455e-07
-1.28901e-08
-1.53677e-07
-1.38147e-08
-1.47544e-07
-1.46696e-08
-1.41089e-07
-1.54469e-08
-1.34345e-07
-1.61387e-08
-1.27352e-07
-1.67379e-08
-1.2015e-07
-1.7238e-08
-1.12783e-07
-1.76333e-08
-1.05294e-07
-1.79191e-08
-9.77312e-08
-1.80915e-08
-9.01413e-08
-1.81478e-08
-8.25727e-08
-1.80862e-08
-7.5074e-08
-1.79063e-08
-6.76932e-08
-1.76089e-08
-6.04778e-08
-1.71958e-08
-5.34739e-08
-1.66702e-08
-4.67257e-08
-1.60365e-08
-4.02753e-08
-1.53004e-08
-3.41621e-08
-1.44685e-08
-2.8422e-08
-1.35488e-08
-2.30876e-08
-1.25502e-08
-1.81871e-08
-1.14828e-08
-1.37443e-08
-1.03575e-08
-9.77804e-09
-9.18623e-09
-6.30192e-09
-7.982e-09
-3.32369e-09
-6.75871e-09
-8.4494e-10
-5.53133e-09
1.13939e-09
-4.31601e-09
2.6415e-09
-3.13023e-09
3.68133e-09
-1.99311e-09
4.28718e-09
-9.25726e-10
4.49652e-09
4.84526e-11
4.35667e-09
9.03001e-10
3.92574e-09
1.60796e-09
3.27333e-09
2.1294e-09
2.48109e-09
2.4294e-09
1.64306e-09
2.46696e-09
8.65722e-10
2.20083e-09
2.69273e-10
1.59608e-09
6.39963e-10
-8.60677e-11
-2.59132e-10
-5.04025e-10
2.46292e-10
-1.36718e-09
1.38896e-09
-2.74989e-09
2.91478e-09
-4.69571e-09
4.65378e-09
-7.223e-09
6.48237e-09
-1.03303e-08
8.31261e-09
-1.40007e-08
1.00846e-08
-1.82065e-08
1.17588e-08
-2.29124e-08
1.33111e-08
-2.80784e-08
1.4728e-08
-3.3662e-08
1.60038e-08
-3.96197e-08
1.7138e-08
-4.59086e-08
1.81342e-08
-5.24865e-08
1.89981e-08
-5.93134e-08
1.97369e-08
-6.6351e-08
2.03585e-08
-7.35635e-08
2.08711e-08
-8.0917e-08
2.12828e-08
-8.83801e-08
2.16009e-08
-9.5923e-08
2.18323e-08
-1.03518e-07
2.19832e-08
-1.1114e-07
2.20589e-08
-1.18762e-07
2.20636e-08
-1.26362e-07
2.2001e-08
-1.33917e-07
2.18737e-08
-1.41404e-07
2.16836e-08
-1.48802e-07
2.14318e-08
-1.56089e-07
2.11188e-08
-1.63243e-07
2.07446e-08
-1.70243e-07
2.03084e-08
-1.77065e-07
1.98093e-08
-1.83689e-07
1.9246e-08
-1.90091e-07
1.8617e-08
-1.96248e-07
1.79208e-08
-2.02136e-07
1.71556e-08
-2.07731e-07
1.632e-08
-2.13009e-07
1.54127e-08
-2.17945e-07
1.44326e-08
-2.22514e-07
1.33792e-08
-2.26692e-07
1.22522e-08
-2.30454e-07
1.10519e-08
-2.33776e-07
9.77954e-09
-2.36635e-07
8.43661e-09
-2.39008e-07
7.02561e-09
-2.40875e-07
5.54979e-09
-2.42216e-07
4.01324e-09
-2.43011e-07
2.42096e-09
-2.43247e-07
7.78831e-10
-2.42908e-07
-9.06344e-10
-2.41984e-07
-2.62687e-09
-2.40467e-07
-4.37414e-09
-2.38352e-07
-6.13874e-09
-2.35636e-07
-7.91042e-09
-2.32323e-07
-9.67824e-09
-2.28418e-07
-1.14306e-08
-2.23931e-07
-1.31553e-08
-2.18876e-07
-1.48399e-08
-2.13271e-07
-1.64714e-08
-2.07139e-07
-1.80368e-08
-2.00506e-07
-1.9523e-08
-1.93403e-07
-2.09173e-08
-1.85866e-07
-2.22069e-08
-1.77933e-07
-2.33799e-08
-1.69647e-07
-2.44248e-08
-1.61053e-07
-2.5331e-08
-1.52202e-07
-2.6089e-08
-1.43145e-07
-2.66904e-08
-1.33937e-07
-2.71279e-08
-1.24632e-07
-2.73961e-08
-1.15289e-07
-2.74906e-08
-1.05966e-07
-2.74092e-08
-9.67216e-08
-2.7151e-08
-8.76134e-08
-2.6717e-08
-7.86989e-08
-2.61102e-08
-7.00338e-08
-2.53353e-08
-6.16716e-08
-2.43987e-08
-5.36633e-08
-2.33087e-08
-4.60563e-08
-2.20755e-08
-3.88945e-08
-2.07106e-08
-3.22172e-08
-1.92276e-08
-2.60587e-08
-1.76413e-08
-2.0448e-08
-1.59681e-08
-1.54082e-08
-1.42261e-08
-1.09557e-08
-1.24344e-08
-7.10034e-09
-1.06141e-08
-3.84418e-09
-8.78748e-09
-1.18156e-09
-6.97863e-09
9.0174e-10
-5.21353e-09
2.42897e-09
-3.52035e-09
3.43306e-09
-1.92982e-09
3.95727e-09
-4.75744e-10
4.0558e-09
8.04468e-10
3.7945e-09
1.86926e-09
3.25135e-09
2.67256e-09
2.51703e-09
3.16372e-09
1.69557e-09
3.28841e-09
9.05651e-10
2.99075e-09
2.84178e-10
2.21757e-09
9.24142e-10
-1.99384e-10
-5.97517e-11
-8.98479e-10
9.45378e-10
-2.17539e-09
2.66589e-09
-4.08239e-09
4.82177e-09
-6.64845e-09
7.21984e-09
-9.88208e-09
9.71599e-09
-1.37748e-08
1.22054e-08
-1.83047e-08
1.46145e-08
-2.34396e-08
1.68937e-08
-2.91401e-08
1.90116e-08
-3.53619e-08
2.09499e-08
-4.20582e-08
2.27001e-08
-4.9181e-08
2.42608e-08
-5.66824e-08
2.56356e-08
-6.45155e-08
2.68312e-08
-7.26352e-08
2.78565e-08
-8.09981e-08
2.87214e-08
-8.95633e-08
2.94364e-08
-9.82921e-08
3.00116e-08
-1.07148e-07
3.04567e-08
-1.16097e-07
3.07809e-08
-1.25105e-07
3.0992e-08
-1.34144e-07
3.10971e-08
-1.43182e-07
3.1102e-08
-1.52192e-07
3.10113e-08
-1.61147e-07
3.08287e-08
-1.7002e-07
3.05567e-08
-1.78785e-07
3.01969e-08
-1.87416e-07
2.97499e-08
-1.95888e-07
2.92158e-08
-2.04173e-07
2.85937e-08
-2.12246e-07
2.78824e-08
-2.2008e-07
2.70802e-08
-2.27648e-07
2.61853e-08
-2.34923e-07
2.51955e-08
-2.41877e-07
2.41089e-08
-2.4848e-07
2.29236e-08
-2.54706e-07
2.1638e-08
-2.60524e-07
2.02508e-08
-2.65906e-07
1.87614e-08
-2.70824e-07
1.71698e-08
-2.75248e-07
1.54767e-08
-2.79153e-07
1.36837e-08
-2.82509e-07
1.17933e-08
-2.85293e-07
9.8091e-09
-2.87479e-07
7.7358e-09
-2.89045e-07
5.57924e-09
-2.8997e-07
3.34648e-09
-2.90237e-07
1.0458e-09
-2.8983e-07
-1.31328e-09
-2.88737e-07
-3.72001e-09
-2.86949e-07
-6.16246e-09
-2.8446e-07
-8.62752e-09
-2.8127e-07
-1.1101e-08
-2.7738e-07
-1.35679e-08
-2.72798e-07
-1.60121e-08
-2.67537e-07
-1.84168e-08
-2.61612e-07
-2.07649e-08
-2.55045e-07
-2.30386e-08
-2.47861e-07
-2.522e-08
-2.40093e-07
-2.72912e-08
-2.31776e-07
-2.92346e-08
-2.2295e-07
-3.10328e-08
-2.1366e-07
-3.26695e-08
-2.03956e-07
-3.41289e-08
-1.93891e-07
-3.53965e-08
-1.83521e-07
-3.64593e-08
-1.72905e-07
-3.73056e-08
-1.62108e-07
-3.79257e-08
-1.51192e-07
-3.83119e-08
-1.40224e-07
-3.84584e-08
-1.29271e-07
-3.83618e-08
-1.18401e-07
-3.80212e-08
-1.0768e-07
-3.74377e-08
-9.71751e-08
-3.66155e-08
-8.69497e-08
-3.55608e-08
-7.70659e-08
-3.42825e-08
-6.75826e-08
-3.2792e-08
-5.85549e-08
-3.11031e-08
-5.00335e-08
-2.9232e-08
-4.20641e-08
-2.7197e-08
-3.46866e-08
-2.50188e-08
-2.79349e-08
-2.27199e-08
-2.18358e-08
-2.03251e-08
-1.64089e-08
-1.78613e-08
-1.16659e-08
-1.53571e-08
-7.60986e-09
-1.28435e-08
-4.23497e-09
-1.03535e-08
-1.52579e-09
-7.9227e-09
5.43196e-10
-5.58933e-09
2.00818e-09
-3.3948e-09
2.91655e-09
-1.38411e-09
3.32742e-09
3.9359e-10
3.31214e-09
1.88455e-09
2.95473e-09
3.02998e-09
2.35248e-09
3.76597e-09
1.61691e-09
4.02396e-09
8.75719e-10
3.73195e-09
2.76839e-10
2.81645e-09
1.20098e-09
-3.14228e-10
2.54489e-10
-1.30556e-09
1.9367e-09
-3.01524e-09
4.37558e-09
-5.46991e-09
7.27645e-09
-8.68018e-09
1.04301e-08
-1.26415e-08
1.36774e-08
-1.73361e-08
1.68999e-08
-2.27347e-08
2.00131e-08
-2.87996e-08
2.29587e-08
-3.54868e-08
2.56988e-08
-4.27477e-08
2.82108e-08
-5.05314e-08
3.04838e-08
-5.87858e-08
3.25152e-08
-6.74589e-08
3.43087e-08
-7.64997e-08
3.5872e-08
-8.58587e-08
3.72155e-08
-9.54885e-08
3.83512e-08
-1.05344e-07
3.92917e-08
-1.15382e-07
4.00493e-08
-1.25561e-07
4.06362e-08
-1.35844e-07
4.10634e-08
-1.46193e-07
4.1341e-08
-1.56573e-07
4.14776e-08
-1.66952e-07
4.14806e-08
-1.77296e-07
4.13558e-08
-1.87575e-07
4.11077e-08
-1.97758e-07
4.07397e-08
-2.07815e-07
4.02538e-08
-2.17716e-07
3.96508e-08
-2.27431e-07
3.89307e-08
-2.3693e-07
3.80928e-08
-2.46183e-07
3.71353e-08
-2.55159e-07
3.60564e-08
-2.63828e-07
3.48537e-08
-2.72157e-07
3.35248e-08
-2.80115e-07
3.20671e-08
-2.8767e-07
3.04786e-08
-2.94789e-07
2.87572e-08
-3.0144e-07
2.69017e-08
-3.0759e-07
2.49114e-08
-3.13207e-07
2.27866e-08
-3.18259e-07
2.05285e-08
-3.22715e-07
1.81394e-08
-3.26544e-07
1.56229e-08
-3.29719e-07
1.29839e-08
-3.32212e-07
1.02288e-08
-3.33998e-07
7.36533e-09
-3.35055e-07
4.40303e-09
-3.35362e-07
1.35286e-09
-3.34902e-07
-1.77258e-09
-3.33663e-07
-4.95912e-09
-3.31635e-07
-8.19105e-09
-3.28811e-07
-1.14512e-08
-3.25191e-07
-1.4721e-08
-3.20778e-07
-1.79807e-08
-3.15581e-07
-2.12093e-08
-3.09613e-07
-2.43851e-08
-3.02892e-07
-2.74855e-08
-2.95443e-07
-3.04874e-08
-2.87296e-07
-3.33676e-08
-2.78484e-07
-3.61028e-08
-2.69049e-07
-3.867e-08
-2.59035e-07
-4.10468e-08
-2.48492e-07
-4.32117e-08
-2.37477e-07
-4.51444e-08
-2.26048e-07
-4.6826e-08
-2.14267e-07
-4.82394e-08
-2.02203e-07
-4.93696e-08
-1.89925e-07
-5.02039e-08
-1.77505e-07
-5.07321e-08
-1.65017e-07
-5.09467e-08
-1.52535e-07
-5.08432e-08
-1.40136e-07
-5.04202e-08
-1.27895e-07
-4.96794e-08
-1.15884e-07
-4.86257e-08
-1.04178e-07
-4.72674e-08
-9.28441e-08
-4.56161e-08
-8.19498e-08
-4.36864e-08
-7.15568e-08
-4.14962e-08
-6.17222e-08
-3.90666e-08
-5.24977e-08
-3.64215e-08
-4.39287e-08
-3.35878e-08
-3.60535e-08
-3.05951e-08
-2.89029e-08
-2.74757e-08
-2.24995e-08
-2.42647e-08
-1.68571e-08
-2.09995e-08
-1.19803e-08
-1.77204e-08
-7.86346e-09
-1.44703e-08
-4.49076e-09
-1.12954e-08
-1.83531e-09
-8.24477e-09
1.41206e-10
-5.37131e-09
1.489e-09
-2.73191e-09
2.27061e-09
-3.88021e-10
2.56129e-09
1.59386e-09
2.44945e-09
3.14182e-09
2.03722e-09
4.17821e-09
1.44152e-09
4.61965e-09
7.96024e-10
4.37746e-09
2.54691e-10
3.35778e-09
1.45567e-09
-4.27376e-10
6.81862e-10
-1.71272e-09
3.22204e-09
-3.8617e-09
6.52455e-09
-6.87408e-09
1.02888e-08
-1.07401e-08
1.42961e-08
-1.54399e-08
1.83772e-08
-2.09442e-08
2.24041e-08
-2.72151e-08
2.6284e-08
-3.42082e-08
2.99517e-08
-4.18737e-08
3.33643e-08
-5.01586e-08
3.64957e-08
-5.90078e-08
3.93329e-08
-6.83653e-08
4.18727e-08
-7.81754e-08
4.41188e-08
-8.83835e-08
4.60801e-08
-9.89364e-08
4.77685e-08
-1.09783e-07
4.91979e-08
-1.20874e-07
5.0383e-08
-1.32164e-07
5.13387e-08
-1.43607e-07
5.20792e-08
-1.55161e-07
5.26177e-08
-1.66786e-07
5.29663e-08
-1.78444e-07
5.31352e-08
-1.90097e-07
5.31334e-08
-2.01709e-07
5.29679e-08
-2.13245e-07
5.26443e-08
-2.24672e-07
5.21665e-08
-2.35955e-07
5.1537e-08
-2.47062e-07
5.07569e-08
-2.57957e-07
4.98262e-08
-2.68608e-07
4.8744e-08
-2.78981e-07
4.75084e-08
-2.89042e-07
4.6117e-08
-2.98755e-07
4.45672e-08
-3.08087e-07
4.28561e-08
-3.17e-07
4.09807e-08
-3.2546e-07
3.89387e-08
-3.33431e-07
3.67278e-08
-3.40876e-07
3.43467e-08
-3.47759e-07
3.17949e-08
-3.54046e-07
2.90729e-08
-3.597e-07
2.61826e-08
-3.64687e-07
2.31271e-08
-3.68976e-07
1.99112e-08
-3.72533e-07
1.65414e-08
-3.7533e-07
1.30259e-08
-3.7734e-07
9.37477e-09
-3.78537e-07
5.60005e-09
-3.789e-07
1.71576e-09
-3.7841e-07
-2.26213e-09
-3.77054e-07
-6.31567e-09
-3.7482e-07
-1.0425e-08
-3.71702e-07
-1.45686e-08
-3.677e-07
-1.87229e-08
-3.62818e-07
-2.28632e-08
-3.57064e-07
-2.69632e-08
-3.50453e-07
-3.09956e-08
-3.43007e-07
-3.4932e-08
-3.34751e-07
-3.87436e-08
-3.25717e-07
-4.24012e-08
-3.15944e-07
-4.58758e-08
-3.05476e-07
-4.91385e-08
-2.94361e-07
-5.21612e-08
-2.82656e-07
-5.49171e-08
-2.7042e-07
-5.73806e-08
-2.57717e-07
-5.95282e-08
-2.44618e-07
-6.13384e-08
-2.31196e-07
-6.27923e-08
-2.17526e-07
-6.38739e-08
-2.03688e-07
-6.45703e-08
-1.89762e-07
-6.48721e-08
-1.75832e-07
-6.47736e-08
-1.61979e-07
-6.42726e-08
-1.48287e-07
-6.33714e-08
-1.34837e-07
-6.20758e-08
-1.21708e-07
-6.03962e-08
-1.08978e-07
-5.83467e-08
-9.67184e-08
-5.59458e-08
-8.49989e-08
-5.32157e-08
-7.38827e-08
-5.01828e-08
-6.3427e-08
-4.68771e-08
-5.36825e-08
-4.33323e-08
-4.46922e-08
-3.95855e-08
-3.64907e-08
-3.56772e-08
-2.91039e-08
-3.16515e-08
-2.25481e-08
-2.75553e-08
-1.68294e-08
-2.3439e-08
-1.19433e-08
-1.93564e-08
-7.87412e-09
-1.53646e-08
-4.59433e-09
-1.15246e-08
-2.06446e-09
-7.90118e-09
-2.32475e-10
-4.56389e-09
9.66465e-10
-1.58696e-09
1.61036e-09
9.49973e-10
1.79071e-09
2.96146e-09
1.6131e-09
4.35581e-09
1.19808e-09
5.03468e-09
6.82716e-10
4.89281e-09
2.2324e-10
3.81725e-09
1.67891e-09
-5.37251e-10
1.21912e-09
-2.11291e-09
4.79771e-09
-4.69965e-09
9.11128e-09
-8.27044e-09
1.38596e-08
-1.27943e-08
1.88201e-08
-1.82349e-08
2.38178e-08
-2.45498e-08
2.8719e-08
-3.16913e-08
3.34255e-08
-3.96071e-08
3.78675e-08
-4.82412e-08
4.19984e-08
-5.75353e-08
4.57899e-08
-6.743e-08
4.92276e-08
-7.78654e-08
5.23081e-08
-8.87823e-08
5.50357e-08
-1.00123e-07
5.74204e-08
-1.1183e-07
5.94758e-08
-1.2385e-07
6.12179e-08
-1.36131e-07
6.26636e-08
-1.48622e-07
6.383e-08
-1.61276e-07
6.47335e-08
-1.74048e-07
6.53896e-08
-1.86894e-07
6.58121e-08
-1.99772e-07
6.60131e-08
-2.12641e-07
6.6003e-08
-2.25464e-07
6.57901e-08
-2.382e-07
6.53809e-08
-2.50814e-07
6.47799e-08
-2.63267e-07
6.39902e-08
-2.75523e-07
6.3013e-08
-2.87545e-07
6.18484e-08
-2.99297e-07
6.04953e-08
-3.1074e-07
5.89515e-08
-3.21837e-07
5.72143e-08
-3.32551e-07
5.52807e-08
-3.42842e-07
5.31473e-08
-3.52672e-07
5.08109e-08
-3.62002e-07
4.82686e-08
-3.70792e-07
4.55182e-08
-3.79004e-07
4.25582e-08
-3.86597e-07
3.93884e-08
-3.93534e-07
3.60098e-08
-3.99776e-07
3.24247e-08
-4.05287e-07
2.86375e-08
-4.10029e-07
2.46541e-08
-4.13971e-07
2.04828e-08
-4.17079e-07
1.61337e-08
-4.19323e-07
1.16195e-08
-4.20678e-07
6.95506e-09
-4.2112e-07
2.15757e-09
-4.20629e-07
-2.75331e-09
-4.19189e-07
-7.75558e-09
-4.16789e-07
-1.2825e-08
-4.13423e-07
-1.7935e-08
-4.09088e-07
-2.30573e-08
-4.0379e-07
-2.81614e-08
-3.97538e-07
-3.32153e-08
-3.90348e-07
-3.81857e-08
-3.82242e-07
-4.30383e-08
-3.73247e-07
-4.77379e-08
-3.63399e-07
-5.2249e-08
-3.52739e-07
-5.65361e-08
-3.41313e-07
-6.05642e-08
-3.29175e-07
-6.42993e-08
-3.16384e-07
-6.77084e-08
-3.03004e-07
-7.07605e-08
-2.89106e-07
-7.34268e-08
-2.74763e-07
-7.56811e-08
-2.60055e-07
-7.75004e-08
-2.45064e-07
-7.88648e-08
-2.29875e-07
-7.97587e-08
-2.14577e-07
-8.01704e-08
-1.99258e-07
-8.00925e-08
-1.84009e-07
-7.95224e-08
-1.68918e-07
-7.84624e-08
-1.54074e-07
-7.69196e-08
-1.39564e-07
-7.49061e-08
-1.25471e-07
-7.24392e-08
-1.11876e-07
-6.9541e-08
-9.88533e-08
-6.62385e-08
-8.64725e-08
-6.25637e-08
-7.47966e-08
-5.8553e-08
-6.38816e-08
-5.42473e-08
-5.37749e-08
-4.96921e-08
-4.45157e-08
-4.49365e-08
-3.6133e-08
-4.00341e-08
-2.8646e-08
-3.50422e-08
-2.2063e-08
-3.0022e-08
-1.63809e-08
-2.50385e-08
-1.15846e-08
-2.01608e-08
-7.64702e-09
-1.54622e-08
-4.52804e-09
-1.10202e-08
-2.17467e-09
-6.91726e-09
-5.20617e-10
-3.24101e-09
5.1395e-10
-8.45968e-11
1.02269e-09
2.45272e-09
1.11347e-09
4.26504e-09
9.09031e-10
5.23912e-09
5.47992e-10
5.25384e-09
1.86368e-10
4.17887e-09
1.86528e-09
-6.43167e-10
1.86229e-09
-2.50248e-09
6.65704e-09
-5.5203e-09
1.21291e-08
-9.64385e-09
1.79832e-08
-1.48209e-08
2.39971e-08
-2.09979e-08
2.99947e-08
-2.81186e-08
3.58397e-08
-3.61243e-08
4.14313e-08
-4.49541e-08
4.66972e-08
-5.4545e-08
5.15893e-08
-6.4833e-08
5.60779e-08
-7.57541e-08
6.01487e-08
-8.72443e-08
6.37983e-08
-9.92408e-08
6.70323e-08
-1.11682e-07
6.9862e-08
-1.2451e-07
7.23031e-08
-1.37665e-07
7.43736e-08
-1.51094e-07
7.60928e-08
-1.64744e-07
7.74799e-08
-1.78565e-07
7.85538e-08
-1.92507e-07
7.93319e-08
-2.06525e-07
7.98301e-08
-2.20574e-07
8.00621e-08
-2.34611e-07
8.00398e-08
-2.48593e-07
7.97727e-08
-2.6248e-07
7.92681e-08
-2.76232e-07
7.85313e-08
-2.89807e-07
7.75657e-08
-3.03167e-07
7.63728e-08
-3.16271e-07
7.49526e-08
-3.2908e-07
7.33039e-08
-3.41553e-07
7.14242e-08
-3.53649e-07
6.93104e-08
-3.65327e-07
6.6959e-08
-3.76546e-07
6.43664e-08
-3.87264e-07
6.15288e-08
-3.97438e-07
5.84431e-08
-4.07027e-07
5.5107e-08
-4.15988e-07
5.1519e-08
-4.24279e-07
4.76791e-08
-4.31858e-07
4.35886e-08
-4.38684e-07
3.9251e-08
-4.44718e-07
3.46713e-08
-4.49921e-07
2.98572e-08
-4.54257e-07
2.48186e-08
-4.57691e-07
1.95679e-08
-4.60191e-07
1.41203e-08
-4.6173e-07
8.49373e-09
-4.62281e-07
2.70887e-09
-4.61824e-07
-3.21077e-09
-4.60341e-07
-9.2389e-09
-4.57819e-07
-1.53465e-08
-4.54252e-07
-2.15021e-08
-4.49638e-07
-2.76717e-08
-4.4398e-07
-3.38192e-08
-4.37289e-07
-3.99064e-08
-4.2958e-07
-4.58939e-08
-4.20878e-07
-5.17405e-08
-4.11212e-07
-5.74045e-08
-4.00617e-07
-6.28437e-08
-3.89137e-07
-6.80159e-08
-3.76822e-07
-7.28793e-08
-3.63728e-07
-7.73933e-08
-3.49918e-07
-8.15187e-08
-3.3546e-07
-8.52185e-08
-3.20428e-07
-8.84582e-08
-3.04903e-07
-9.12064e-08
-2.88968e-07
-9.34355e-08
-2.72711e-07
-9.51217e-08
-2.56224e-07
-9.62459e-08
-2.396e-07
-9.67939e-08
-2.22936e-07
-9.67568e-08
-2.06327e-07
-9.61309e-08
-1.89871e-07
-9.49187e-08
-1.73663e-07
-9.31282e-08
-1.57795e-07
-9.07735e-08
-1.42359e-07
-8.7875e-08
-1.27442e-07
-8.44585e-08
-1.13124e-07
-8.05563e-08
-9.94817e-08
-7.62059e-08
-8.6584e-08
-7.14507e-08
-7.44919e-08
-6.63394e-08
-6.32582e-08
-6.09258e-08
-5.2926e-08
-5.52687e-08
-4.35284e-08
-4.94317e-08
-3.50878e-08
-4.34828e-08
-2.7615e-08
-3.74948e-08
-2.11089e-08
-3.15446e-08
-1.55558e-08
-2.57139e-08
-1.09291e-08
-2.00889e-08
-7.18901e-09
-1.47603e-08
-4.28218e-09
-9.82409e-09
-2.14152e-09
-5.38167e-09
-6.86076e-10
-1.54005e-09
1.7921e-10
1.58744e-09
5.63651e-10
3.88061e-09
5.91145e-10
5.21162e-09
4.00661e-10
5.44432e-09
1.46712e-10
4.43283e-09
2.01199e-09
-7.44953e-10
2.60724e-09
-2.8797e-09
8.79178e-09
-6.31883e-09
1.55682e-08
-1.09853e-08
2.26496e-08
-1.6806e-08
2.98179e-08
-2.37101e-08
3.68988e-08
-3.16271e-08
4.37568e-08
-4.04869e-08
5.0291e-08
-5.0219e-08
5.64293e-08
-6.0753e-08
6.21233e-08
-7.20188e-08
6.73438e-08
-8.39473e-08
7.20771e-08
-9.64703e-08
7.63213e-08
-1.09521e-07
8.00834e-08
-1.23036e-07
8.33769e-08
-1.36953e-07
8.62194e-08
-1.5121e-07
8.86314e-08
-1.65752e-07
9.06345e-08
-1.80523e-07
9.22506e-08
-1.95469e-07
9.35005e-08
-2.10541e-07
9.44039e-08
-2.2569e-07
9.49785e-08
-2.40868e-07
9.52399e-08
-2.56029e-07
9.52012e-08
-2.7113e-07
9.48732e-08
-2.86126e-07
9.4264e-08
-3.00974e-07
9.33797e-08
-3.15632e-07
9.22238e-08
-3.30057e-07
9.07981e-08
-3.44207e-07
8.91025e-08
-3.58039e-07
8.71356e-08
-3.71509e-07
8.48947e-08
-3.84575e-07
8.23762e-08
-3.97193e-07
7.95763e-08
-4.09317e-07
7.64906e-08
-4.20903e-07
7.31153e-08
-4.31907e-07
6.94469e-08
-4.42283e-07
6.54828e-08
-4.51986e-07
6.12218e-08
-4.6097e-07
5.66638e-08
-4.69193e-07
5.1811e-08
-4.76609e-07
4.66674e-08
-4.83177e-07
4.12393e-08
-4.88856e-07
3.55359e-08
-4.93606e-07
2.95689e-08
-4.97392e-07
2.33532e-08
-5.00178e-07
1.69065e-08
-5.01934e-07
1.02499e-08
-5.02633e-07
3.40788e-09
-5.02252e-07
-3.59214e-09
-5.00771e-07
-1.07193e-08
-4.98178e-07
-1.79398e-08
-4.94463e-07
-2.52167e-08
-4.89625e-07
-3.25102e-08
-4.83666e-07
-3.97782e-08
-4.76596e-07
-4.69762e-08
-4.68432e-07
-5.40579e-08
-4.59197e-07
-6.09754e-08
-4.48922e-07
-6.76799e-08
-4.37644e-07
-7.41219e-08
-4.25407e-07
-8.02522e-08
-4.12265e-07
-8.60217e-08
-3.98275e-07
-9.1383e-08
-3.83504e-07
-9.62899e-08
-3.68024e-07
-1.00699e-07
-3.51912e-07
-1.0457e-07
-3.35253e-07
-1.07865e-07
-3.18137e-07
-1.10552e-07
-3.00655e-07
-1.12603e-07
-2.82906e-07
-1.13995e-07
-2.6499e-07
-1.14711e-07
-2.47007e-07
-1.14739e-07
-2.29063e-07
-1.14076e-07
-2.11259e-07
-1.12723e-07
-1.93698e-07
-1.10689e-07
-1.76481e-07
-1.07991e-07
-1.59705e-07
-1.04651e-07
-1.43463e-07
-1.007e-07
-1.27844e-07
-9.61752e-08
-1.1293e-07
-9.11198e-08
-9.87962e-08
-8.55846e-08
-8.55093e-08
-7.96263e-08
-7.31274e-08
-7.33078e-08
-6.16984e-08
-6.66977e-08
-5.12597e-08
-5.98704e-08
-4.18373e-08
-5.29052e-08
-3.34451e-08
-4.5887e-08
-2.60843e-08
-3.89054e-08
-1.97432e-08
-3.2055e-08
-1.43965e-08
-2.54356e-08
-1.0005e-08
-1.91518e-08
-6.51556e-09
-1.33135e-08
-3.86089e-09
-8.03634e-09
-1.95939e-09
-3.44155e-09
-7.15186e-10
3.43242e-10
-1.81082e-11
3.18353e-09
2.56315e-10
4.93719e-09
2.46802e-10
5.45384e-09
1.06008e-10
4.57362e-09
2.11799e-09
-8.427e-10
3.44994e-09
-3.24388e-09
1.1193e-08
-7.09283e-09
1.94172e-08
-1.22896e-08
2.78464e-08
-1.87413e-08
3.62695e-08
-2.63597e-08
4.45172e-08
-3.50603e-08
5.24574e-08
-4.47608e-08
5.99915e-08
-5.5381e-08
6.70496e-08
-6.68426e-08
7.35849e-08
-7.9069e-08
7.95702e-08
-9.19857e-08
8.49938e-08
-1.0552e-07
8.98558e-08
-1.19603e-07
9.41657e-08
-1.34165e-07
9.79392e-08
-1.49142e-07
1.01197e-07
-1.64472e-07
1.03961e-07
-1.80095e-07
1.06257e-07
-1.95953e-07
1.08109e-07
-2.11992e-07
1.09539e-07
-2.28158e-07
1.1057e-07
-2.44401e-07
1.11221e-07
-2.60671e-07
1.1151e-07
-2.76921e-07
1.11451e-07
-2.93104e-07
1.11056e-07
-3.09174e-07
1.10334e-07
-3.25085e-07
1.09291e-07
-3.40794e-07
1.07932e-07
-3.56254e-07
1.06258e-07
-3.71421e-07
1.0427e-07
-3.8625e-07
1.01965e-07
-4.00695e-07
9.93399e-08
-4.1471e-07
9.63916e-08
-4.2825e-07
9.31153e-08
-4.41265e-07
8.95064e-08
-4.53711e-07
8.55605e-08
-4.65538e-07
8.12739e-08
-4.76699e-07
7.66438e-08
-4.87146e-07
7.16688e-08
-4.96831e-07
6.63494e-08
-5.05708e-07
6.06881e-08
-5.13731e-07
5.46897e-08
-5.20853e-07
4.83619e-08
-5.27032e-07
4.17152e-08
-5.32227e-07
3.47633e-08
-5.36397e-07
2.75234e-08
-5.39507e-07
2.00162e-08
-5.41523e-07
1.2266e-08
-5.42416e-07
4.30073e-09
-5.4216e-07
-3.84772e-09
-5.40735e-07
-1.2144e-08
-5.38126e-07
-2.0549e-08
-5.34323e-07
-2.90203e-08
-5.2932e-07
-3.75124e-08
-5.23122e-07
-4.59765e-08
-5.15737e-07
-5.43616e-08
-5.0718e-07
-6.26144e-08
-4.97476e-07
-7.06797e-08
-4.86655e-07
-7.85012e-08
-4.74755e-07
-8.6022e-08
-4.61822e-07
-9.31851e-08
-4.47909e-07
-9.99339e-08
-4.33079e-07
-1.06213e-07
-4.17398e-07
-1.1197e-07
-4.00943e-07
-1.17154e-07
-3.83795e-07
-1.21718e-07
-3.66042e-07
-1.25618e-07
-3.47778e-07
-1.28816e-07
-3.29101e-07
-1.3128e-07
-3.10114e-07
-1.32982e-07
-2.90923e-07
-1.33902e-07
-2.71636e-07
-1.34026e-07
-2.52363e-07
-1.33349e-07