/*--------------------------------*- C++ -*----------------------------------*\
  =========                 |
  \\      /  F ield         | OpenFOAM: The Open Source CFD Toolbox
   \\    /   O peration     | Website:  https://openfoam.org
    \\  /    A nd           | Version:  7
     \\/     M anipulation  |
\*---------------------------------------------------------------------------*/
FoamFile
{
    version     2.0;
    format      ascii;
    class       volVectorField;
    location    "0.5";
    object      U;
}
// * * * * * * * * * * * * * * * * * * * * * * * * * * * * * * * * * * * * * //

dimensions      [0 1 -1 0 0 0 0];

internalField   nonuniform List<vector> 
10000
(
(4.40786e-06 -3.91769e-06 0)
(1.54684e-05 -6.81071e-06 0)
(2.80594e-05 -5.99087e-06 0)
(3.43698e-05 -3.18007e-06 0)
(3.11101e-05 3.62698e-07 0)
(1.71384e-05 4.03951e-06 0)
(-7.58874e-06 7.55084e-06 0)
(-4.26033e-05 1.0768e-05 0)
(-8.71387e-05 1.36537e-05 0)
(-0.000140308 1.6212e-05 0)
(-0.000201197 1.84509e-05 0)
(-0.000268897 2.03793e-05 0)
(-0.000342535 2.20218e-05 0)
(-0.000421297 2.34108e-05 0)
(-0.00050443 2.45751e-05 0)
(-0.000591251 2.55376e-05 0)
(-0.00068114 2.63177e-05 0)
(-0.000773533 2.69377e-05 0)
(-0.000867927 2.74206e-05 0)
(-0.00096387 2.77837e-05 0)
(-0.00106096 2.80389e-05 0)
(-0.00115883 2.8195e-05 0)
(-0.00125714 2.82618e-05 0)
(-0.00135559 2.82498e-05 0)
(-0.0014539 2.81664e-05 0)
(-0.00155179 2.80145e-05 0)
(-0.00164902 2.77947e-05 0)
(-0.00174532 2.75077e-05 0)
(-0.00184046 2.71544e-05 0)
(-0.00193418 2.67341e-05 0)
(-0.00202623 2.62443e-05 0)
(-0.00211634 2.5681e-05 0)
(-0.00220426 2.50409e-05 0)
(-0.00228969 2.43205e-05 0)
(-0.00237236 2.35162e-05 0)
(-0.00245194 2.2623e-05 0)
(-0.00252814 2.16359e-05 0)
(-0.00260062 2.05506e-05 0)
(-0.00266904 1.93644e-05 0)
(-0.00273306 1.80748e-05 0)
(-0.00279233 1.66797e-05 0)
(-0.00284649 1.51773e-05 0)
(-0.00289518 1.35664e-05 0)
(-0.00293806 1.1847e-05 0)
(-0.00297477 1.00212e-05 0)
(-0.00300496 8.09204e-06 0)
(-0.00302833 6.06392e-06 0)
(-0.00304455 3.94282e-06 0)
(-0.00305335 1.73598e-06 0)
(-0.00305447 -5.4772e-07 0)
(-0.0030477 -2.89764e-06 0)
(-0.00303284 -5.30171e-06 0)
(-0.00300976 -7.74641e-06 0)
(-0.00297837 -1.02166e-05 0)
(-0.00293863 -1.2696e-05 0)
(-0.00289055 -1.51676e-05 0)
(-0.0028342 -1.76125e-05 0)
(-0.00276973 -2.00106e-05 0)
(-0.00269734 -2.23417e-05 0)
(-0.00261729 -2.45848e-05 0)
(-0.00252993 -2.67189e-05 0)
(-0.00243565 -2.87236e-05 0)
(-0.00233493 -3.05783e-05 0)
(-0.00222831 -3.22626e-05 0)
(-0.00211637 -3.37574e-05 0)
(-0.00199978 -3.50456e-05 0)
(-0.00187923 -3.61114e-05 0)
(-0.0017555 -3.69408e-05 0)
(-0.00162937 -3.75217e-05 0)
(-0.00150167 -3.78447e-05 0)
(-0.00137327 -3.79028e-05 0)
(-0.00124503 -3.76916e-05 0)
(-0.00111784 -3.72101e-05 0)
(-0.000992574 -3.646e-05 0)
(-0.000870113 -3.54459e-05 0)
(-0.000751304 -3.41752e-05 0)
(-0.000636972 -3.26583e-05 0)
(-0.0005279 -3.09085e-05 0)
(-0.000424828 -2.89417e-05 0)
(-0.000328438 -2.67757e-05 0)
(-0.000239349 -2.44313e-05 0)
(-0.00015811 -2.19311e-05 0)
(-8.51934e-05 -1.92993e-05 0)
(-2.09861e-05 -1.65617e-05 0)
(3.42129e-05 -1.37463e-05 0)
(8.02019e-05 -1.08817e-05 0)
(0.000116883 -7.99981e-06 0)
(0.000144268 -5.13433e-06 0)
(0.000162489 -2.32199e-06 0)
(0.000171812 3.95785e-07 0)
(0.00017265 2.97068e-06 0)
(0.00016559 5.34411e-06 0)
(0.000151424 7.44115e-06 0)
(0.000131203 9.16007e-06 0)
(0.000106306 1.03559e-05 0)
(7.85574e-05 1.08198e-05 0)
(5.03416e-05 1.02568e-05 0)
(2.47796e-05 8.25257e-06 0)
(6.16589e-06 4.38622e-06 0)
(-3.87524e-07 -3.77264e-07 0)
(7.55271e-06 -1.56633e-05 0)
(2.37552e-05 -2.28769e-05 0)
(3.55725e-05 -1.53954e-05 0)
(3.08501e-05 1.89751e-07 0)
(2.92424e-06 1.95214e-05 0)
(-5.10345e-05 4.0054e-05 0)
(-0.000131699 6.03091e-05 0)
(-0.000238466 7.94709e-05 0)
(-0.000369934 9.71356e-05 0)
(-0.000524228 0.000113123 0)
(-0.000699244 0.000127379 0)
(-0.00089282 0.000139926 0)
(-0.0011028 0.000150845 0)
(-0.00132711 0.000160247 0)
(-0.00156377 0.000168249 0)
(-0.00181098 0.000174967 0)
(-0.00206704 0.00018052 0)
(-0.00233041 0.000185021 0)
(-0.00259969 0.00018858 0)
(-0.00287358 0.000191289 0)
(-0.00315091 0.00019323 0)
(-0.00343063 0.00019447 0)
(-0.00371175 0.000195067 0)
(-0.00399335 0.000195075 0)
(-0.00427459 0.000194531 0)
(-0.00455466 0.000193461 0)
(-0.00483276 0.000191881 0)
(-0.00510816 0.000189798 0)
(-0.00538011 0.000187216 0)
(-0.00564784 0.000184131 0)
(-0.00591062 0.000180533 0)
(-0.00616765 0.000176405 0)
(-0.00641816 0.00017173 0)
(-0.00666133 0.000166486 0)
(-0.0068963 0.000160651 0)
(-0.00712222 0.000154202 0)
(-0.00733819 0.000147117 0)
(-0.00754328 0.000139377 0)
(-0.00773655 0.000130963 0)
(-0.00791704 0.000121864 0)
(-0.00808376 0.000112067 0)
(-0.00823575 0.00010157 0)
(-0.00837201 9.03723e-05 0)
(-0.00849159 7.84835e-05 0)
(-0.00859353 6.59195e-05 0)
(-0.00867693 5.2705e-05 0)
(-0.00874092 3.88734e-05 0)
(-0.00878468 2.44671e-05 0)
(-0.00880747 9.53758e-06 0)
(-0.00880861 -5.85442e-06 0)
(-0.00878755 -2.16382e-05 0)
(-0.00874382 -3.77335e-05 0)
(-0.00867707 -5.40511e-05 0)
(-0.00858709 -7.04929e-05 0)
(-0.00847382 -8.69526e-05 0)
(-0.00833734 -0.000103317 0)
(-0.0081779 -0.000119467 0)
(-0.00799591 -0.000135277 0)
(-0.00779197 -0.000150618 0)
(-0.00756683 -0.000165359 0)
(-0.00732146 -0.000179369 0)
(-0.00705697 -0.000192516 0)
(-0.00677469 -0.000204673 0)
(-0.00647608 -0.000215716 0)
(-0.00616278 -0.000225528 0)
(-0.0058366 -0.000234 0)
(-0.00549947 -0.000241035 0)
(-0.00515346 -0.000246545 0)
(-0.00480074 -0.000250457 0)
(-0.00444356 -0.000252713 0)
(-0.00408426 -0.000253271 0)
(-0.00372522 -0.000252104 0)
(-0.00336883 -0.000249206 0)
(-0.00301749 -0.000244588 0)
(-0.00267357 -0.000238278 0)
(-0.00233938 -0.000230324 0)
(-0.00201717 -0.000220792 0)
(-0.00170906 -0.000209765 0)
(-0.00141707 -0.000197343 0)
(-0.00114305 -0.000183643 0)
(-0.000888705 -0.000168795 0)
(-0.000655518 -0.000152945 0)
(-0.000444776 -0.000136253 0)
(-0.00025753 -0.000118888 0)
(-9.45838e-05 -0.000101037 0)
(4.35292e-05 -8.28946e-05 0)
(0.000156566 -6.46738e-05 0)
(0.000244594 -4.66038e-05 0)
(0.000308023 -2.89353e-05 0)
(0.000347633 -1.19478e-05 0)
(0.000364617 4.04051e-06 0)
(0.00036064 1.8657e-05 0)
(0.000337908 3.14527e-05 0)
(0.000299263 4.18685e-05 0)
(0.000248306 4.9192e-05 0)
(0.000189541 5.25144e-05 0)
(0.000128434 5.07141e-05 0)
(7.14141e-05 4.24894e-05 0)
(2.67171e-05 2.68259e-05 0)
(4.32206e-06 6.1378e-06 0)
(6.47788e-06 -2.86411e-05 0)
(1.6216e-05 -3.51475e-05 0)
(1.21168e-05 -1.12524e-05 0)
(-1.88927e-05 2.98397e-05 0)
(-8.4429e-05 7.98114e-05 0)
(-0.000188035 0.000133223 0)
(-0.000330831 0.000186593 0)
(-0.000512248 0.000237782 0)
(-0.000730544 0.000285566 0)
(-0.000983267 0.0003293 0)
(-0.00126757 0.000368697 0)
(-0.0015804 0.000403712 0)
(-0.00191865 0.000434463 0)
(-0.0022793 0.000461156 0)
(-0.00265941 0.000484047 0)
(-0.00305624 0.000503414 0)
(-0.00346721 0.000519541 0)
(-0.00388993 0.000532712 0)
(-0.00432219 0.000543194 0)
(-0.00476197 0.00055123 0)
(-0.00520738 0.000557031 0)
(-0.00565673 0.000560785 0)
(-0.0061084 0.000562649 0)
(-0.0065609 0.000562756 0)
(-0.00701284 0.000561211 0)
(-0.00746285 0.000558087 0)
(-0.00790966 0.000553436 0)
(-0.00835202 0.000547283 0)
(-0.00878868 0.000539638 0)
(-0.0092184 0.000530491 0)
(-0.00963994 0.000519822 0)
(-0.010052 0.000507593 0)
(-0.0104534 0.00049376 0)
(-0.0108426 0.00047827 0)
(-0.0112184 0.000461068 0)
(-0.0115794 0.000442098 0)
(-0.0119242 0.000421308 0)
(-0.0122511 0.000398647 0)
(-0.0125589 0.000374077 0)
(-0.0128459 0.000347566 0)
(-0.0131106 0.000319094 0)
(-0.0133516 0.000288658 0)
(-0.0135671 0.00025627 0)
(-0.0137559 0.000221962 0)
(-0.0139163 0.000185788 0)
(-0.0140471 0.000147822 0)
(-0.0141468 0.000108165 0)
(-0.0142143 6.69395e-05 0)
(-0.0142484 2.42963e-05 0)
(-0.0142481 -1.95894e-05 0)
(-0.0142125 -6.45163e-05 0)
(-0.0141411 -0.000110257 0)
(-0.0140333 -0.00015656 0)
(-0.0138888 -0.00020315 0)
(-0.0137076 -0.000249731 0)
(-0.0134898 -0.000295986 0)
(-0.0132359 -0.000341584 0)
(-0.0129465 -0.00038618 0)
(-0.0126227 -0.000429417 0)
(-0.0122656 -0.000470935 0)
(-0.0118767 -0.000510373 0)
(-0.0114579 -0.00054737 0)
(-0.0110112 -0.000581577 0)
(-0.0105389 -0.000612656 0)
(-0.0100435 -0.000640287 0)
(-0.00952787 -0.000664174 0)
(-0.00899501 -0.000684049 0)
(-0.00844812 -0.000699675 0)
(-0.00789055 -0.000710853 0)
(-0.00732581 -0.000717424 0)
(-0.00675751 -0.000719273 0)
(-0.00618931 -0.000716331 0)
(-0.00562492 -0.000708578 0)
(-0.00506805 -0.000696044 0)
(-0.00452237 -0.00067881 0)
(-0.00399144 -0.000657007 0)
(-0.00347874 -0.000630815 0)
(-0.00298757 -0.000600463 0)
(-0.00252104 -0.00056623 0)
(-0.00208204 -0.000528438 0)
(-0.00167319 -0.00048745 0)
(-0.00129679 -0.000443673 0)
(-0.000954856 -0.000397552 0)
(-0.000649003 -0.00034957 0)
(-0.000380473 -0.000300246 0)
(-0.000150085 -0.000250138 0)
(4.17982e-05 -0.00019985 0)
(0.000195301 -0.000150031 0)
(0.000311078 -0.000101393 0)
(0.000390361 -5.47213e-05 0)
(0.000435013 -1.08987e-05 0)
(0.000447599 2.90637e-05 0)
(0.000431467 6.39863e-05 0)
(0.000390849 9.24692e-05 0)
(0.000330971 0.000112838 0)
(0.000258166 0.00012311 0)
(0.000179823 0.000121044 0)
(0.000104266 0.000104345 0)
(4.225e-05 7.14392e-05 0)
(8.11108e-06 2.45821e-05 0)
(3.55398e-06 -3.5654e-05 0)
(3.69037e-07 -3.08964e-05 0)
(-2.95038e-05 1.97353e-05 0)
(-9.71457e-05 9.70324e-05 0)
(-0.000209514 0.000188802 0)
(-0.000370266 0.000286584 0)
(-0.000580545 0.000384636 0)
(-0.000839651 0.000479279 0)
(-0.00114558 0.00056824 0)
(-0.00149549 0.000650205 0)
(-0.00188599 0.000724521 0)
(-0.00231339 0.000790988 0)
(-0.0027739 0.000849704 0)
(-0.00326374 0.000900952 0)
(-0.00377924 0.000945124 0)
(-0.0043169 0.00098268 0)
(-0.00487339 0.00101411 0)
(-0.00544562 0.00103989 0)
(-0.00603068 0.00106051 0)
(-0.00662589 0.00107637 0)
(-0.00722876 0.00108788 0)
(-0.00783696 0.00109536 0)
(-0.00844833 0.00109911 0)
(-0.00906082 0.00109938 0)
(-0.00967251 0.00109635 0)
(-0.0102815 0.00109017 0)
(-0.0108862 0.00108093 0)
(-0.0114846 0.00106869 0)
(-0.0120751 0.00105348 0)
(-0.0126561 0.00103527 0)
(-0.0132257 0.00101403 0)
(-0.0137823 0.000989706 0)
(-0.014324 0.000962215 0)
(-0.0148491 0.000931469 0)
(-0.0153556 0.000897372 0)
(-0.0158419 0.000859827 0)
(-0.0163057 0.000818745 0)
(-0.0167454 0.000774043 0)
(-0.0171587 0.000725655 0)
(-0.0175437 0.000673531 0)
(-0.0178984 0.000617648 0)
(-0.0182208 0.000558009 0)
(-0.0185088 0.000494651 0)
(-0.0187605 0.000427645 0)
(-0.018974 0.000357104 0)
(-0.0191474 0.00028318 0)
(-0.0192791 0.000206075 0)
(-0.0193674 0.000126032 0)
(-0.0194109 4.33446e-05 0)
(-0.0194084 -4.16445e-05 0)
(-0.0193588 -0.000128546 0)
(-0.0192612 -0.000216922 0)
(-0.019115 -0.000306291 0)
(-0.01892 -0.000396125 0)
(-0.0186761 -0.000485861 0)
(-0.0183835 -0.000574897 0)
(-0.018043 -0.000662604 0)
(-0.0176554 -0.000748327 0)
(-0.0172221 -0.000831395 0)
(-0.0167446 -0.000911127 0)
(-0.0162251 -0.000986842 0)
(-0.0156658 -0.00105786 0)
(-0.0150695 -0.00112353 0)
(-0.0144392 -0.00118321 0)
(-0.0137784 -0.00123631 0)
(-0.0130906 -0.00128226 0)
(-0.0123798 -0.00132057 0)
(-0.0116502 -0.00135079 0)
(-0.0109063 -0.00137254 0)
(-0.0101525 -0.00138554 0)
(-0.00939371 -0.00138956 0)
(-0.00863459 -0.00138448 0)
(-0.00788003 -0.00137025 0)
(-0.00713487 -0.00134695 0)
(-0.0064039 -0.0013147 0)
(-0.00569181 -0.00127377 0)
(-0.00500314 -0.0012245 0)
(-0.0043422 -0.00116731 0)
(-0.00371309 -0.00110273 0)
(-0.00311957 -0.00103138 0)
(-0.00256509 -0.000953938 0)
(-0.0020527 -0.000871188 0)
(-0.001585 -0.000783974 0)
(-0.00116414 -0.00069322 0)
(-0.00079176 -0.000599921 0)
(-0.000468923 -0.000505151 0)
(-0.000196114 -0.000410064 0)
(2.68305e-05 -0.000315906 0)
(0.000200759 -0.000224034 0)
(0.000327263 -0.000135933 0)
(0.000408739 -5.32542e-05 0)
(0.000448456 2.21455e-05 0)
(0.000450633 8.81517e-05 0)
(0.000420519 0.000142335 0)
(0.000364491 0.0001819 0)
(0.000290122 0.000203677 0)
(0.000206083 0.000204216 0)
(0.000122029 0.000180073 0)
(5.07185e-05 0.000128572 0)
(1.00868e-05 4.99256e-05 0)
(-1.12362e-07 -3.26824e-05 0)
(-1.95821e-05 -2.7778e-06 0)
(-8.12752e-05 8.59784e-05 0)
(-0.000192324 0.000209847 0)
(-0.000358012 0.000353166 0)
(-0.000581467 0.000504721 0)
(-0.000863444 0.000656659 0)
(-0.00120289 0.000803723 0)
(-0.00159749 0.000942515 0)
(-0.00204401 0.00107097 0)
(-0.00253864 0.00118799 0)
(-0.00307719 0.00129314 0)
(-0.00365533 0.00138645 0)
(-0.00426871 0.00146823 0)
(-0.00491307 0.00153901 0)
(-0.00558429 0.00159943 0)
(-0.00627844 0.00165018 0)
(-0.00699181 0.00169197 0)
(-0.00772091 0.00172547 0)
(-0.0084625 0.00175134 0)
(-0.00921351 0.00177014 0)
(-0.0099711 0.0017824 0)
(-0.0107326 0.00178856 0)
(-0.0114954 0.00178899 0)
(-0.0122571 0.00178399 0)
(-0.0130154 0.00177378 0)
(-0.013768 0.0017585 0)
(-0.0145128 0.00173827 0)
(-0.0152476 0.0017131 0)
(-0.0159702 0.001683 0)
(-0.0166784 0.00164791 0)
(-0.0173701 0.00160774 0)
(-0.018043 0.00156238 0)
(-0.0186949 0.0015117 0)
(-0.0193234 0.00145557 0)
(-0.0199262 0.00139383 0)
(-0.020501 0.00132638 0)
(-0.0210452 0.00125308 0)
(-0.0215565 0.00117384 0)
(-0.0220324 0.00108861 0)
(-0.0224704 0.000997362 0)
(-0.0228679 0.000900117 0)
(-0.0232227 0.000796949 0)
(-0.0235324 0.000687989 0)
(-0.0237945 0.000573428 0)
(-0.024007 0.000453528 0)
(-0.0241679 0.000328616 0)
(-0.0242751 0.000199097 0)
(-0.024327 6.54474e-05 0)
(-0.0243222 -7.17786e-05 0)
(-0.0242593 -0.000211953 0)
(-0.0241374 -0.000354373 0)
(-0.0239558 -0.000498267 0)
(-0.0237143 -0.000642796 0)
(-0.0234128 -0.000787061 0)
(-0.0230517 -0.000930107 0)
(-0.0226318 -0.00107094 0)
(-0.0221542 -0.00120851 0)
(-0.0216207 -0.00134178 0)
(-0.0210333 -0.00146966 0)
(-0.0203943 -0.00159107 0)
(-0.0197067 -0.00170496 0)
(-0.0189738 -0.00181029 0)
(-0.0181993 -0.00190605 0)
(-0.0173872 -0.00199132 0)
(-0.016542 -0.0020652 0)
(-0.0156686 -0.00212692 0)
(-0.0147719 -0.00217578 0)
(-0.0138572 -0.00221118 0)
(-0.0129301 -0.00223267 0)
(-0.0119963 -0.00223991 0)
(-0.0110616 -0.00223268 0)
(-0.0101317 -0.00221093 0)
(-0.00921267 -0.00217476 0)
(-0.00831014 -0.00212438 0)
(-0.0074298 -0.00206021 0)
(-0.00657714 -0.00198276 0)
(-0.00575739 -0.00189273 0)
(-0.00497549 -0.00179094 0)
(-0.00423601 -0.00167837 0)
(-0.00354314 -0.0015561 0)
(-0.00290056 -0.00142537 0)
(-0.00231145 -0.00128753 0)
(-0.00177843 -0.00114405 0)
(-0.00130349 -0.000996514 0)
(-0.000887944 -0.000846638 0)
(-0.000532405 -0.000696261 0)
(-0.000236708 -0.000547365 0)
(1.2789e-07 -0.000402094 0)
(0.000179962 -0.000262783 0)
(0.000305589 -0.000131995 0)
(0.0003808 -1.25662e-05 0)
(0.000410453 9.23317e-05 0)
(0.000400532 0.000179142 0)
(0.000358223 0.00024388 0)
(0.00029197 0.000282133 0)
(0.00021137 0.00028916 0)
(0.000127118 0.00026015 0)
(5.34834e-05 0.000190764 0)
(1.07412e-05 7.81532e-05 0)
(-3.97264e-06 -1.85323e-05 0)
(-4.13048e-05 5.26421e-05 0)
(-0.000138173 0.000192312 0)
(-0.000296761 0.00037354 0)
(-0.000519999 0.000577963 0)
(-0.000809975 0.00079206 0)
(-0.00116668 0.00100612 0)
(-0.0015885 0.0012134 0)
(-0.00207264 0.00140944 0)
(-0.00261546 0.00159142 0)
(-0.00321271 0.00175776 0)
(-0.0038598 0.00190775 0)
(-0.00455194 0.0020413 0)
(-0.00528433 0.00215876 0)
(-0.00605221 0.00226075 0)
(-0.00685095 0.00234809 0)
(-0.00767613 0.00242167 0)
(-0.00852352 0.00248242 0)
(-0.00938916 0.00253125 0)
(-0.0102693 0.00256901 0)
(-0.0111603 0.0025965 0)
(-0.012059 0.00261443 0)
(-0.0129621 0.0026234 0)
(-0.0138666 0.00262392 0)
(-0.0147698 0.00261641 0)
(-0.0156687 0.00260117 0)
(-0.0165607 0.00257842 0)
(-0.0174433 0.0025483 0)
(-0.0183138 0.00251087 0)
(-0.0191695 0.00246611 0)
(-0.020008 0.00241396 0)
(-0.0208266 0.00235431 0)
(-0.0216226 0.00228702 0)
(-0.0223934 0.0022119 0)
(-0.0231363 0.00212877 0)
(-0.0238484 0.00203746 0)
(-0.0245269 0.0019378 0)
(-0.0251691 0.00182963 0)
(-0.025772 0.00171285 0)
(-0.0263327 0.00158739 0)
(-0.0268484 0.00145323 0)
(-0.0273162 0.00131043 0)
(-0.0277334 0.00115911 0)
(-0.0280971 0.000999481 0)
(-0.0284047 0.000831837 0)
(-0.0286538 0.000656568 0)
(-0.0288419 0.000474167 0)
(-0.0289669 0.000285227 0)
(-0.029027 9.04468e-05 0)
(-0.0290203 -0.000109365 0)
(-0.0289456 -0.000313298 0)
(-0.0288017 -0.000520335 0)
(-0.0285879 -0.000729362 0)
(-0.0283039 -0.000939172 0)
(-0.0279498 -0.00114847 0)
(-0.027526 -0.0013559 0)
(-0.0270335 -0.00156002 0)
(-0.0264737 -0.00175935 0)
(-0.0258485 -0.00195238 0)
(-0.0251603 -0.00213759 0)
(-0.0244119 -0.00231343 0)
(-0.0236066 -0.00247839 0)
(-0.0227484 -0.00263099 0)
(-0.0218415 -0.00276983 0)
(-0.0208905 -0.00289355 0)
(-0.0199007 -0.00300091 0)
(-0.0188774 -0.0030908 0)
(-0.0178266 -0.00316221 0)
(-0.0167544 -0.00321432 0)
(-0.0156671 -0.00324647 0)
(-0.0145713 -0.00325815 0)
(-0.0134736 -0.0032491 0)
(-0.0123808 -0.0032192 0)
(-0.0112996 -0.0031686 0)
(-0.0102366 -0.00309762 0)
(-0.00919854 -0.00300682 0)
(-0.00819157 -0.00289695 0)
(-0.0072218 -0.002769 0)
(-0.00629493 -0.00262414 0)
(-0.00541628 -0.00246376 0)
(-0.00459067 -0.00228942 0)
(-0.0038224 -0.0021029 0)
(-0.00311518 -0.00190612 0)
(-0.00247206 -0.00170119 0)
(-0.00189537 -0.00149041 0)
(-0.00138668 -0.00127623 0)
(-0.00094676 -0.00106129 0)
(-0.000575473 -0.000848422 0)
(-0.000271774 -0.00064068 0)
(-3.36267e-05 -0.00044136 0)
(0.000142039 -0.000254049 0)
(0.000259388 -8.26665e-05 0)
(0.000323732 6.84774e-05 0)
(0.000341581 0.000194631 0)
(0.000320698 0.000290562 0)
(0.000270156 0.00035056 0)
(0.000200246 0.000368494 0)
(0.000122479 0.000337996 0)
(5.21152e-05 0.000252738 0)
(1.05424e-05 0.000106598 0)
(-7.77371e-06 7.12967e-06 0)
(-6.35057e-05 0.000137007 0)
(-0.00019712 0.000341349 0)
(-0.000405486 0.000591223 0)
(-0.000688719 0.000866346 0)
(-0.00104755 0.00115142 0)
(-0.00148094 0.00143519 0)
(-0.00198644 0.00170968 0)
(-0.00256065 0.00196945 0)
(-0.00319942 0.00221101 0)
(-0.00389807 0.00243229 0)
(-0.00465158 0.00263234 0)
(-0.00545478 0.00281093 0)
(-0.00630244 0.00296842 0)
(-0.00718939 0.00310554 0)
(-0.00811059 0.00322325 0)
(-0.00906119 0.00332266 0)
(-0.0100365 0.0034049 0)
(-0.0110322 0.00347111 0)
(-0.0120441 0.00352238 0)
(-0.0130681 0.00355972 0)
(-0.0141006 0.00358403 0)
(-0.0151379 0.00359608 0)
(-0.0161767 0.00359653 0)
(-0.0172136 0.00358592 0)
(-0.0182456 0.00356464 0)
(-0.0192695 0.00353299 0)
(-0.0202822 0.00349115 0)
(-0.0212808 0.0034392 0)
(-0.0222624 0.00337712 0)
(-0.0232238 0.00330485 0)
(-0.0241622 0.00322224 0)
(-0.0250744 0.00312911 0)
(-0.0259574 0.00302524 0)
(-0.0268081 0.00291042 0)
(-0.0276233 0.00278441 0)
(-0.0283997 0.00264702 0)
(-0.0291343 0.00249806 0)
(-0.0298236 0.0023374 0)
(-0.0304644 0.002165 0)
(-0.0310536 0.00198083 0)
(-0.0315878 0.00178502 0)
(-0.0320639 0.00157773 0)
(-0.0324789 0.00135929 0)
(-0.0328298 0.0011301 0)
(-0.0331139 0.000890711 0)
(-0.0333284 0.000641808 0)
(-0.0334711 0.000384204 0)
(-0.0335397 0.000118855 0)
(-0.0335325 -0.000153141 0)
(-0.0334478 -0.000430546 0)
(-0.0332846 -0.000711989 0)
(-0.0330421 -0.000995966 0)
(-0.0327199 -0.00128085 0)
(-0.0323181 -0.00156491 0)
(-0.0318373 -0.00184631 0)
(-0.0312787 -0.00212314 0)
(-0.0306437 -0.00239341 0)
(-0.0299346 -0.0026551 0)
(-0.0291539 -0.00290617 0)
(-0.028305 -0.00314456 0)
(-0.0273916 -0.00336827 0)
(-0.026418 -0.00357532 0)
(-0.0253888 -0.00376381 0)
(-0.0243095 -0.00393197 0)
(-0.0231858 -0.00407813 0)
(-0.0220237 -0.00420079 0)
(-0.0208298 -0.00429864 0)
(-0.0196109 -0.00437056 0)
(-0.0183741 -0.00441566 0)
(-0.0171269 -0.00443328 0)
(-0.0158765 -0.00442303 0)
(-0.0146306 -0.00438479 0)
(-0.0133967 -0.00431872 0)
(-0.0121823 -0.00422526 0)
(-0.0109947 -0.00410514 0)
(-0.00984101 -0.00395936 0)
(-0.00872801 -0.00378924 0)
(-0.00766216 -0.00359634 0)
(-0.00664942 -0.00338252 0)
(-0.00569526 -0.00314987 0)
(-0.00480454 -0.00290076 0)
(-0.00398146 -0.00263778 0)
(-0.0032295 -0.00236378 0)
(-0.00255134 -0.00208181 0)
(-0.00194882 -0.00179518 0)
(-0.00142286 -0.00150741 0)
(-0.000973441 -0.0012223 0)
(-0.000599491 -0.000943899 0)
(-0.000298889 -0.00067656 0)
(-6.83871e-05 -0.00042498 0)
(9.64299e-05 -0.000194238 0)
(0.000201188 1.01503e-05 0)
(0.000252767 0.000182184 0)
(0.000259342 0.000315339 0)
(0.000230447 0.000402546 0)
(0.00017689 0.000436217 0)
(0.000110784 0.000408317 0)
(4.7914e-05 0.000310449 0)
(9.82046e-06 0.000133446 0)
(-1.14257e-05 4.42367e-05 0)
(-8.55068e-05 0.000250851 0)
(-0.000256301 0.000534218 0)
(-0.000515319 0.000864452 0)
(-0.000859674 0.00122001 0)
(-0.00128853 0.00158434 0)
(-0.00179958 0.00194503 0)
(-0.00238938 0.00229314 0)
(-0.00305376 0.00262245 0)
(-0.00378798 0.00292888 0)
(-0.00458685 0.00320997 0)
(-0.00544494 0.00346451 0)
(-0.00635667 0.0036922 0)
(-0.00731644 0.0038934 0)
(-0.00831869 0.00406893 0)
(-0.00935804 0.00421992 0)
(-0.0104293 0.00434765 0)
(-0.0115274 0.0044535 0)
(-0.0126475 0.00453882 0)
(-0.0137852 0.00460492 0)
(-0.0149361 0.00465303 0)
(-0.0160961 0.00468425 0)
(-0.0172612 0.00469952 0)
(-0.0184276 0.00469966 0)
(-0.0195917 0.00468531 0)
(-0.02075 0.00465699 0)
(-0.0218991 0.00461504 0)
(-0.0230354 0.00455969 0)
(-0.0241557 0.00449105 0)
(-0.0252566 0.00440912 0)
(-0.0263348 0.0043138 0)
(-0.0273868 0.00420492 0)
(-0.0284094 0.00408228 0)
(-0.029399 0.0039456 0)
(-0.0303521 0.00379464 0)
(-0.0312652 0.00362912 0)
(-0.0321348 0.0034488 0)
(-0.0329572 0.00325348 0)
(-0.0337289 0.00304304 0)
(-0.0344462 0.0028174 0)
(-0.0351056 0.00257661 0)
(-0.0357035 0.00232081 0)
(-0.0362364 0.00205028 0)
(-0.036701 0.00176543 0)
(-0.0370941 0.00146682 0)
(-0.0374125 0.00115518 0)
(-0.0376535 0.000831405 0)
(-0.0378144 0.000496556 0)
(-0.0378929 0.000151878 0)
(-0.0378869 -0.000201207 0)
(-0.0377949 -0.000561102 0)
(-0.0376156 -0.000926037 0)
(-0.0373481 -0.00129408 0)
(-0.0369921 -0.00166315 0)
(-0.0365478 -0.00203101 0)
(-0.0360156 -0.00239533 0)
(-0.035397 -0.00275365 0)
(-0.0346935 -0.00310345 0)
(-0.0339077 -0.00344214 0)
(-0.0330423 -0.0037671 0)
(-0.0321009 -0.00407574 0)
(-0.0310877 -0.00436547 0)
(-0.0300073 -0.00463379 0)
(-0.0288648 -0.00487827 0)
(-0.0276662 -0.00509665 0)
(-0.0264176 -0.00528681 0)
(-0.0251258 -0.00544683 0)
(-0.0237978 -0.00557502 0)
(-0.0224413 -0.00566996 0)
(-0.0210639 -0.00573051 0)
(-0.0196737 -0.00575581 0)
(-0.0182788 -0.00574537 0)
(-0.0168876 -0.00569902 0)
(-0.0155083 -0.00561694 0)
(-0.0141492 -0.00549968 0)
(-0.0128183 -0.00534816 0)
(-0.0115235 -0.00516368 0)
(-0.0102722 -0.00494787 0)
(-0.00907165 -0.00470275 0)
(-0.00792835 -0.00443067 0)
(-0.00684841 -0.00413432 0)
(-0.00583723 -0.00381671 0)
(-0.00489952 -0.00348116 0)
(-0.00403917 -0.00313132 0)
(-0.00325922 -0.00277109 0)
(-0.00256181 -0.0024047 0)
(-0.00194806 -0.00203665 0)
(-0.00141807 -0.00167178 0)
(-0.000970833 -0.00131521 0)
(-0.00060421 -0.000972439 0)
(-0.000314862 -0.000649338 0)
(-9.822e-05 -0.000352211 0)
(5.15502e-05 -8.78306e-05 0)
(0.000141581 0.000136506 0)
(0.000180343 0.000312939 0)
(0.000177696 0.000433007 0)
(0.000144817 0.000487623 0)
(9.42309e-05 0.000467074 0)
(4.18804e-05 0.000360972 0)
(8.80198e-06 0.000157519 0)
(-1.49029e-05 9.2526e-05 0)
(-0.00010696 0.000394009 0)
(-0.00031466 0.000771099 0)
(-0.000624285 0.00119368 0)
(-0.00102994 0.00163955 0)
(-0.00152908 0.00209139 0)
(-0.00211798 0.00253604 0)
(-0.00279206 0.00296387 0)
(-0.00354628 0.00336808 0)
(-0.0043752 0.00374414 0)
(-0.00527308 0.00408931 0)
(-0.00623402 0.0044022 0)
(-0.00725202 0.00468245 0)
(-0.0083211 0.00493047 0)
(-0.00943539 0.00514718 0)
(-0.0105892 0.00533386 0)
(-0.0117769 0.00549201 0)
(-0.0129932 0.00562319 0)
(-0.014233 0.00572901 0)
(-0.0154914 0.00581101 0)
(-0.0167639 0.00587061 0)
(-0.0180458 0.0059091 0)
(-0.019333 0.00592762 0)
(-0.0206214 0.00592712 0)
(-0.0219069 0.00590838 0)
(-0.0231858 0.00587198 0)
(-0.0244542 0.00581837 0)
(-0.0257085 0.00574782 0)
(-0.0269449 0.00566044 0)
(-0.0281597 0.00555624 0)
(-0.0293493 0.00543511 0)
(-0.03051 0.00529687 0)
(-0.0316379 0.00514125 0)
(-0.0327294 0.00496796 0)
(-0.0337806 0.0047767 0)
(-0.0347877 0.00456716 0)
(-0.0357467 0.00433906 0)
(-0.0366537 0.0040922 0)
(-0.0375047 0.00382643 0)
(-0.038296 0.00354171 0)
(-0.0390234 0.00323811 0)
(-0.0396833 0.00291585 0)
(-0.0402719 0.00257529 0)
(-0.0407854 0.00221697 0)
(-0.0412204 0.00184162 0)
(-0.0415736 0.00145016 0)
(-0.041842 0.00104372 0)
(-0.0420226 0.000623627 0)
(-0.042113 0.000191452 0)
(-0.0421109 -0.000251033 0)
(-0.0420147 -0.000701839 0)
(-0.0418229 -0.00115877 0)
(-0.0415347 -0.00161943 0)
(-0.0411496 -0.00208122 0)
(-0.0406678 -0.00254141 0)
(-0.04009 -0.00299709 0)
(-0.0394174 -0.00344523 0)
(-0.038652 -0.00388271 0)
(-0.0377962 -0.00430634 0)
(-0.0368531 -0.0047129 0)
(-0.0358266 -0.00509917 0)
(-0.0347211 -0.00546197 0)
(-0.0335415 -0.0057982 0)
(-0.0322935 -0.00610489 0)
(-0.0309832 -0.00637922 0)
(-0.0296175 -0.00661859 0)
(-0.0282035 -0.0068206 0)
(-0.026749 -0.00698319 0)
(-0.0252619 -0.00710457 0)
(-0.0237508 -0.00718332 0)
(-0.0222243 -0.00721839 0)
(-0.0206912 -0.00720912 0)
(-0.0191605 -0.0071553 0)
(-0.0176413 -0.00705714 0)
(-0.0161424 -0.0069153 0)
(-0.0146725 -0.0067309 0)
(-0.0132404 -0.0065055 0)
(-0.0118541 -0.00624114 0)
(-0.0105214 -0.00594026 0)
(-0.00924952 -0.00560578 0)
(-0.0080452 -0.00524101 0)
(-0.00691436 -0.00484967 0)
(-0.0058622 -0.00443586 0)
(-0.00489304 -0.00400408 0)
(-0.00401034 -0.00355917 0)
(-0.00321651 -0.00310634 0)
(-0.00251293 -0.00265114 0)
(-0.0018999 -0.00219951 0)
(-0.0013765 -0.00175773 0)
(-0.000940639 -0.00133251 0)
(-0.000588963 -0.000930942 0)
(-0.000316828 -0.00056062 0)
(-0.000118275 -0.000229622 0)
(1.3995e-05 5.34212e-05 0)
(8.86533e-05 0.00027928 0)
(0.000115782 0.000438077 0)
(0.000106808 0.000519226 0)
(7.45134e-05 0.000511386 0)
(3.47419e-05 0.000402342 0)
(7.63569e-06 0.000178106 0)
(-1.82026e-05 0.00015163 0)
(-0.000127708 0.00056593 0)
(-0.000371611 0.00105153 0)
(-0.000731213 0.00157859 0)
(-0.00119766 0.00212478 0)
(-0.00176665 0.00267244 0)
(-0.00243296 0.00320801 0)
(-0.00319079 0.00372145 0)
(-0.00403412 0.00420561 0)
(-0.00495673 0.00465572 0)
(-0.00595228 0.00506882 0)
(-0.00701434 0.00544347 0)
(-0.00813649 0.0057793 0)
(-0.00931238 0.0060768 0)
(-0.0105358 0.00633702 0)
(-0.0118007 0.00656142 0)
(-0.0131012 0.00675169 0)
(-0.0144318 0.00690964 0)
(-0.0157871 0.00703709 0)
(-0.0171618 0.0071358 0)
(-0.0185511 0.00720741 0)
(-0.0199503 0.00725342 0)
(-0.0213547 0.00727511 0)
(-0.0227601 0.00727359 0)
(-0.0241621 0.00724976 0)
(-0.0255566 0.00720431 0)
(-0.0269395 0.00713773 0)
(-0.0283069 0.00705035 0)
(-0.0296546 0.00694229 0)
(-0.0309788 0.00681357 0)
(-0.0322755 0.00666407 0)
(-0.0335405 0.00649356 0)
(-0.03477 0.00630175 0)
(-0.0359597 0.00608832 0)
(-0.0371056 0.0058529 0)
(-0.0382035 0.00559516 0)
(-0.0392492 0.0053148 0)
(-0.0402384 0.00501158 0)
(-0.041167 0.00468536 0)
(-0.0420306 0.00433613 0)
(-0.0428251 0.00396399 0)
(-0.0435464 0.00356925 0)
(-0.0441903 0.00315236 0)
(-0.0447531 0.00271401 0)
(-0.0452309 0.0022551 0)
(-0.0456203 0.00177676 0)
(-0.0459178 0.00128038 0)
(-0.0461204 0.000767576 0)
(-0.0462255 0.000240258 0)
(-0.0462307 -0.000299425 0)
(-0.046134 -0.000849067 0)
(-0.045934 -0.00140601 0)
(-0.0456297 -0.00196736 0)
(-0.0452206 -0.00253 0)
(-0.0447068 -0.00309062 0)
(-0.044089 -0.00364573 0)
(-0.0433685 -0.00419167 0)
(-0.0425474 -0.00472471 0)
(-0.0416281 -0.00524099 0)
(-0.040614 -0.00573664 0)
(-0.0395092 -0.00620779 0)
(-0.0383181 -0.00665062 0)
(-0.0370462 -0.00706139 0)
(-0.0356993 -0.00743652 0)
(-0.0342841 -0.00777262 0)
(-0.0328077 -0.00806652 0)
(-0.0312778 -0.00831537 0)
(-0.0297027 -0.00851664 0)
(-0.0280908 -0.00866816 0)
(-0.0264513 -0.0087682 0)
(-0.0247934 -0.00881546 0)
(-0.0231266 -0.00880916 0)
(-0.0214606 -0.00874897 0)
(-0.019805 -0.00863514 0)
(-0.0181694 -0.00846843 0)
(-0.0165633 -0.00825016 0)
(-0.0149959 -0.00798218 0)
(-0.0134761 -0.00766692 0)
(-0.0120124 -0.00730732 0)
(-0.0106126 -0.00690685 0)
(-0.00928397 -0.00646949 0)
(-0.00803306 -0.00599972 0)
(-0.00686557 -0.00550248 0)
(-0.00578631 -0.00498317 0)
(-0.00479913 -0.00444762 0)
(-0.0039068 -0.00390209 0)
(-0.003111 -0.00335325 0)
(-0.00241224 -0.0028082 0)
(-0.00180977 -0.00227444 0)
(-0.0013016 -0.00175995 0)
(-0.000884415 -0.00127312 0)
(-0.000553566 -0.000822872 0)
(-0.000303034 -0.000418627 0)
(-0.000125422 -7.03945e-05 0)
(-1.1929e-05 0.000211203 0)
(4.76699e-05 0.000414863 0)
(6.49603e-05 0.00052852 0)
(5.28745e-05 0.000539288 0)
(2.70059e-05 0.000433312 0)
(6.41571e-06 0.000194818 0)
(-2.13336e-05 0.000221126 0)
(-0.000147696 0.000765839 0)
(-0.000426862 0.00137464 0)
(-0.000835436 0.00201837 0)
(-0.0013617 0.00267495 0)
(-0.00199961 0.00332676 0)
(-0.00274241 0.00396018 0)
(-0.00358302 0.00456503 0)
(-0.00451437 0.00513404 0)
(-0.00552944 0.00566233 0)
(-0.00662117 0.00614694 0)
(-0.0077826 0.00658642 0)
(-0.00900686 0.0069805 0)
(-0.0102872 0.00732979 0)
(-0.0116171 0.00763551 0)
(-0.0129902 0.00789933 0)
(-0.0144003 0.00812316 0)
(-0.0158417 0.00830903 0)
(-0.0173087 0.00845901 0)
(-0.0187959 0.00857507 0)
(-0.020298 0.00865908 0)
(-0.0218103 0.00871271 0)
(-0.0233277 0.00873743 0)
(-0.0248458 0.00873449 0)
(-0.02636 0.00870489 0)
(-0.0278659 0.00864943 0)
(-0.0293592 0.00856865 0)
(-0.0308356 0.00846292 0)
(-0.0322908 0.0083324 0)
(-0.0337206 0.00817709 0)
(-0.0351208 0.00799684 0)
(-0.036487 0.00779141 0)
(-0.0378149 0.00756047 0)
(-0.0391002 0.00730364 0)
(-0.0403383 0.00702052 0)
(-0.041525 0.00671075 0)
(-0.0426556 0.00637398 0)
(-0.0437258 0.00600998 0)
(-0.0447308 0.00561861 0)
(-0.0456663 0.00519986 0)
(-0.0465277 0.00475391 0)
(-0.0473108 0.00428112 0)
(-0.048011 0.00378208 0)
(-0.0486244 0.00325761 0)
(-0.0491468 0.0027088 0)
(-0.0495744 0.00213701 0)
(-0.0499038 0.00154389 0)
(-0.0501316 0.00093138 0)
(-0.050255 0.000301732 0)
(-0.0502714 -0.000342505 0)
(-0.0501787 -0.000998482 0)
(-0.0499753 -0.00166306 0)
(-0.0496601 -0.00233282 0)
(-0.0492324 -0.00300409 0)
(-0.0486924 -0.00367296 0)
(-0.0480406 -0.0043353 0)
(-0.0472784 -0.00498683 0)
(-0.0464078 -0.00562312 0)
(-0.0454314 -0.00623965 0)
(-0.0443527 -0.00683184 0)
(-0.0431758 -0.00739512 0)
(-0.0419055 -0.00792497 0)
(-0.0405473 -0.008417 0)
(-0.0391076 -0.00886696 0)
(-0.0375931 -0.00927082 0)
(-0.0360115 -0.00962486 0)
(-0.0343708 -0.00992566 0)
(-0.0326798 -0.0101702 0)
(-0.0309475 -0.0103559 0)
(-0.0291835 -0.0104808 0)
(-0.0273977 -0.0105431 0)
(-0.0256002 -0.010542 0)
(-0.0238013 -0.010477 0)