/*--------------------------------*- C++ -*----------------------------------*\
  =========                 |
  \\      /  F ield         | OpenFOAM: The Open Source CFD Toolbox
   \\    /   O peration     | Website:  https://openfoam.org
    \\  /    A nd           | Version:  7
     \\/     M anipulation  |
\*---------------------------------------------------------------------------*/
FoamFile
{
    version     2.0;
    format      ascii;
    class       volScalarField;
    location    "20";
    object      p;
}
// * * * * * * * * * * * * * * * * * * * * * * * * * * * * * * * * * * * * * //

dimensions      [0 2 -2 0 0 0 0];

internalField   nonuniform List<scalar> 
8500
(
-0.269225
-0.271044
-0.271959
-0.273049
-0.274477
-0.276358
-0.278805
-0.281935
-0.28589
-0.290996
-0.269486
-0.271257
-0.272156
-0.273232
-0.274647
-0.276515
-0.278947
-0.282059
-0.285986
-0.291049
-0.269995
-0.271672
-0.272538
-0.273587
-0.274976
-0.276816
-0.279216
-0.282291
-0.28616
-0.291133
-0.270725
-0.272268
-0.273085
-0.274092
-0.27544
-0.277236
-0.279583
-0.2826
-0.286383
-0.291205
-0.271642
-0.273016
-0.273769
-0.274718
-0.276007
-0.277741
-0.280013
-0.282945
-0.286616
-0.291207
-0.272701
-0.273881
-0.274555
-0.27543
-0.276642
-0.27829
-0.280459
-0.283274
-0.286814
-0.291071
-0.273858
-0.274826
-0.275408
-0.276191
-0.277305
-0.278842
-0.280877
-0.283535
-0.286935
-0.290725
-0.275066
-0.275815
-0.276294
-0.276968
-0.277958
-0.279356
-0.281224
-0.283675
-0.286944
-0.290098
-0.276281
-0.276817
-0.277182
-0.277728
-0.278569
-0.279797
-0.281466
-0.283649
-0.28682
-0.289141
-0.277467
-0.277805
-0.278049
-0.278449
-0.279114
-0.28014
-0.281581
-0.283429
-0.286531
-0.287913
-0.278595
-0.278759
-0.278877
-0.279113
-0.279576
-0.28037
-0.281563
-0.283037
-0.285849
-0.286588
-0.279652
-0.279665
-0.279658
-0.279714
-0.279951
-0.280483
-0.281371
-0.282542
-0.285012
-0.284902
-0.280623
-0.280525
-0.280389
-0.280253
-0.280244
-0.280493
-0.281062
-0.281906
-0.284116
-0.282871
-0.281513
-0.281343
-0.281077
-0.280738
-0.280467
-0.280419
-0.280658
-0.281191
-0.283218
-0.280583
-0.282338
-0.282131
-0.281736
-0.281185
-0.280639
-0.280287
-0.280187
-0.280489
-0.282363
-0.278162
-0.283125
-0.282911
-0.282385
-0.281616
-0.280789
-0.280133
-0.279674
-0.279916
-0.281513
-0.275865
-0.283909
-0.283714
-0.28305
-0.282057
-0.280946
-0.279997
-0.279138
-0.279606
-0.280511
-0.273977
-0.284743
-0.28457
-0.283763
-0.282544
-0.281151
-0.279923
-0.278582
-0.279674
-0.278988
-0.272649
-0.285681
-0.285519
-0.284567
-0.283115
-0.281445
-0.279955
-0.278046
-0.280112
-0.276986
-0.272284
-0.286785
-0.286613
-0.2855
-0.283817
-0.281876
-0.280129
-0.277658
-0.280538
-0.274915
-0.27488
-0.288122
-0.2879
-0.286606
-0.284695
-0.282492
-0.280475
-0.277668
-0.280216
-0.273559
-0.281381
-0.289755
-0.289429
-0.287927
-0.285786
-0.28333
-0.281019
-0.278106
-0.279069
-0.273954
-0.276571
-0.291744
-0.291247
-0.289502
-0.287118
-0.284416
-0.281781
-0.27872
-0.278021
-0.273869
-0.272349
-0.294142
-0.293387
-0.291367
-0.288711
-0.285753
-0.282748
-0.279342
-0.277318
-0.272989
-0.269422
-0.296995
-0.295884
-0.293553
-0.290585
-0.287327
-0.283867
-0.279981
-0.2768
-0.271712
-0.266661
-0.300358
-0.29878
-0.296085
-0.292765
-0.289114
-0.2851
-0.280658
-0.276331
-0.270093
-0.263935
-0.304273
-0.302118
-0.299006
-0.295282
-0.291093
-0.286482
-0.281357
-0.275734
-0.268226
-0.260985
-0.308774
-0.305957
-0.302377
-0.29816
-0.293295
-0.288064
-0.282
-0.274916
-0.266086
-0.257793
-0.313924
-0.310351
-0.306263
-0.301409
-0.295818
-0.289825
-0.282493
-0.273817
-0.263671
-0.254335
-0.319783
-0.315365
-0.310723
-0.305059
-0.298753
-0.291669
-0.282765
-0.272413
-0.260972
-0.2506
-0.326406
-0.321073
-0.315791
-0.309198
-0.302086
-0.293482
-0.282759
-0.270687
-0.257982
-0.246578
-0.33384
-0.327539
-0.321468
-0.313939
-0.305691
-0.295152
-0.282435
-0.268626
-0.254689
-0.242248
-0.342113
-0.334799
-0.327762
-0.319311
-0.309404
-0.296578
-0.28175
-0.266209
-0.251071
-0.237584
-0.351231
-0.342842
-0.334703
-0.325191
-0.313056
-0.297666
-0.280657
-0.263405
-0.247095
-0.232552
-0.361163
-0.351604
-0.342317
-0.331342
-0.316473
-0.298324
-0.279102
-0.260174
-0.242719
-0.227115
-0.371828
-0.360969
-0.350553
-0.337492
-0.319475
-0.298451
-0.277021
-0.256463
-0.237892
-0.221231
-0.383089
-0.370792
-0.359216
-0.343376
-0.321886
-0.297943
-0.27434
-0.252212
-0.232556
-0.214859
-0.394736
-0.380904
-0.367972
-0.34873
-0.323539
-0.296687
-0.270975
-0.247352
-0.226652
-0.207962
-0.406486
-0.391102
-0.3764
-0.353274
-0.324265
-0.294566
-0.266838
-0.24181
-0.22012
-0.20051
-0.417987
-0.40112
-0.384058
-0.356719
-0.323896
-0.291462
-0.261837
-0.235509
-0.212903
-0.192481
-0.428832
-0.41061
-0.390522
-0.358782
-0.322262
-0.287255
-0.255879
-0.228375
-0.204951
-0.183849
-0.438578
-0.419141
-0.395414
-0.359209
-0.319199
-0.281827
-0.24887
-0.220334
-0.196218
-0.17459
-0.446774
-0.426221
-0.398403
-0.35778
-0.314554
-0.275067
-0.240721
-0.211311
-0.18665
-0.164673
-0.452975
-0.431348
-0.399197
-0.354315
-0.308196
-0.266872
-0.231352
-0.201237
-0.176184
-0.154034
-0.456771
-0.43406
-0.397523
-0.348662
-0.300013
-0.257157
-0.220699
-0.190057
-0.164745
-0.142526
-0.457797
-0.433967
-0.39313
-0.340693
-0.289916
-0.245853
-0.208708
-0.17774
-0.15229
-0.129921
-0.455741
-0.430751
-0.385826
-0.330308
-0.277835
-0.2329
-0.195331
-0.164268
-0.138865
-0.116069
-0.450347
-0.424169
-0.375477
-0.317438
-0.263722
-0.218253
-0.180522
-0.14961
-0.12456
-0.101202
-0.441415
-0.414056
-0.362007
-0.302043
-0.247545
-0.201889
-0.164289
-0.133796
-0.109251
-0.0859537
-0.428805
-0.40032
-0.345392
-0.284117
-0.229294
-0.183835
-0.14673
-0.117048
-0.0927247
-0.0702957
-0.412434
-0.382937
-0.325665
-0.263687
-0.208992
-0.164184
-0.127961
-0.0991491
-0.0752539
-0.0540805
-0.392282
-0.361946
-0.302917
-0.240822
-0.186737
-0.143016
-0.10791
-0.0801368
-0.0569883
-0.0372769
-0.368386
-0.337449
-0.277258
-0.215618
-0.162676
-0.120298
-0.0866206
-0.0600969
-0.0379983
-0.0199334
-0.340857
-0.309638
-0.248735
-0.188175
-0.136853
-0.0961491
-0.0641747
-0.0391214
-0.0183298
-0.0021121
-0.309872
-0.278793
-0.217292
-0.158643
-0.109389
-0.0707003
-0.0406798
-0.0172974
0.00196869
0.016144
-0.275636
-0.245123
-0.183194
-0.127133
-0.0804331
-0.0440905
-0.0162495
0.00528943
0.0228147
0.0346985
-0.238346
-0.208434
-0.147227
-0.0938816
-0.0501451
-0.0164586
0.00901527
0.028555
0.044016
0.053072
-0.198262
-0.168747
-0.109877
-0.0592668
-0.018722
0.0120586
0.0350261
0.0523936
0.0652228
0.0705084
-0.155689
-0.126764
-0.0710771
-0.0235566
0.0136169
0.0413125
0.0616636
0.0766238
0.0861232
0.086941
-0.110839
-0.0831927
-0.0309889
0.0130378
0.0466534
0.0711281
0.0887194
0.100934
0.106777
0.104315
-0.0642785
-0.0383636
0.0100982
0.0502935
0.0801741
0.101305
0.115923
0.124979
0.127253
0.126638
-0.0164454
0.00739076
0.0518578
0.0879607
0.113959
0.131627
0.143059
0.148812
0.148357
0.148719
0.0322117
0.0536936
0.0939498
0.12577
0.147774
0.161878
0.170008
0.172614
0.169976
0.16966
0.0812414
0.100154
0.136032
0.163441
0.181378
0.191845
0.196632
0.196235
0.191548
0.189722
0.130191
0.146377
0.177761
0.200688
0.214529
0.221335
0.222802
0.219522
0.212734
0.20892
0.17861
0.191966
0.2188
0.237229
0.246984
0.250147
0.248348
0.24227
0.233334
0.227348
0.226059
0.236536
0.258819
0.272783
0.278508
0.278087
0.273099
0.264297
0.253184
0.244946
0.272113
0.279703
0.297493
0.307078
0.30887
0.304958
0.296881
0.285443
0.272171
0.261664
0.316372
0.32109
0.334511
0.33985
0.337845
0.33057
0.319527
0.305556
0.290174
0.277419
0.358445
0.360345
0.369573
0.370849
0.365221
0.354742
0.340878
0.324501
0.307087
0.292137
0.397961
0.397138
0.402398
0.399836
0.390796
0.3773
0.360786
0.342151
0.322805
0.305743
0.434571
0.431164
0.432724
0.426589
0.414379
0.398083
0.379114
0.358388
0.337233
0.318169
0.467957
0.462143
0.460309
0.450906
0.435798
0.416945
0.395735
0.373104
0.350282
0.329353
0.497826
0.489822
0.484938
0.472601
0.454896
0.433749
0.410536
0.386201
0.361874
0.339243
0.523922
0.513975
0.506416
0.491509
0.471531
0.448379
0.423415
0.397592
0.37194
0.347794
0.546018
0.534406
0.524575
0.507487
0.485583
0.460731
0.434284
0.407203
0.380418
0.354969
0.563926
0.550952
0.539275
0.520417
0.496948
0.470718
0.443069
0.414968
0.387261
0.360739
0.577492
0.563478
0.5504
0.530199
0.505545
0.478269
0.44971
0.420837
0.392427
0.365084
0.586601
0.571885
0.557865
0.536762
0.511312
0.483333
0.454163
0.424772
0.395887
0.367987
0.591174
0.576106
0.561612
0.540056
0.514205
0.485874
0.456397
0.426746
0.397622
0.369442
0.591174
0.576106
0.561611
0.540056
0.514205
0.485874
0.456397
0.426746
0.397622
0.369442
0.5866
0.571885
0.557865
0.536762
0.511312
0.483333
0.454163
0.424772
0.395887
0.367987
0.577492
0.563478
0.5504
0.530199
0.505545
0.478269
0.44971
0.420837
0.392427
0.365084
0.563926
0.550951
0.539274
0.520417
0.496948
0.470717
0.443068
0.414968
0.38726
0.360739
0.546018
0.534406
0.524575
0.507487
0.485582
0.460731
0.434283
0.407202
0.380418
0.354969
0.523921
0.513974
0.506416
0.491508
0.471531
0.448379
0.423415
0.397592
0.371939
0.347794
0.497826
0.489821
0.484938
0.4726
0.454895
0.433749
0.410536
0.386201
0.361874
0.339243
0.467956
0.462142
0.460309
0.450906
0.435798
0.416944
0.395735
0.373104
0.350282
0.329353
0.434571
0.431163
0.432723
0.426589
0.414379
0.398083
0.379114
0.358388
0.337233
0.318169
0.39796
0.397137
0.402397
0.399835
0.390795
0.3773
0.360786
0.342151
0.322805
0.305743
0.358444
0.360344
0.369572
0.370848
0.365221
0.354742
0.340878
0.324501
0.307087
0.292137
0.316371
0.321089
0.33451
0.33985
0.337845
0.33057
0.319526
0.305555
0.290174
0.277419
0.272112
0.279702
0.297492
0.307077
0.308869
0.304957
0.296881
0.285442
0.272171
0.261664
0.226058
0.236535
0.258818
0.272782
0.278508
0.278086
0.273099
0.264297
0.253184
0.244946
0.178609
0.191965
0.218799
0.237228
0.246984
0.250147
0.248347
0.24227
0.233334
0.227348
0.13019
0.146376
0.17776
0.200688
0.214528
0.221335
0.222802
0.219522
0.212734
0.208919
0.0812404
0.100154
0.136031
0.16344
0.181378
0.191845
0.196631
0.196234
0.191548
0.189722
0.0322108
0.0536927
0.093949
0.125769
0.147774
0.161877
0.170008
0.172614
0.169976
0.16966
-0.0164463
0.00738994
0.0518571
0.0879602
0.113958
0.131627
0.143059
0.148812
0.148357
0.148719
-0.0642793
-0.0383644
0.0100975
0.050293
0.0801737
0.101305
0.115923
0.124979
0.127253
0.126638
-0.11084
-0.0831934
-0.0309895
0.0130373
0.046653
0.0711279
0.0887192
0.100934
0.106777
0.104314
-0.155689
-0.126765
-0.0710776
-0.023557
0.0136166
0.0413123
0.0616634
0.0766236
0.0861231
0.086941
-0.198263
-0.168748
-0.109878
-0.0592672
-0.0187223
0.0120584
0.035026
0.0523935
0.0652227
0.0705083
-0.238346
-0.208435
-0.147227
-0.0938819
-0.0501453
-0.0164588
0.00901518
0.0285549
0.044016
0.0530719
-0.275636
-0.245123
-0.183195
-0.127133
-0.0804332
-0.0440906
-0.0162495
0.00528941
0.0228147
0.0346985
-0.309872
-0.278794
-0.217292
-0.158643
-0.109389
-0.0707003
-0.0406798
-0.0172974
0.00196872
0.016144
-0.340857
-0.309638
-0.248735
-0.188175
-0.136853
-0.096149
-0.0641746
-0.0391213
-0.0183297
-0.00211204
-0.368386
-0.337449
-0.277258
-0.215617
-0.162676
-0.120297
-0.0866205
-0.0600968
-0.0379982
-0.0199333
-0.392281
-0.361945
-0.302916
-0.240822
-0.186737
-0.143016
-0.10791
-0.0801366
-0.0569881
-0.0372768
-0.412434
-0.382937
-0.325665
-0.263687
-0.208992
-0.164184
-0.127961
-0.0991488
-0.0752537
-0.0540804
-0.428804
-0.400319
-0.345391
-0.284117
-0.229294
-0.183834
-0.146729
-0.117048
-0.0927244
-0.0702955
-0.441414
-0.414055
-0.362006
-0.302043
-0.247545
-0.201889
-0.164288
-0.133796
-0.109251
-0.0859535
-0.450346
-0.424168
-0.375476
-0.317437
-0.263721
-0.218252
-0.180521
-0.14961
-0.12456
-0.101202
-0.45574
-0.43075
-0.385825
-0.330307
-0.277834
-0.232899
-0.19533
-0.164268
-0.138865
-0.116069
-0.457795
-0.433966
-0.393128
-0.340692
-0.289915
-0.245852
-0.208708
-0.17774
-0.15229
-0.129921
-0.456769
-0.434058
-0.397521
-0.348661
-0.300012
-0.257156
-0.220698
-0.190056
-0.164745
-0.142525
-0.452973
-0.431346
-0.399196
-0.354313
-0.308195
-0.266871
-0.231351
-0.201236
-0.176184
-0.154033
-0.446771
-0.426219
-0.398401
-0.357778
-0.314553
-0.275065
-0.24072
-0.21131
-0.18665
-0.164673
-0.438576
-0.419138
-0.395412
-0.359207
-0.319197
-0.281826
-0.248869
-0.220333
-0.196217
-0.174589
-0.428829
-0.410608
-0.390519
-0.35878
-0.322261
-0.287253
-0.255878
-0.228374
-0.20495
-0.183849
-0.417985
-0.401117
-0.384055
-0.356716
-0.323894
-0.29146
-0.261836
-0.235508
-0.212902
-0.19248
-0.406484
-0.391099
-0.376398
-0.353271
-0.324263
-0.294564
-0.266837
-0.241808
-0.220119
-0.20051
-0.394733
-0.380902
-0.367969
-0.348727
-0.323536
-0.296685
-0.270973
-0.247351
-0.226651
-0.207961
-0.383086
-0.370789
-0.359213
-0.343373
-0.321884
-0.297942
-0.274338
-0.252211
-0.232555
-0.214859
-0.371825
-0.360966
-0.35055
-0.33749
-0.319473
-0.298449
-0.277019
-0.256462
-0.237891
-0.221231
-0.36116
-0.351601
-0.342314
-0.33134
-0.316471
-0.298322
-0.279101
-0.260172
-0.242718
-0.227114
-0.351229
-0.342839
-0.3347
-0.325188
-0.313054
-0.297664
-0.280655
-0.263403
-0.247094
-0.232551
-0.342111
-0.334796
-0.327759
-0.319308
-0.309402
-0.296576
-0.281748
-0.266207
-0.25107
-0.237583
-0.333837
-0.327536
-0.321466
-0.313936
-0.305689
-0.295149
-0.282433
-0.268624
-0.254688
-0.242247
-0.326403
-0.32107
-0.315788
-0.309195
-0.302083
-0.293479
-0.282757
-0.270685
-0.257981
-0.246577
-0.31978
-0.315362
-0.310721
-0.305056
-0.298751
-0.291667
-0.282762
-0.272411
-0.26097
-0.250599
-0.313921
-0.310348
-0.30626
-0.301406
-0.295815
-0.289822
-0.282491
-0.273815
-0.263669
-0.254333
-0.308771
-0.305954
-0.302374
-0.298157
-0.293292
-0.288062
-0.281997
-0.274913
-0.266084
-0.257791
-0.30427
-0.302115
-0.299003
-0.295279
-0.29109
-0.286479
-0.281355
-0.275731
-0.268223
-0.260983
-0.300355
-0.298777
-0.296082
-0.292762
-0.289111
-0.285097
-0.280655
-0.276327
-0.27009
-0.263933
-0.296992
-0.295882
-0.29355
-0.290582
-0.287324
-0.283864
-0.279977
-0.276797
-0.271709
-0.266659
-0.294139
-0.293385
-0.291364
-0.288708
-0.28575
-0.282745
-0.279339
-0.277315
-0.272985
-0.269419
-0.291741
-0.291244
-0.2895
-0.287115
-0.284413
-0.281777
-0.278716
-0.278017
-0.273865
-0.272346
-0.289752
-0.289427
-0.287924
-0.285783
-0.283327
-0.281016
-0.278102
-0.279066
-0.27395
-0.276568
-0.288119
-0.287897
-0.286603
-0.284692
-0.282488
-0.280472
-0.277664
-0.280213
-0.273556
-0.281379
-0.286782
-0.28661
-0.285498
-0.283814
-0.281873
-0.280125
-0.277654
-0.280534
-0.274912
-0.274877
-0.285678
-0.285517
-0.284565
-0.283112
-0.281442
-0.279951
-0.278042
-0.280108
-0.276982
-0.272281
-0.284741
-0.284567
-0.283761
-0.282541
-0.281148
-0.279919
-0.278578
-0.27967
-0.278984
-0.272646
-0.283907
-0.283712
-0.283047
-0.282055
-0.280944
-0.279994
-0.279135
-0.279602
-0.280507
-0.273975
-0.283123
-0.28291
-0.282383
-0.281613
-0.280786
-0.280131
-0.279671
-0.279913
-0.281509
-0.275862
-0.282337
-0.282129
-0.281734
-0.281183
-0.280637
-0.280285
-0.280184
-0.280487
-0.28236
-0.27816
-0.281511
-0.281341
-0.281075
-0.280736
-0.280464
-0.280416
-0.280656
-0.281188
-0.283215
-0.280582
-0.280621
-0.280524
-0.280387
-0.280251
-0.280242
-0.280491
-0.281059
-0.281904
-0.284114
-0.28287
-0.279651
-0.279664
-0.279656
-0.279712
-0.279949
-0.280481
-0.281369
-0.28254
-0.28501
-0.284901
-0.278595
-0.278758
-0.278876
-0.279112
-0.279574
-0.280369
-0.281561
-0.283035
-0.285847
-0.286587
-0.277466
-0.277804
-0.278048
-0.278447
-0.279112
-0.280139
-0.28158
-0.283428
-0.28653
-0.287913
-0.27628
-0.276817
-0.277181
-0.277727
-0.278568
-0.279796
-0.281465
-0.283648
-0.286818
-0.289141
-0.275065
-0.275815
-0.276293
-0.276967
-0.277957
-0.279355
-0.281223
-0.283674
-0.286943
-0.290098
-0.273858
-0.274825
-0.275407
-0.276191
-0.277304
-0.278841
-0.280877
-0.283534
-0.286934
-0.290725
-0.272701
-0.27388
-0.274554
-0.275429
-0.276641
-0.278289
-0.280459
-0.283274
-0.286814
-0.291071
-0.271642
-0.273016
-0.273768
-0.274717
-0.276007
-0.27774
-0.280012
-0.282944
-0.286616
-0.291207
-0.270725
-0.272268
-0.273085
-0.274091
-0.275439
-0.277236
-0.279583
-0.2826
-0.286383
-0.291205
-0.269995
-0.271672
-0.272538
-0.273586
-0.274975
-0.276816
-0.279215
-0.282291
-0.28616
-0.291133
-0.269486
-0.271257
-0.272156
-0.273232
-0.274647
-0.276515
-0.278947
-0.282059
-0.285986
-0.29105
-0.269225
-0.271044
-0.271959
-0.273049
-0.274477
-0.276358
-0.278805
-0.281935
-0.28589
-0.290996
-0.297798
-0.306187
-0.316731
-0.329452
-0.344699
-0.362493
-0.382783
-0.4052
-0.429106
-0.453521
-0.47721
-0.498732
-0.516575
-0.529282
-0.535498
-0.533858
-0.522948
-0.501665
-0.467999
-0.422049
-0.361111
-0.291257
-0.205943
-0.125549
-0.0509999
0.0109562
0.0340924
0.0528493
0.0396744
0.0218176
-0.297914
-0.30627
-0.316812
-0.329539
-0.344804
-0.36263
-0.382961
-0.405428
-0.429391
-0.453862
-0.477604
-0.499169
-0.517048
-0.529788
-0.536029
-0.534426
-0.523568
-0.502359
-0.46875
-0.422885
-0.361991
-0.292193
-0.206832
-0.126318
-0.0517151
0.010495
0.0337082
0.0525574
0.0394675
0.0216964
-0.29812
-0.306406
-0.316946
-0.329682
-0.344981
-0.362864
-0.383275
-0.405839
-0.429912
-0.454493
-0.478336
-0.49999
-0.517942
-0.530746
-0.537041
-0.535513
-0.524757
-0.503696
-0.470198
-0.424499
-0.363693
-0.294004
-0.208566
-0.127817
-0.0531288
0.0095858
0.0329386
0.0519674
0.0390536
0.0214566
-0.298364
-0.306546
-0.317078
-0.329823
-0.345165
-0.363126
-0.383645
-0.406347
-0.430574
-0.455313
-0.479304
-0.501091
-0.519153
-0.532057
-0.538439
-0.537035
-0.526423
-0.505579
-0.472251
-0.426789
-0.366116
-0.296591
-0.211077
-0.129982
-0.0552153
0.00823764
0.0317892
0.0510688
0.038433
0.0211032
-0.298576
-0.306621
-0.317134
-0.329885
-0.345272
-0.363322
-0.383968
-0.406833
-0.431252
-0.45619
-0.480374
-0.502334
-0.520546
-0.53359
-0.540097
-0.538848
-0.528448
-0.507887
-0.474788
-0.429628
-0.369136
-0.299826
-0.21427
-0.132736
-0.0578734
0.00642292
0.0302725
0.0498518
0.0376072
0.0206428
-0.29868
-0.306554
-0.317036
-0.329783
-0.345208
-0.363344
-0.384125
-0.40717
-0.431807
-0.456978
-0.481392
-0.503571
-0.521977
-0.535204
-0.541878
-0.540812
-0.53071
-0.510491
-0.477681
-0.432881
-0.372618
-0.30357
-0.218044
-0.135995
-0.0610414
0.00414284
0.0283995
0.048311
0.0365799
0.0200831
-0.298601
-0.306274
-0.316706
-0.329434
-0.344879
-0.36309
-0.384
-0.407227
-0.432097
-0.457527
-0.482208
-0.50465
-0.523298
-0.536762
-0.543659
-0.54297
-0.533081
-0.513263
-0.480806
-0.43642
-0.376433
-0.30769
-0.2223
-0.139649
-0.0646543
0.00140382
0.026185
0.0464485
0.0353575
0.0194321
-0.298283
-0.305717
-0.316083
-0.328769
-0.344207
-0.362466
-0.383486
-0.406886
-0.431995
-0.457703
-0.482683
-0.505434
-0.524378
-0.538138
-0.54532
-0.54497
-0.535445
-0.516089
-0.484048
-0.440129
-0.380466
-0.312078
-0.226926
-0.143611
-0.0686378
-0.0017759
0.0236483
0.0442746
0.0339497
0.0186986
-0.297696
-0.304842
-0.315129
-0.327738
-0.343133
-0.361404
-0.382502
-0.406053
-0.431393
-0.457389
-0.482698
-0.505805
-0.5251
-0.539223
-0.546755
-0.546813
-0.537705
-0.518866
-0.487303
-0.443901
-0.384621
-0.316647
-0.231703
-0.147883
-0.0729237
-0.00536462
0.0208128
0.0418071
0.0323694
0.0178912
-0.296691
-0.303672
-0.313806
-0.326314
-0.341632
-0.359864
-0.380998
-0.404664
-0.430212
-0.456496
-0.482157
-0.505664
-0.525372
-0.539925
-0.547878
-0.54841
-0.539776
-0.521509
-0.490482
-0.447656
-0.388797
-0.321175
-0.236698
-0.152344
-0.0774483
-0.00932349
0.0177049
0.0390701
0.0306321
0.0170192
-0.295292
-0.302269
-0.31213
-0.324509
-0.339666
-0.357812
-0.378929
-0.40265
-0.428433
-0.454979
-0.481001
-0.504941
-0.525117
-0.540171
-0.548617
-0.549687
-0.54159
-0.523947
-0.493505
-0.451334
-0.392845
-0.325661
-0.241779
-0.156938
-0.0821507
-0.0136081
0.0143534
0.0360927
0.0287559
0.0160918
-0.293708
-0.300575
-0.310144
-0.322354
-0.337309
-0.355302
-0.376339
-0.400102
-0.425932
-0.452768
-0.479171
-0.503591
-0.52429
-0.539913
-0.548918
-0.550601
-0.543089
-0.526114
-0.496272
-0.454722
-0.396871
-0.330015
-0.246855
-0.161611
-0.0869739
-0.0181698
0.0107891
0.0329071
0.0267602
0.0151183
-0.292015
-0.298681
-0.307907
-0.319899
-0.334588
-0.352355
-0.373236
-0.396947
-0.422855
-0.449912
-0.476673
-0.50158
-0.522844
-0.539093
-0.548734
-0.551069
-0.544219
-0.527926
-0.498801
-0.457896
-0.400695
-0.334176
-0.251851
-0.166313
-0.0918668
-0.0229586
0.0070434
0.0295477
0.0246656
0.0141083
-0.290323
-0.296682
-0.305494
-0.317216
-0.331571
-0.34904
-0.369691
-0.393273
-0.419191
-0.446417
-0.473512
-0.49891
-0.520773
-0.537704
-0.548039
-0.551097
-0.544949
-0.529375
-0.500985
-0.460759
-0.404278
-0.338094
-0.2567
-0.171002
-0.0967848
-0.0279233
0.00314968
0.0260499
0.0224929
0.013071
-0.288733
-0.294666
-0.302987
-0.314383
-0.328342
-0.34544
-0.365787
-0.38916
-0.415006
-0.44234
-0.469727
-0.495605
-0.518082
-0.535733
-0.546814
-0.550648
-0.545238
-0.530416
-0.502793
-0.463267
-0.407572
-0.341729
-0.261343
-0.175634
-0.101678
-0.033006
-0.000853751
0.0224509
0.0202637
0.0120155
-0.287318
-0.292708
-0.300468
-0.311481
-0.324981
-0.341644
-0.361614
-0.384699
-0.410389
-0.437756
-0.465379
-0.491703
-0.514792
-0.533184
-0.545047
-0.549695
-0.545064
-0.531019
-0.504188
-0.465378
-0.410522
-0.345031
-0.2657
-0.180141
-0.106485
-0.0381417
-0.0049271
0.0187877
0.0179988
0.0109507
-0.286153
-0.290847
-0.298004
-0.308575
-0.321561
-0.337729
-0.357258
-0.379981
-0.405433
-0.43275
-0.460537
-0.487258
-0.510935
-0.530071
-0.54274
-0.548231
-0.544407
-0.531152
-0.50513
-0.467038
-0.413062
-0.347946
-0.269725
-0.184497
-0.111206
-0.0433047
-0.00905781
0.0150847
0.0157143
0.00988475
-0.285251
-0.289038
-0.295622
-0.305726
-0.318158
-0.333786
-0.352819
-0.375113
-0.400248
-0.427431
-0.455305
-0.48236
-0.506587
-0.526451
-0.539927
-0.546271
-0.543269
-0.530807
-0.505621
-0.468277
-0.415259
-0.350613
-0.273614
-0.18889
-0.116015
-0.0485733
-0.0132819
0.0113441
0.0134187
0.00882335
-0.285214
-0.287329
-0.293362
-0.302959
-0.314805
-0.329862
-0.348352
-0.37016
-0.394907
-0.421871
-0.44974
-0.477038
-0.501739
-0.522278
-0.536547
-0.543698
-0.54159
-0.529998
-0.505757
-0.46927
-0.417337
-0.353268
-0.277542
-0.193429
-0.120908
-0.0539199
-0.0175472
0.00759433
0.0111292
0.00777096
-0.285838
-0.285201
-0.291097
-0.300001
-0.311191
-0.325628
-0.343512
-0.364747
-0.388989
-0.415604
-0.443349
-0.47081
-0.495957
-0.517195
-0.532329
-0.540431
-0.539228
-0.528474
-0.505107
-0.469312
-0.418246
-0.354564
-0.279827
-0.196606
-0.124553
-0.0585537
-0.0213911
0.00400939
0.00890625
0.00673613
-0.275456
-0.280306
-0.289316
-0.298506
-0.309467
-0.32356
-0.341053
-0.361878
-0.385719
-0.411994
-0.439509
-0.466872
-0.492068
-0.513452
-0.528819
-0.537153
-0.536158
-0.525451
-0.502271
-0.46643
-0.415775
-0.352279
-0.278663
-0.197285
-0.126504
-0.062766
-0.0253039
-4.19738e-05
0.00632801
0.00551721
-0.275131
-0.280426
-0.289563
-0.2987
-0.309463
-0.323354
-0.340601
-0.36102
-0.384249
-0.409767
-0.436452
-0.463006
-0.487484
-0.508286
-0.523229
-0.531168
-0.530019
-0.519057
-0.495936
-0.460086
-0.410173
-0.347462
-0.275807
-0.197327
-0.128549
-0.0675844
-0.0299314
-0.00475852
0.00331157
0.00411371
-0.275064
-0.280641
-0.289137
-0.298428
-0.309351
-0.32316
-0.340136
-0.3601
-0.382653
-0.407306
-0.432995
-0.458509
-0.481993
-0.50191
-0.51613
-0.523457
-0.521947
-0.510635
-0.487546
-0.451819
-0.402838
-0.341421
-0.272095
-0.196992
-0.13049
-0.0722767
-0.0345702
-0.00940914
0.000307543
0.00274663
-0.273407
-0.279573
-0.287384
-0.296693
-0.307851
-0.321614
-0.338248
-0.357644
-0.379405
-0.403081
-0.427678
-0.452067
-0.474491
-0.493455
-0.506899
-0.513505
-0.511569
-0.499895
-0.476852
-0.441437
-0.393598
-0.333999
-0.267362
-0.196047
-0.132139
-0.0766762
-0.0391196
-0.0139271
-0.00264811
0.00143084
-0.269474
-0.276847
-0.284402
-0.293549
-0.304783
-0.318443
-0.334644
-0.35333
-0.37415
-0.396693
-0.420052
-0.443178
-0.464431
-0.482341
-0.494946
-0.500802
-0.498422
-0.486461
-0.463592
-0.428831
-0.382506
-0.325321
-0.261796
-0.194568
-0.133523
-0.0807495
-0.0435269
-0.0182665
-0.005525
0.000177406
-0.263785
-0.272573
-0.280302
-0.289258
-0.300357
-0.313774
-0.329432
-0.347255
-0.36695
-0.388154
-0.410063
-0.431707
-0.451597
-0.468283
-0.479952
-0.485121
-0.482364
-0.470309
-0.447883
-0.414239
-0.369883
-0.315651
-0.255602
-0.192604
-0.134614
-0.0844423
-0.0477264
-0.0223849
-0.00829484
-0.00100514
-0.257123
-0.267016
-0.275177
-0.284033
-0.294861
-0.307886
-0.322902
-0.339756
-0.358186
-0.377875
-0.398136
-0.418079
-0.436393
-0.451676
-0.462321
-0.466876
-0.463854
-0.45195
-0.430288
-0.398206
-0.356233
-0.305336
-0.249004
-0.190234
-0.135404
-0.0877335
-0.0516707
-0.0262529
-0.0109348
-0.00211158
-0.249798
-0.260475
-0.269152
-0.278018
-0.288535
-0.301064
-0.315372
-0.331218
-0.34834
-0.366449
-0.384973
-0.40311
-0.419724
-0.433519
-0.443067
-0.446996
-0.443797
-0.432256
-0.411625
-0.381418
-0.3421
-0.294717
-0.242193
-0.187533
-0.135879
-0.0906081
-0.0553186
-0.0298476
-0.0134256
-0.00313883
-0.242066
-0.253259
-0.262386
-0.271325
-0.28155
-0.29354
-0.307108
-0.321958
-0.337807
-0.35438
-0.371195
-0.387551
-0.402465
-0.414767
-0.423196
-0.426467
-0.423141
-0.412101
-0.392663
-0.364482
-0.327924
-0.284056
-0.235298
-0.184558
-0.13603
-0.0930617
-0.0586405
-0.0331539
-0.0157519
-0.0040856
-0.234156
-0.245586
-0.255036
-0.26406
-0.274028
-0.285481
-0.298308
-0.3122
-0.326853
-0.341992
-0.357204
-0.371885
-0.385183
-0.396064
-0.403401
-0.406022
-0.402597
-0.392125
-0.373947
-0.347811
-0.313989
-0.273517
-0.228392
-0.181347
-0.13585
-0.0950945
-0.0616147
-0.036161
-0.0179015
-0.00495157
-0.226141
-0.237606
-0.24725
-0.256329
-0.266063
-0.277006
-0.289112
-0.302096
-0.315642
-0.329473
-0.343219
-0.356368
-0.368175
-0.377749
-0.384061
-0.386068
-0.382578
-0.3727
-0.355783
-0.331633
-0.300443
-0.263184
-0.22151
-0.177928
-0.135339
-0.096711
-0.0642271
-0.0388621
-0.0198651
-0.00573715
-0.218087
-0.229454
-0.239165
-0.248242
-0.257746
-0.268207
-0.279626
-0.291756
-0.304282
-0.31693
-0.329357
-0.341127
-0.35159
-0.359982
-0.365368
-0.366815
-0.363298
-0.354012
-0.338317
-0.316053
-0.287349
-0.253095
-0.214667
-0.174321
-0.134501
-0.0979188
-0.0664699
-0.0412541
-0.0216363
-0.00644315
-0.210094
-0.221237
-0.230897
-0.239904
-0.249166
-0.259169
-0.26994
-0.28127
-0.292858
-0.304439
-0.315688
-0.326229
-0.335496
-0.34283
-0.347396
-0.348367
-0.34485
-0.336132
-0.321598
-0.301104
-0.274727
-0.24327
-0.207875
-0.170545
-0.133348
-0.098729
-0.068341
-0.0433368
-0.0232117
-0.0070708
-0.202223
-0.213039
-0.222548
-0.231418
-0.240416
-0.249977
-0.260136
-0.270719
-0.281445
-0.292061
-0.302262
-0.311715
-0.319923
-0.32632
-0.330168
-0.330742
-0.327254
-0.319077
-0.305637
-0.286795
-0.262587
-0.233721
-0.201146
-0.166622
-0.131896
-0.0991566
-0.0698439
-0.0451134
-0.0245905
-0.00762172
-0.194518
-0.204932
-0.214209
-0.22288
-0.231588
-0.240715
-0.250295
-0.260181
-0.270116
-0.279859
-0.289125
-0.297615
-0.304893
-0.31047
-0.313697
-0.313945
-0.310513
-0.302854
-0.290437
-0.273132
-0.250934
-0.224461
-0.194495
-0.162572
-0.130167
-0.0992207
-0.0709872
-0.0465902
-0.0257746
-0.00809801
-0.187026
-0.196985
-0.205962
-0.21438
-0.222773
-0.23147
-0.2405
-0.249736
-0.258942
-0.267895
-0.276326
-0.283968
-0.290431
-0.295296
-0.297993
-0.297978
-0.294626
-0.287462
-0.276
-0.260116
-0.239772
-0.2155
-0.187939
-0.158423
-0.128186
-0.0989452
-0.0717848
-0.0477769
-0.026769
-0.00850236
-0.17979
-0.189252
-0.197877
-0.205998
-0.214056
-0.222326
-0.230832
-0.23946
-0.247995
-0.256233
-0.263919
-0.270813
-0.276568
-0.280819
-0.283068
-0.282845
-0.279594
-0.272902
-0.262326
-0.24775
-0.229109
-0.206854
-0.181502
-0.154202
-0.125985
-0.0983578
-0.0722556
-0.0486864
-0.0275807
-0.00883811
-0.17284
-0.181781
-0.190017
-0.19781
-0.205515
-0.213363
-0.221368
-0.229429
-0.237347
-0.244935
-0.251956
-0.258193
-0.263333
-0.267059
-0.268933
-0.26855
-0.265417
-0.259173
-0.249418
-0.236041
-0.218955
-0.198541
-0.175208
-0.149942
-0.123597
-0.0974906
-0.0724236
-0.0493351
-0.0282194
-0.00910925
-0.166206
-0.174616
-0.182441
-0.189883
-0.197226
-0.204658
-0.212185
-0.219715
-0.227066
-0.234065
-0.240494
-0.246153
-0.250761
-0.25404
-0.255604
-0.255103
-0.2521
-0.24628
-0.23728
-0.224996
-0.209325
-0.190582
-0.169087
-0.145679
-0.12106
-0.0963798
-0.0723172
-0.0497426
-0.0286967
-0.00932046
-0.159916
-0.167796
-0.175199
-0.182278
-0.189257
-0.196284
-0.203358
-0.210392
-0.217221
-0.223688
-0.229587
-0.23474
-0.238888
-0.241789
-0.243099
-0.242515
-0.239649
-0.234228
-0.22592
-0.214628
-0.200236
-0.183003
-0.163171
-0.141452
-0.118417
-0.0950653
-0.0719692
-0.0499321
-0.0290263
-0.00947702
-0.153996
-0.161357
-0.168339
-0.175054
-0.181672
-0.18831
-0.194955
-0.201529
-0.20788
-0.213865
-0.219293
-0.224001
-0.227753
-0.230336
-0.231439
-0.230802
-0.228078
-0.223028
-0.21535
-0.204952
-0.19171
-0.175833
-0.157497
-0.137305
-0.115714
-0.0935908
-0.0714166
-0.0499299
-0.0292236
-0.00958474
-0.148473
-0.155335
-0.161907
-0.168264
-0.174533
-0.1808
-0.187044
-0.193194
-0.199109
-0.20466
-0.20967
-0.213989
-0.217401
-0.219715
-0.220653
-0.219987
-0.217404
-0.212696
-0.205588
-0.195991
-0.183774
-0.169106
-0.152106
-0.133283
-0.112997
-0.0920034
-0.0706995
-0.0497653
-0.0293058
-0.00964988
-0.143373
-0.149766
-0.155945
-0.161961
-0.167898
-0.173818
-0.179691
-0.185452
-0.190973
-0.196136
-0.200777
-0.204757
-0.207878
-0.209968
-0.210774
-0.210096
-0.207651
-0.203256
-0.196657
-0.18777
-0.17646
-0.16286
-0.147043
-0.129436
-0.110322
-0.0903536
-0.0698617
-0.0494708
-0.0292913
-0.00967907
-0.138729
-0.144687
-0.1505
-0.156196
-0.161826
-0.167426
-0.172962
-0.178372
-0.18354
-0.188359
-0.192676
-0.196364
-0.199237
-0.20114
-0.201843
-0.201165
-0.198851
-0.194737
-0.188588
-0.180325
-0.169806
-0.157139
-0.142357
-0.125819
-0.107743
-0.0886952
-0.0689497
-0.0490808
-0.0292003
-0.00967918
-0.134576
-0.14014
-0.14562
-0.151024
-0.156375
-0.161688
-0.166922
-0.172022
-0.176879
-0.181397
-0.185433
-0.188871
-0.191536
-0.193285
-0.193907
-0.193238
-0.191045
-0.187179
-0.181422
-0.173696
-0.16386
-0.151994
-0.138104
-0.122492
-0.10532
-0.0870848
-0.0680122
-0.0486321
-0.0290542
-0.00965732
-0.130953
-0.136171
-0.141358
-0.146504
-0.151609
-0.156671
-0.161644
-0.166475
-0.171064
-0.175325
-0.179124
-0.182352
-0.184844
-0.186469
-0.187028
-0.186373
-0.184286
-0.180634
-0.17521
-0.167938
-0.158675
-0.147485