/*--------------------------------*- C++ -*----------------------------------*\
  =========                 |
  \\      /  F ield         | OpenFOAM: The Open Source CFD Toolbox
   \\    /   O peration     | Website:  https://openfoam.org
    \\  /    A nd           | Version:  7
     \\/     M anipulation  |
\*---------------------------------------------------------------------------*/
FoamFile
{
    version     2.0;
    format      ascii;
    class       volVectorField;
    location    "7.9992";
    object      U;
}
// * * * * * * * * * * * * * * * * * * * * * * * * * * * * * * * * * * * * * //

dimensions      [0 1 -1 0 0 0 0];

internalField   nonuniform List<vector> 
18750
(
(-0.0514376 0.0314305 -3.26093e-20)
(-0.175465 0.0365056 9.83965e-21)
(-0.302418 0.0336178 8.49473e-20)
(-0.413128 0.0315268 1.73992e-20)
(-0.521365 0.0295767 -3.60552e-20)
(-0.620782 0.0279579 -8.36643e-20)
(-0.717153 0.0265627 8.04888e-20)
(-0.807911 0.0254234 5.11593e-20)
(-0.896585 0.0244645 -3.76379e-20)
(-0.981804 0.0236492 -9.90937e-20)
(-1.06575 0.0228732 3.72531e-19)
(-1.14642 0.0220009 -3.03522e-19)
(-1.22414 0.0208295 1.79458e-19)
(-1.29626 0.0192555 -3.47674e-19)
(-1.36199 0.0173189 8.13226e-20)
(-0.0533898 0.0937474 2.09402e-20)
(-0.176703 0.109057 2.29405e-20)
(-0.301987 0.10047 5.74803e-21)
(-0.411088 0.0942221 1.06942e-19)
(-0.517632 0.0883869 2.08462e-19)
(-0.615249 0.0835277 2.633e-19)
(-0.709607 0.0793268 -2.13223e-19)
(-0.798096 0.0758811 3.34337e-19)
(-0.884167 0.0729679 3.05064e-19)
(-0.966406 0.0704787 -9.28862e-20)
(-1.04697 0.0681066 -3.94083e-19)
(-1.12384 0.065462 2.06463e-20)
(-1.19726 0.0619535 8.84823e-20)
(-1.2644 0.0572625 2.27653e-19)
(-1.32434 0.0514675 -3.44056e-19)
(-0.0572136 0.154461 5.24721e-20)
(-0.17914 0.18026 6.20663e-20)
(-0.301153 0.166201 -1.96639e-19)
(-0.407104 0.155875 5.69309e-21)
(-0.510355 0.146204 -3.92614e-19)
(-0.604502 0.138099 1.19614e-19)
(-0.695018 0.131054 -3.20986e-19)
(-0.779226 0.12523 -4.09392e-20)
(-0.860453 0.120271 -2.35687e-19)
(-0.937231 0.115999 6.84391e-19)
(-1.01171 0.111926 8.93891e-19)
(-1.08191 0.107452 7.79748e-19)
(-1.14796 0.101648 4.562e-19)
(-1.20681 0.0939606 3.07137e-19)
(-1.25738 0.0844069 -5.62027e-19)
(-0.0627544 0.212554 -2.24783e-19)
(-0.182703 0.249249 2.49982e-19)
(-0.299956 0.230099 -1.75816e-19)
(-0.401329 0.215839 -3.45566e-19)
(-0.499849 0.202424 5.62661e-19)
(-0.589072 0.191083 -5.0594e-19)
(-0.674213 0.181152 7.10331e-19)
(-0.752531 0.172868 -5.82463e-19)
(-0.827224 0.165757 3.9692e-19)
(-0.896797 0.159589 -9.60613e-19)
(-0.96344 0.153716 -1.35843e-18)
(-1.02532 0.147395 7.49013e-20)
(-1.08256 0.139431 -2.54639e-19)
(-1.13185 0.129008 -5.52086e-19)
(-1.17194 0.115955 2.07206e-18)
(-0.0697776 0.26707 -1.47597e-19)
(-0.187255 0.315189 3.27592e-19)
(-0.298425 0.291504 8.45717e-20)
(-0.393938 0.273539 2.83e-19)
(-0.486484 0.256532 -3.40804e-19)
(-0.569563 0.241997 1.43486e-19)
(-0.648103 0.229169 1.66463e-18)
(-0.719336 0.218369 2.46352e-19)
(-0.786353 0.20904 4.3024e-19)
(-0.847694 0.200908 -1.4716e-19)
(-0.905652 0.193198 1.30985e-19)
(-0.95866 0.185086 -4.97542e-20)
(-1.00695 0.175183 -1.44789e-18)
(-1.04694 0.162393 -8.10925e-19)
(-1.07707 0.146205 -2.3627e-18)
(-0.0780598 0.317211 3.39842e-19)
(-0.192673 0.377285 7.64795e-20)
(-0.296567 0.349818 -1.53472e-19)
(-0.385103 0.32848 -1.08423e-19)
(-0.470643 0.308091 1.01029e-19)
(-0.546596 0.290451 -1.46348e-18)
(-0.6176 0.274763 -1.87323e-19)
(-0.68092 0.261455 9.14877e-20)
(-0.739593 0.249921 -6.40794e-19)
(-0.792268 0.239864 -8.66338e-19)
(-0.841385 0.230397 6.25373e-19)
(-0.885737 0.220645 -6.16283e-19)
(-0.92576 0.209089 1.90168e-18)
(-0.957639 0.194339 -1.48569e-18)
(-0.979202 0.175406 3.2408e-18)
(-0.0873193 0.362189 -2.78907e-19)
(-0.198725 0.434772 -4.91557e-19)
(-0.294312 0.404562 1.8623e-19)
(-0.374987 0.380259 1.36797e-18)
(-0.45273 0.356752 1.33857e-18)
(-0.520826 0.336146 -4.43378e-19)
(-0.583675 0.317691 2.20879e-19)
(-0.638646 0.301953 1.36967e-19)
(-0.688792 0.288313 1.36477e-18)
(-0.732936 0.276462 1.8695e-18)
(-0.773682 0.265403 -9.05661e-19)
(-0.810204 0.254215 -1.7272e-18)
(-0.843219 0.241297 -3.20928e-18)
(-0.868705 0.225001 5.47705e-19)
(-0.883619 0.203749 -3.97696e-18)
(-0.097221 0.401173 -2.23551e-19)
(-0.205153 0.487054 -2.69395e-19)
(-0.291562 0.455376 -1.97084e-18)
(-0.363764 0.428565 6.70132e-19)
(-0.433166 0.402252 -8.1843e-19)
(-0.492965 0.37887 5.29677e-19)
(-0.547389 0.357796 5.35124e-19)
(-0.594001 0.339762 -2.35248e-18)
(-0.635931 0.324181 -1.54003e-18)
(-0.672219 0.310737 -2.56693e-18)
(-0.705587 0.298321 -4.29152e-19)
(-0.735519 0.285947 1.83428e-18)
(-0.762985 0.271945 7.18832e-18)
(-0.783859 0.254476 -1.10519e-18)
(-0.794051 0.23141 1.96838e-18)
(-0.107326 0.433387 1.21797e-18)
(-0.211616 0.533649 4.92973e-19)
(-0.28821 0.502028 2.14158e-18)
(-0.351596 0.473191 -1.55553e-18)
(-0.412379 0.444432 7.08113e-19)
(-0.463731 0.418521 -1.15938e-18)
(-0.509805 0.395029 -2.61092e-18)
(-0.548433 0.374901 2.30067e-18)
(-0.582849 0.357617 2.67738e-19)
(-0.612297 0.342854 3.82379e-18)
(-0.639478 0.329378 -1.23853e-18)
(-0.663994 0.3161 -5.58255e-18)
(-0.686963 0.301277 -3.41477e-18)
(-0.704336 0.283018 3.56115e-19)
(-0.710926 0.258809 -1.66208e-18)
(-0.117106 0.45814 -9.85441e-19)
(-0.217723 0.574201 -5.68849e-19)
(-0.284145 0.544385 6.93314e-19)
(-0.338647 0.514021 1.05921e-19)
(-0.390753 0.483231 -2.76499e-19)
(-0.433781 0.455103 -3.10187e-19)
(-0.471864 0.429465 1.19667e-18)
(-0.503138 0.407509 -1.37865e-18)
(-0.530923 0.388818 1.34613e-18)
(-0.554575 0.373069 1.65729e-18)
(-0.576571 0.358891 -2.94117e-18)
(-0.596384 0.345049 5.58023e-18)
(-0.615134 0.329699 6.55303e-19)
(-0.628977 0.310963 8.96417e-19)
(-0.631581 0.286097 2.07281e-18)
(-0.125931 0.474895 1.78828e-18)
(-0.222995 0.608487 -5.85938e-19)
(-0.279229 0.582379 -2.6354e-18)
(-0.325019 0.55103 1.02252e-18)
(-0.368597 0.518709 -5.91878e-19)
(-0.403627 0.488752 6.91645e-19)
(-0.434242 0.461293 4.9946e-18)
(-0.458873 0.43783 2.36566e-18)
(-0.480832 0.418078 1.55237e-18)
(-0.499454 0.401687 -5.18131e-18)
(-0.516795 0.387121 5.63785e-18)
(-0.531989 0.372932 2.06449e-18)
(-0.545942 0.357153 -3.34454e-18)
(-0.555038 0.338028 4.06836e-18)
(-0.552161 0.312875 -1.28481e-19)
(-0.133012 0.483046 3.22487e-19)
(-0.226943 0.636443 9.97479e-20)
(-0.273324 0.615979 -1.53366e-19)
(-0.310777 0.58427 -1.82139e-18)
(-0.346108 0.551006 3.58968e-18)
(-0.373598 0.519659 -1.81983e-18)
(-0.397335 0.490753 -5.27037e-18)
(-0.415975 0.466126 1.56697e-18)
(-0.432705 0.44562 -2.51822e-18)
(-0.446717 0.428851 3.87901e-18)
(-0.459503 0.414128 -6.9629e-18)
(-0.469676 0.39981 5.44104e-19)
(-0.477736 0.383813 2.98403e-18)
(-0.480281 0.364372 -6.30527e-18)
(-0.470016 0.338641 -1.48605e-18)
(-0.137416 0.482379 -1.15054e-18)
(-0.229024 0.658088 3.37797e-19)
(-0.266318 0.645093 1.0187e-18)
(-0.295878 0.613888 -4.49263e-20)
(-0.323363 0.580344 -4.83065e-18)
(-0.343858 0.548078 4.69539e-19)
(-0.361283 0.518114 1.71544e-18)
(-0.374436 0.492632 -4.57619e-18)
(-0.386274 0.471632 3.37512e-18)
(-0.395728 0.454675 -3.09643e-18)
(-0.403656 0.439899 8.47991e-18)
(-0.408111 0.425446 -3.53734e-18)
(-0.409035 0.408978 4.3336e-18)
(-0.403015 0.388597 8.86777e-18)
(-0.383672 0.361865 3.8654e-18)
(-0.138449 0.473301 -4.38775e-19)
(-0.228779 0.673366 2.38067e-21)
(-0.258074 0.669665 -4.85276e-20)
(-0.280224 0.640118 -1.0993e-19)
(-0.300375 0.606973 -2.28574e-18)
(-0.314419 0.574248 -1.00767e-18)
(-0.326025 0.5436 1.65369e-18)
(-0.33405 0.517544 9.9029e-19)
(-0.341088 0.49622 -5.72172e-18)
(-0.345781 0.479141 -3.15571e-19)
(-0.348336 0.464323 -1.6641e-18)
(-0.346252 0.44976 3.39231e-18)
(-0.33893 0.433046 -4.79071e-18)
(-0.322854 0.412007 -6.87816e-19)
(-0.293413 0.383498 -4.37527e-18)
(-0.13549 0.455895 1.92384e-18)
(-0.225629 0.681817 -1.68827e-18)
(-0.248377 0.68982 -2.36373e-18)
(-0.263653 0.663282 4.22683e-18)
(-0.277055 0.631138 3.75171e-18)
(-0.285202 0.598404 4.78677e-18)
(-0.291421 0.567457 2.03319e-19)
(-0.294513 0.540997 3.20937e-18)
(-0.296697 0.519424 4.29422e-18)
(-0.2963 0.502202 6.40071e-18)
(-0.292952 0.487204 -2.97101e-18)
(-0.283648 0.472229 6.27138e-18)
(-0.267648 0.454863 -3.02125e-20)
(-0.241136 0.432043 -3.23511e-18)
(-0.199464 0.401554 -8.13161e-18)
(-0.128075 0.429991 -1.18405e-18)
(-0.21906 0.683053 1.89927e-18)
(-0.236996 0.705822 1.25913e-18)
(-0.246128 0.683712 -3.94439e-18)
(-0.253393 0.653077 -1.86194e-18)
(-0.256076 0.620791 -3.41391e-19)
(-0.257212 0.589807 -2.46984e-18)
(-0.255547 0.563104 -4.23153e-18)
(-0.252726 0.54129 -7.19002e-18)
(-0.246884 0.523809 -3.12106e-18)
(-0.23721 0.508525 4.38885e-18)
(-0.220036 0.493111 -9.23393e-18)
(-0.194804 0.475409 3.17383e-19)
(-0.158074 0.452401 5.99388e-18)
(-0.102526 0.418311 8.72236e-18)
(-0.115827 0.395425 -2.79112e-18)
(-0.208732 0.676916 2.20497e-18)
(-0.223686 0.717688 -3.85067e-18)
(-0.227558 0.701552 -1.84914e-18)
(-0.229322 0.673114 -1.14693e-19)
(-0.226994 0.641725 2.59534e-18)
(-0.223255 0.610822 4.20613e-18)
(-0.216885 0.583966 1.38354e-18)
(-0.208945 0.561831 2.01322e-18)
(-0.197333 0.5439 -5.66441e-18)
(-0.18111 0.528056 1.44075e-19)
(-0.155863 0.511733 -4.41704e-18)
(-0.120992 0.492546 -3.30217e-18)
(-0.076522 0.469312 -9.57122e-18)
(-0.00474644 0.435133 -1.30709e-19)
(-0.0985549 0.352249 2.45682e-18)
(-0.194505 0.66326 3.85905e-19)
(-0.208363 0.725267 6.21353e-19)
(-0.207932 0.716866 4.60848e-18)
(-0.204786 0.691359 1.94092e-18)
(-0.197824 0.661231 -2.41161e-18)
(-0.189448 0.630712 1.89055e-18)
(-0.178404 0.603746 -1.09534e-18)
(-0.16527 0.581133 -2.18422e-18)
(-0.147613 0.562428 2.50628e-18)
(-0.12477 0.545847 -8.44982e-18)
(-0.0918755 0.528673 -3.39464e-19)
(-0.0460056 0.50803 -4.87183e-18)
(0.00371266 0.484378 7.61884e-18)
(0.0923861 0.448615 6.83884e-19)
(-0.076548 0.300761 -9.16202e-19)
(-0.176528 0.64172 -2.59725e-18)
(-0.191114 0.728085 7.12826e-19)
(-0.187283 0.729533 -5.24676e-18)
(-0.179767 0.707893 -3.61982e-18)
(-0.168502 0.6795 -2.03472e-18)
(-0.155681 0.649605 -3.57479e-18)
(-0.140027 0.622468 3.45146e-18)
(-0.121785 0.59926 4.8666e-18)
(-0.0978734 0.579497 9.49683e-18)
(-0.0682454 0.561627 -4.1785e-19)
(-0.0292323 0.543653 1.08545e-17)
(0.0292086 0.519604 4.32612e-18)
(0.0805121 0.4986 3.40446e-18)
(0.197256 0.47529 -7.62336e-18)
(-0.0509917 0.241474 1.55954e-18)
(-0.155275 0.611509 3.93722e-18)
(-0.172221 0.725234 2.72674e-18)
(-0.165776 0.739183 3.6422e-18)
(-0.154301 0.722657 2.47087e-20)
(-0.139032 0.696565 1.45427e-18)
(-0.121943 0.667564 4.15978e-20)
(-0.101684 0.64028 -2.65374e-18)
(-0.0785556 0.616354 4.14042e-18)
(-0.0485333 0.595304 -1.44741e-17)
(-0.0109809 0.575561 4.2722e-18)
(0.0308699 0.557857 -2.84602e-18)
(0.106322 0.527463 5.67436e-19)
(0.145009 0.494974 -4.32402e-18)
(0.304087 0.497674 -4.87812e-18)
(-0.0255424 0.174454 -2.54543e-18)
(-0.13166 0.571125 3.40184e-18)
(-0.151994 0.715164 -8.94589e-19)
(-0.143576 0.745122 -1.51135e-18)
(-0.128496 0.735515 3.21026e-18)
(-0.109471 0.712466 3.44426e-19)
(-0.0883196 0.684629 -9.69188e-19)
(-0.0634128 0.657144 -1.14419e-19)
(-0.0355077 0.632416 -2.67159e-18)
(-0.000609031 0.610391 6.93684e-18)
(0.0478402 0.587205 4.24262e-18)
(0.0870993 0.571812 2.25968e-18)
(0.190016 0.545047 -2.06695e-19)
(0.201087 0.485078 5.48798e-18)
(0.400742 0.499035 -4.8159e-19)
(-0.00839972 0.102387 7.43422e-19)
(-0.107113 0.518254 -8.3085e-19)
(-0.13077 0.695784 6.22391e-19)
(-0.120956 0.746199 2.79545e-18)
(-0.102543 0.745908 -1.79922e-18)
(-0.0799181 0.726921 -1.16888e-18)
(-0.0549999 0.700813 -2.22967e-18)
(-0.0254688 0.673324 1.75809e-18)
(0.00795464 0.647235 -1.83684e-18)
(0.0446408 0.624974 -2.10797e-18)
(0.109122 0.59659 -3.68026e-18)
(0.136177 0.577199 -2.16073e-18)
(0.278626 0.569796 7.8454e-18)
(0.262203 0.491008 -1.0886e-17)
(0.488337 0.495727 -2.82086e-19)
(-0.00332878 0.0345014 3.17475e-18)
(-0.0835054 0.450442 -1.24675e-18)
(-0.108554 0.664608 -3.24055e-18)
(-0.0980549 0.740765 -8.84524e-19)
(-0.076739 0.753053 4.66958e-18)
(-0.0505602 0.739617 -8.08604e-20)
(-0.0220821 0.715845 2.28972e-18)
(0.0112533 0.688822 -1.26271e-18)
(0.0526019 0.660843 -4.9231e-18)
(0.0860639 0.639337 1.14873e-17)
(0.174328 0.609448 -8.44296e-18)
(0.177707 0.571583 2.5202e-18)
(0.36269 0.582129 -1.11485e-17)
(0.329129 0.504065 3.95987e-18)
(0.569085 0.496487 3.24536e-18)
(-0.00120027 -0.0186994 -1.13266e-18)
(-0.060425 0.364401 -3.62727e-18)
(-0.0854632 0.61941 1.63762e-18)
(-0.0750718 0.726339 2.89226e-19)
(-0.0513773 0.75525 -4.17469e-18)
(-0.0217586 0.749778 2.60191e-18)
(0.0105579 0.729443 1.24929e-19)
(0.0456457 0.703824 -6.39296e-19)
(0.0989319 0.672827 -4.97871e-18)
(0.122521 0.649625 -5.94871e-19)
(0.242888 0.63084 6.69219e-18)
(0.218349 0.568618 5.50244e-19)
(0.436032 0.580307 1.6015e-18)
(0.395468 0.509787 4.58002e-18)
(0.642389 0.497843 -1.17149e-17)
(0.0068926 -0.0512742 -1.71523e-18)
(-0.0382975 0.258178 5.88287e-20)
(-0.061011 0.55752 -2.08495e-18)
(-0.0521767 0.699951 1.69486e-18)
(-0.0268284 0.750491 2.34321e-18)
(0.00576046 0.756287 -1.76761e-18)
(0.043219 0.740618 -3.13622e-19)
(0.0764592 0.71793 -1.47834e-18)
(0.146995 0.6864 3.75922e-18)
(0.153509 0.650965 7.10713e-19)
(0.309462 0.651556 -9.64743e-18)
(0.266693 0.578427 2.59118e-18)
(0.497977 0.57882 1.63916e-18)
(0.458924 0.510163 -7.40097e-18)
(0.709487 0.498742 1.7415e-18)
(0.0187142 -0.0636527 3.85558e-19)
(-0.0231096 0.142775 1.03068e-18)
(-0.0371298 0.475794 1.93257e-18)
(-0.0296462 0.657141 -1.6496e-18)
(-0.00325985 0.735388 -7.91026e-20)
(0.0308009 0.757494 4.21428e-18)
(0.075943 0.74849 -2.05871e-19)
(0.103141 0.728307 8.71476e-21)
(0.195437 0.704517 5.99163e-18)
(0.182746 0.648447 -3.42247e-18)
(0.362273 0.657774 2.48785e-18)
(0.324755 0.591443 -6.95664e-18)
(0.547158 0.582551 6.05248e-19)
(0.522614 0.51089 -1.8234e-18)
(0.772908 0.500562 3.22247e-18)
(0.0275215 -0.0625881 -2.85962e-19)
(-0.0119635 0.0453457 1.30048e-18)
(-0.0158348 0.372908 -1.72397e-18)
(-0.00871758 0.594233 3.61742e-18)
(0.0189691 0.705974 -3.06522e-18)
(0.0520015 0.750088 -2.77305e-18)
(0.107851 0.752391 -1.71377e-18)
(0.125441 0.731498 -3.69094e-18)
(0.239381 0.723822 -7.21743e-18)
(0.221112 0.654423 1.13881e-18)
(0.392128 0.64978 5.7243e-18)
(0.390957 0.597711 4.52814e-18)
(0.579493 0.581034 7.72928e-19)
(0.591729 0.511923 -3.80534e-18)
(0.830531 0.501019 -1.8738e-18)
(0.0313891 -0.0551679 6.96602e-19)
(0.00712007 -0.014581 1.22605e-18)
(0.00223759 0.247161 -5.17144e-18)
(0.00933488 0.506519 -3.57488e-18)
(0.0392744 0.657185 -1.03728e-19)
(0.0679891 0.729183 2.87132e-18)
(0.136656 0.750643 -1.03722e-18)
(0.14588 0.726075 8.18215e-18)
(0.267663 0.731532 7.43572e-19)
(0.273796 0.673881 -4.50288e-18)
(0.405267 0.641514 -4.38937e-18)
(0.466348 0.60507 -6.92353e-18)
(0.594754 0.570037 7.70152e-18)
(0.6767 0.517897 5.07204e-18)
(0.873846 0.497805 8.41254e-21)
(0.0322363 -0.047489 -1.93898e-18)
(0.0307044 -0.0423724 -3.60712e-18)
(0.0167995 0.121033 2.57713e-18)
(0.0220217 0.392893 3.15652e-18)
(0.0558603 0.582689 1.95157e-18)
(0.0783105 0.687237 -1.98895e-18)
(0.157047 0.739101 5.03481e-18)
(0.169363 0.716697 -7.13567e-18)
(0.275879 0.716919 8.05176e-18)
(0.329079 0.690593 5.10789e-18)
(0.411018 0.63499 -1.57697e-18)
(0.544375 0.620045 -2.21956e-18)
(0.597584 0.552294 -3.07036e-18)
(0.779715 0.534915 -6.04876e-18)
(0.884233 0.479946 7.21519e-18)
(0.033434 -0.0416605 5.50104e-18)
(0.0500643 -0.0509089 4.22198e-18)
(0.0343831 0.0362179 9.58827e-19)
(0.0287864 0.262086 -5.24954e-20)
(0.0663897 0.48017 -6.74169e-19)
(0.0821875 0.614528 -7.97536e-19)
(0.162386 0.70396 -3.91155e-18)
(0.195014 0.707329 6.69241e-18)
(0.269177 0.685416 -5.26038e-18)
(0.375313 0.690748 -6.01143e-20)
(0.410562 0.615032 5.12319e-18)
(0.609444 0.629273 3.59149e-18)
(0.592866 0.521672 3.59721e-18)
(0.873229 0.549342 -3.77277e-20)
(0.851019 0.426373 -4.31627e-18)
(0.0369055 -0.0381038 -3.3097e-18)
(0.065845 -0.052026 -3.43261e-18)
(0.056921 -0.00237285 1.0801e-18)
(0.0381211 0.143474 -1.72794e-18)
(0.0666355 0.35571 -7.93938e-19)
(0.084327 0.513589 2.83721e-18)
(0.145582 0.625312 -7.6233e-19)
(0.215238 0.682958 -7.04741e-19)
(0.25164 0.645024 -1.99463e-18)
(0.403493 0.670727 -4.68005e-18)
(0.403481 0.583184 2.15356e-18)
(0.639843 0.60637 -2.64907e-18)
(0.570651 0.487916 -4.0835e-18)
(0.934262 0.525848 -1.88882e-18)
(0.606537 0.328859 7.6264e-18)
(0.0428018 -0.0367917 3.75194e-18)
(0.0800984 -0.0525339 -2.95426e-18)
(0.0769596 -0.01788 -4.84924e-18)
(0.053763 0.0679788 4.8265e-19)
(0.0599669 0.230612 1.16975e-18)
(0.0811936 0.396842 -7.8069e-19)
(0.117843 0.507822 2.13328e-18)
(0.206805 0.612167 4.25409e-19)
(0.23999 0.591616 -1.93316e-19)
(0.382395 0.617905 2.16413e-19)
(0.41491 0.545074 -2.20068e-18)
(0.592925 0.547728 3.31381e-19)
(0.611874 0.460546 1.32778e-18)
(0.773242 0.441828 -1.03771e-18)
(0.58576 0.284589 7.09063e-18)
(0.0501541 -0.0375312 7.92361e-19)
(0.092168 -0.0553573 -1.70616e-18)
(0.0899413 -0.0283115 4.74003e-18)
(0.0679247 0.0291407 3.66925e-18)
(0.054092 0.13137 -3.64291e-18)
(0.0676574 0.276988 -2.22829e-19)
(0.0898387 0.379508 -1.59189e-18)
(0.166488 0.489798 -5.99631e-19)
(0.221678 0.507914 4.07565e-18)
(0.332361 0.528564 2.11508e-18)
(0.397791 0.477578 2.76264e-18)
(0.556753 0.475493 -2.32504e-18)
(0.528402 0.379631 1.57614e-18)
(0.694064 0.374829 -9.49731e-19)
(0.876259 0.327074 -9.05706e-18)
(0.0572815 -0.0397254 6.33041e-19)
(0.099516 -0.0609157 1.01002e-18)
(0.0939354 -0.0415506 -2.61733e-18)
(0.071432 0.00173601 -2.98547e-18)
(0.047129 0.063146 -2.71158e-18)
(0.0448815 0.168843 2.3314e-19)
(0.0566202 0.257172 1.82485e-18)
(0.116827 0.345336 -3.24465e-18)
(0.177849 0.387256 -1.6015e-18)
(0.264235 0.406597 8.94633e-19)
(0.376389 0.382745 -2.52253e-18)
(0.43755 0.358152 2.65956e-19)
(0.484618 0.302552 1.85043e-18)
(0.82598 0.361211 -2.61434e-18)
(1.06681 0.376996 2.13319e-18)
(0.0620451 -0.0423502 -1.42231e-18)
(0.0995377 -0.0682493 3.23783e-18)
(0.0875527 -0.0586768 2.14881e-18)
(0.0606277 -0.0277008 1.43573e-18)
(0.0309066 0.0101473 2.32114e-18)
(0.0135525 0.0770851 -2.35741e-19)
(0.0181612 0.143851 -1.69764e-18)
(0.0595261 0.203938 3.9815e-19)
(0.114249 0.242268 2.12293e-18)
(0.212401 0.27463 -3.33347e-18)
(0.283905 0.248633 -1.55537e-18)
(0.363262 0.250467 1.60049e-19)
(0.65086 0.29787 -5.33859e-19)
(0.986315 0.38588 3.13921e-18)
(1.2278 0.404291 -2.89205e-18)
(0.0624429 -0.0441412 1.55416e-18)
(0.090869 -0.075749 1.04394e-18)
(0.0703021 -0.0779296 -1.23529e-19)
(0.0363542 -0.0611644 -9.29183e-19)
(0.00114833 -0.0408256 2.01463e-19)
(-0.0260892 -0.00412791 -2.67386e-18)
(-0.0303759 0.0380773 5.47057e-19)
(-0.00370591 0.0694405 -1.04784e-18)
(0.0589177 0.100495 -1.01538e-18)
(0.129227 0.13065 2.26581e-18)
(0.252455 0.14349 3.32263e-18)
(0.523382 0.237979 1.64504e-18)
(0.865421 0.338193 1.79146e-18)
(1.14297 0.407376 -2.35578e-18)
(1.30817 0.415041 -2.43099e-18)
(0.0572001 -0.0439072 1.2931e-18)
(0.0737791 -0.0814415 -2.45064e-18)
(0.0435716 -0.096241 -1.18963e-18)
(0.00150684 -0.0951799 -2.66198e-18)
(-0.0409957 -0.0918552 1.1912e-18)
(-0.0758146 -0.0787631 2.80263e-18)
(-0.0892642 -0.060989 -3.07777e-18)
(-0.0657118 -0.0513325 1.04297e-18)
(0.00642278 -0.0218834 1.83917e-18)
(0.142238 0.0417474 4.94066e-19)
(0.442151 0.149502 -2.18314e-18)
(0.764184 0.286534 -9.56021e-19)
(1.04346 0.369649 -5.93357e-21)
(1.21699 0.410702 1.3518e-18)
(1.31657 0.404603 5.28293e-18)
(0.0461403 -0.0407672 -2.08585e-18)
(0.0498163 -0.0831471 -2.10179e-18)
(0.0103188 -0.109681 1.18304e-18)
(-0.0397129 -0.123667 4.72453e-18)
(-0.0898125 -0.136003 -3.04089e-18)
(-0.130821 -0.140577 8.07232e-19)
(-0.142472 -0.139911 1.1746e-18)
(-0.0858537 -0.130244 -1.14383e-19)
(0.0741065 -0.0658961 2.29762e-19)
(0.359932 0.0671831 1.03754e-18)
(0.691071 0.209099 -9.90873e-19)
(0.950238 0.322457 -2.10427e-18)
(1.1309 0.374813 -1.98466e-18)
(1.2493 0.398649 1.65694e-18)
(1.34611 0.392948 4.91616e-19)
(0.0303062 -0.0343798 -5.21213e-19)
(0.021753 -0.0790218 4.1968e-18)
(-0.0248733 -0.114191 8.95057e-19)
(-0.0802484 -0.139102 1.27033e-18)
(-0.133363 -0.160991 1.14217e-18)
(-0.167292 -0.173857 1.04333e-18)
(-0.146599 -0.174787 -3.41047e-19)
(0.00160683 -0.137873 6.511e-19)
(0.291677 -0.0133179 3.05466e-19)
(0.61475 0.134852 1.35706e-18)
(0.87467 0.250281 4.34557e-20)
(1.05259 0.33082 1.45295e-18)
(1.1864 0.366883 -1.25366e-18)
(1.27827 0.385227 -1.22979e-18)
(1.32715 0.377065 8.18733e-19)
(0.0116808 -0.0251411 1.89636e-18)
(-0.00698516 -0.0684081 -1.71558e-18)
(-0.0567841 -0.107324 2.10061e-19)
(-0.111892 -0.136307 -2.5856e-18)
(-0.158425 -0.160437 -2.16825e-18)
(-0.166455 -0.173321 3.75166e-18)
(-0.0810788 -0.165524 1.03549e-18)
(0.198056 -0.075321 -1.40864e-18)
(0.537304 0.0641495 4.05917e-19)
(0.800609 0.179254 -3.69578e-18)
(0.990192 0.266792 1.31138e-18)
(1.12772 0.329668 -1.63364e-18)
(1.22326 0.356801 1.98503e-18)
(1.27742 0.370059 -2.2388e-19)
(1.3354 0.363012 -1.18828e-18)
(-0.00748393 -0.0141405 -2.98156e-18)
(-0.0334899 -0.0523815 -3.06259e-18)
(-0.0818587 -0.0902045 -3.13683e-18)
(-0.130698 -0.117833 -2.43365e-18)
(-0.161854 -0.139825 1.59345e-18)
(-0.130492 -0.150131 -6.55328e-18)
(0.0509949 -0.122295 5.9707e-19)
(0.43212 0.00757671 5.57222e-19)
(0.723171 0.114857 3.00085e-19)
(0.932483 0.204426 1.73876e-18)
(1.08073 0.277403 -1.50558e-18)
(1.17657 0.326105 3.6054e-18)
(1.2407 0.345975 -7.68146e-19)
(1.29144 0.357314 -1.48602e-18)
(1.32273 0.349196 8.33246e-19)
(-0.0251079 -0.00288707 5.31598e-19)
(-0.0559967 -0.0333503 2.49943e-18)
(-0.0992538 -0.0666429 3.63727e-18)
(-0.137231 -0.0896452 5.49565e-19)
(-0.147653 -0.10809 3.03014e-18)
(-0.0619722 -0.119141 1.64743e-18)
(0.247261 -0.0402966 5.07518e-19)
(0.619543 0.0650719 -2.33833e-18)
(0.86905 0.153444 -1.32238e-19)
(1.03772 0.226795 9.7899e-19)
(1.14203 0.284838 3.72882e-18)
(1.20977 0.321397 -4.76721e-19)
(1.25897 0.33649 1.3103e-18)
(1.28438 0.344501 1.23285e-18)
(1.3169 0.336556 1.94628e-18)
(-0.0397074 0.00730486 1.00271e-18)
(-0.0737148 -0.013765 -3.36869e-18)
(-0.109491 -0.0405006 -6.99121e-19)
(-0.133975 -0.0574475 4.23549e-21)
(-0.12069 -0.0756256 -5.7899e-18)
(0.0464365 -0.0790203 1.53037e-18)
(0.455034 0.0360991 -6.98928e-19)
(0.773649 0.114262 8.0524e-19)
(0.984927 0.187428 2.55391e-18)
(1.11213 0.244134 -8.49653e-19)
(1.1877 0.290103 -2.92304e-18)
(1.23397 0.316673 -3.9663e-19)
(1.26168 0.327651 -4.4531e-19)
(1.28942 0.334713 -9.66742e-19)
(1.31416 0.326799 -2.11083e-18)
(-0.0505153 0.0155695 2.08216e-19)
(-0.0865655 0.00439088 9.11692e-19)
(-0.113405 -0.0146406 -2.40959e-18)
(-0.123427 -0.0242013 1.01268e-18)
(-0.080294 -0.0477201 2.44974e-18)
(0.203797 -0.00594206 -1.02675e-18)
(0.620007 0.0886295 -2.54586e-19)
(0.903959 0.157002 -2.21143e-18)
(1.07373 0.215505 4.34027e-19)
(1.16941 0.259199 -1.48009e-18)
(1.21861 0.294295 1.41617e-18)
(1.24691 0.312514 -1.15886e-18)
(1.27133 0.321681 2.01496e-18)
(1.28515 0.325745 -7.43966e-19)
(1.30173 0.316803 -1.51719e-18)
(-0.0572017 0.0214457 1.08808e-18)
(-0.0946678 0.0196407 6.80466e-19)
(-0.111355 0.00911836 6.15707e-19)
(-0.108765 0.00510369 1.31451e-19)
(-0.0167407 -0.0291277 1.14291e-18)
(0.383788 0.0652503 -2.73131e-18)
(0.762952 0.139011 1.43757e-18)
(1.00643 0.194884 3.16266e-18)
(1.14102 0.240132 -2.96879e-19)
(1.20734 0.271508 2.24534e-18)
(1.23909 0.297766 1.34521e-18)
(1.25943 0.309832 2.25687e-19)
(1.26985 0.31619 4.14115e-19)
(1.28372 0.31855 7.83033e-19)
(1.30321 0.310707 1.77625e-18)
(-0.0599815 0.0248399 1.67922e-18)
(-0.0980943 0.030823 2.40594e-18)
(-0.104089 0.0305949 -2.1946e-18)
(-0.0914153 0.0271342 2.03445e-18)
(0.0798808 0.00678533 -4.86074e-18)
(0.5418 0.114855 1.171e-18)
(0.88565 0.180674 -4.18025e-19)
(1.08888 0.226662 -1.99181e-18)
(1.18958 0.260024 -3.39574e-18)
(1.23518 0.282169 -1.26159e-18)
(1.25404 0.301167 -3.1026e-18)
(1.26299 0.307439 1.91106e-18)
(1.27373 0.313144 -2.51593e-18)
(1.28277 0.313081 1.66252e-18)
(1.29035 0.303705 1.10167e-18)
(-0.05964 0.0257159 -3.98015e-18)
(-0.0970029 0.0372674 1.39886e-19)
(-0.0944744 0.047928 2.93477e-19)
(-0.0684044 0.0343065 5.78161e-19)
(0.212105 0.0648282 3.60128e-19)
(0.676781 0.16171 2.30159e-18)
(0.983771 0.218873 1.20659e-18)
(1.14883 0.253951 -3.14523e-19)
(1.22391 0.277242 1.53404e-18)
(1.25246 0.291235 9.66824e-19)
(1.2612 0.303878 4.4274e-19)
(1.26889 0.306843 -1.07516e-18)
(1.27187 0.310694 3.47435e-18)
(1.27743 0.30785 5.87015e-19)
(1.29078 0.300216 -1.20239e-18)
(-0.057246 0.02418 3.66318e-18)
(-0.0923986 0.0395824 -2.63139e-18)
(-0.0860217 0.0568181 8.44316e-19)
(-0.0281134 0.0241832 -9.13188e-20)
(0.371435 0.113705 4.54066e-18)
(0.80171 0.199777 -3.68738e-19)
(1.06461 0.24907 -1.45755e-18)
(1.1953 0.275811 3.41393e-18)
(1.24733 0.290792 3.04841e-19)
(1.26373 0.298818 1.27983e-18)
(1.26784 0.307114 -2.52104e-18)
(1.26851 0.306336 6.23979e-20)
(1.27133 0.309387 -1.07731e-18)
(1.2777 0.304984 -2.05874e-19)
(1.28082 0.296357 -6.91314e-19)
(-0.0538172 0.0208874 -9.82127e-19)
(-0.0855406 0.0399125 2.72945e-18)
(-0.0804408 0.0553435 1.66631e-18)
(0.0374757 0.022203 1.33382e-18)
(0.520044 0.153327 -7.4585e-19)
(0.905262 0.232711 -2.86006e-19)
(1.125 0.274731 1.87281e-18)
(1.2257 0.293869 -1.45428e-18)
(1.26171 0.302407 4.29496e-19)
(1.27017 0.305821 -2.16265e-18)
(1.26857 0.309678 1.43978e-19)
(1.26993 0.30714 3.16143e-19)
(1.26984 0.309149 -4.46376e-19)
(1.27095 0.301544 -2.6167e-18)
(1.27774 0.294464 1.06842e-18)
(-0.0500105 0.016408 -1.71743e-18)
(-0.0778064 0.0393637 -2.15287e-18)
(-0.0743093 0.0420695 1.13606e-18)
(0.13858 0.0515543 -1.55042e-19)
(0.650161 0.190371 -1.83646e-18)
(0.992581 0.261254 -5.58693e-20)
(1.17252 0.295294 -1.33118e-18)
(1.24848 0.308213 -2.5272e-18)
(1.27113 0.311757 -9.811e-19)
(1.27295 0.311524 8.99052e-19)
(1.2706 0.312874 8.01896e-19)
(1.26811 0.308241 -7.74799e-20)
(1.26631 0.308814 -1.21883e-18)
(1.27028 0.300309 2.16836e-18)
(1.27122 0.293532 6.52212e-19)
(-0.0464225 0.0116205 1.68203e-18)
(-0.0729378 0.0363026 -1.63441e-21)
(-0.0575578 0.0176361 -2.78462e-18)
(0.281198 0.0970568 -6.20071e-20)
(0.768135 0.220853 4.2904e-19)
(1.06289 0.28413 7.90803e-19)
(1.20644 0.311852 -1.37987e-18)
(1.26142 0.319788 6.9432e-19)
(1.27482 0.319665 -3.2679e-20)
(1.2739 0.317198 7.30106e-19)
(1.26847 0.315642 -6.39642e-19)
(1.26636 0.309838 -1.75726e-18)
(1.26466 0.30987 -8.46528e-20)
(1.26387 0.298757 -1.04836e-18)
(1.26491 0.292735 -8.78096e-19)
(-0.0436622 0.00872557 6.76326e-19)
(-0.0737033 0.0282377 -1.38929e-18)
(-0.0162077 -0.00619888 1.40842e-18)
(0.440345 0.138341 -4.40033e-19)
(0.870581 0.246952 -2.47848e-19)
(1.11795 0.303336 -6.92005e-19)
(1.23107 0.325375 1.10014e-18)
(1.27032 0.329315 6.84898e-19)
(1.27704 0.326574 -3.99583e-19)
(1.27263 0.321941 -1.1021e-18)
(1.2676 0.318824 -3.90201e-19)
(1.26393 0.312098 1.80382e-18)
(1.25968 0.310305 1.0809e-18)
(1.26115 0.29849 1.0406e-18)
(1.26061 0.293862 -3.10504e-19)
(-0.041891 0.00994197 -4.29412e-19)
(-0.0773317 0.0154685 1.51537e-19)
(0.054156 -0.00761753 -5.7465e-19)
(0.579153 0.174484 -1.86247e-20)
(0.957901 0.271141 -4.50111e-19)
(1.16126 0.319186 -6.65199e-19)
(1.24782 0.336091 2.36165e-19)
(1.27403 0.337092 -1.35148e-18)
(1.27565 0.332412 1.16781e-18)
(1.27075 0.326788 1.45118e-18)
(1.26424 0.321929 1.76685e-19)
(1.26011 0.314199 -1.56669e-18)
(1.25714 0.311953 -1.48763e-18)
(1.25565 0.298674 -1.09681e-18)
(1.25279 0.294013 4.26219e-19)
(-0.0414298 0.0149123 -1.36577e-18)
(-0.0766571 -0.000894663 3.69646e-19)
(0.156453 0.0269532 -2.61532e-19)
(0.69624 0.207313 1.34746e-20)
(1.02943 0.292976 -1.14739e-19)
(1.1941 0.33306 -2.46413e-19)
(1.25874 0.345297 4.71582e-19)
(1.27551 0.343906 -2.5791e-19)
(1.27427 0.338036 -3.33538e-19)
(1.26759 0.331153 -6.35657e-19)
(1.26141 0.325152 -5.55983e-19)
(1.25707 0.317138 -2.51348e-19)
(1.25173 0.313158 9.24769e-19)
(1.25097 0.299107 -3.5498e-20)
(1.24892 0.296045 6.89681e-19)
(-0.0427643 0.019692 5.68217e-19)
(-0.0634091 -0.0174826 9.6284e-19)
(0.286608 0.0786612 1.51959e-19)
(0.796772 0.235116 5.88635e-19)
(1.08705 0.312101 1.28515e-18)
(1.21899 0.344939 4.72958e-19)
(1.26559 0.352948 1.71935e-18)
(1.27476 0.349802 8.93639e-19)
(1.27068 0.342921 5.53267e-19)
(1.26412 0.335549 1.24533e-18)
(1.2574 0.328587 3.78232e-19)
(1.25209 0.319676 6.77798e-19)
(1.24793 0.315062 3.31353e-19)
(1.246 0.300564 1.49579e-19)
(1.24104 0.297133 4.78096e-19)
(-0.0459987 0.0196134 7.88449e-19)
(-0.0333414 -0.0271866 -1.35619e-18)
(0.426824 0.126146 -2.59186e-19)
(0.884972 0.259658 6.05619e-19)
(1.13237 0.328331 -1.28857e-18)
(1.23653 0.355266 -5.24031e-19)
(1.26901 0.360032 -1.05596e-18)
(1.27267 0.355434 -3.19948e-20)
(1.26746 0.347989 -2.74545e-19)
(1.25999 0.339862 -1.04686e-18)
(1.25322 0.331952 7.82728e-19)
(1.24824 0.32295 5.85831e-20)
(1.24246 0.316971 -3.24981e-20)
(1.24003 0.301708 2.61681e-19)
(1.23636 0.299374 -5.86722e-19)
(-0.050836 0.01168 -5.52545e-20)
(0.0132694 -0.025191 5.80608e-19)
(0.554098 0.16647 1.56839e-19)
(0.961471 0.283092 -8.48159e-19)
(1.16816 0.342828 5.66018e-19)
(1.24883 0.364332 1.78987e-19)
(1.27028 0.366334 -4.67261e-19)
(1.26984 0.360716 -2.1896e-19)
(1.26298 0.352645 -6.54888e-19)
(1.25554 0.344119 1.12983e-19)
(1.24867 0.33566 -7.56858e-19)
(1.24265 0.32591 -5.24639e-19)
(1.23748 0.319094 1.36791e-19)
(1.23496 0.303959 1.37387e-19)
(1.22903 0.301261 -2.36451e-19)
(-0.0565199 -0.00447414 -2.93467e-19)
(0.0784407 -0.0114293 -1.8139e-19)
(0.661298 0.200898 4.18441e-19)
(1.02659 0.306088 7.31425e-19)
(1.19654 0.356249 1.40362e-19)
(1.25676 0.372535 -3.86294e-19)
(1.2695 0.372481 4.8318e-19)
(1.26601 0.366049 4.15946e-19)
(1.25869 0.357616 2.13465e-19)
(1.25078 0.348561 3.94427e-20)
(1.24357 0.339267 2.42719e-19)
(1.2379 0.329359 1.05168e-19)
(1.23188 0.321563 -7.09561e-20)
(1.22835 0.305824 -8.90092e-20)
(1.2233 0.303457 7.60784e-20)
(-0.0613215 -0.0261249 -1.37453e-19)
(0.165918 0.0169708 -1.57594e-19)
(0.754223 0.231402 1.27174e-19)
(1.0804 0.327638 -1.74599e-19)
(1.21855 0.369106 -3.6697e-19)
(1.26179 0.380479 2.85705e-20)
(1.26764 0.378407 2.22199e-19)
(1.26198 0.371322 -1.98813e-19)
(1.25366 0.362417 1.30079e-19)
(1.24559 0.352908 2.58034e-19)
(1.23843 0.343205 4.07881e-20)
(1.23191 0.332694 9.88114e-20)
(1.226 0.323969 -1.16793e-19)
(1.22278 0.308502 7.78176e-20)
(1.21649 0.305791 -5.57963e-20)
(-0.0624303 -0.0464276 -4.40754e-20)
(0.267634 0.0547264 -1.68605e-20)
(0.834166 0.257446 -2.28654e-19)