/*--------------------------------*- C++ -*----------------------------------*\
  =========                 |
  \\      /  F ield         | OpenFOAM: The Open Source CFD Toolbox
   \\    /   O peration     | Website:  https://openfoam.org
    \\  /    A nd           | Version:  7
     \\/     M anipulation  |
\*---------------------------------------------------------------------------*/
FoamFile
{
    version     2.0;
    format      ascii;
    class       volScalarField;
    location    "7.9992";
    object      p;
}
// * * * * * * * * * * * * * * * * * * * * * * * * * * * * * * * * * * * * * //

dimensions      [0 2 -2 0 0 0 0];

internalField   nonuniform List<scalar> 
18750
(
-0.0928743
-0.10932
-0.138524
-0.180148
-0.231112
-0.289686
-0.354131
-0.423326
-0.496394
-0.572817
-0.651955
-0.732679
-0.81319
-0.891093
-0.963392
-0.0988961
-0.114917
-0.143741
-0.18504
-0.235735
-0.294087
-0.358344
-0.427377
-0.50031
-0.57664
-0.655775
-0.73664
-0.8174
-0.895505
-0.967839
-0.110648
-0.125845
-0.153921
-0.194577
-0.244738
-0.302641
-0.366513
-0.435209
-0.507851
-0.583961
-0.663036
-0.744102
-0.825282
-0.903764
-0.976223
-0.12757
-0.141589
-0.168574
-0.20829
-0.257657
-0.314883
-0.378162
-0.446324
-0.51849
-0.594211
-0.67309
-0.754299
-0.835958
-0.914957
-0.987686
-0.148871
-0.161419
-0.187007
-0.225522
-0.273858
-0.330182
-0.39265
-0.460066
-0.531549
-0.606675
-0.685156
-0.766347
-0.848445
-0.928073
-1.00126
-0.173594
-0.184412
-0.208368
-0.24548
-0.292579
-0.347792
-0.409235
-0.47569
-0.546275
-0.620589
-0.698442
-0.779394
-0.861812
-0.942162
-1.01603
-0.200697
-0.209487
-0.2317
-0.267287
-0.312989
-0.366908
-0.427128
-0.492417
-0.561901
-0.635204
-0.712214
-0.792687
-0.875263
-0.956409
-1.0312
-0.22901
-0.235529
-0.256021
-0.290041
-0.334238
-0.386715
-0.445544
-0.509489
-0.577704
-0.649838
-0.725836
-0.805629
-0.888181
-0.970172
-1.04618
-0.257297
-0.261449
-0.280388
-0.312864
-0.355502
-0.406442
-0.463754
-0.526225
-0.593052
-0.663922
-0.738818
-0.817798
-0.900163
-0.982997
-1.06056
-0.284342
-0.286224
-0.303934
-0.334942
-0.37603
-0.425399
-0.481128
-0.542049
-0.607431
-0.67701
-0.750792
-0.828907
-0.910945
-0.99454
-1.07395
-0.309018
-0.308981
-0.325893
-0.355553
-0.39517
-0.443004
-0.497149
-0.556508
-0.620443
-0.688757
-0.761468
-0.838726
-0.920324
-1.00448
-1.08587
-0.330339
-0.329085
-0.345601
-0.374078
-0.41239
-0.458793
-0.511411
-0.569251
-0.631778
-0.698876
-0.770575
-0.847003
-0.928047
-1.0124
-1.09561
-0.34751
-0.346166
-0.362478
-0.390031
-0.427282
-0.472405
-0.523605
-0.580006
-0.641187
-0.707114
-0.777835
-0.853444
-0.933841
-1.01793
-1.10236
-0.360257
-0.359797
-0.376045
-0.403075
-0.439553
-0.483572
-0.533496
-0.588562
-0.648459
-0.713245
-0.782976
-0.857706
-0.937399
-1.02074
-1.10531
-0.368638
-0.369614
-0.386089
-0.413045
-0.449012
-0.4921
-0.540908
-0.594747
-0.653413
-0.717057
-0.785739
-0.859409
-0.938389
-1.02057
-1.10394
-0.37286
-0.375473
-0.392724
-0.41996
-0.455543
-0.497888
-0.545701
-0.598422
-0.655894
-0.718366
-0.785924
-0.858184
-0.936535
-1.0173
-1.09852
-0.373415
-0.377725
-0.396109
-0.423819
-0.459184
-0.500906
-0.54782
-0.59948
-0.655778
-0.71701
-0.783378
-0.854451
-0.930728
-1.01054
-1.08889
-0.371193
-0.377097
-0.396545
-0.424713
-0.459954
-0.501135
-0.547223
-0.597865
-0.652962
-0.712819
-0.777853
-0.847477
-0.921376
-1.00005
-1.07521
-0.367463
-0.374527
-0.394443
-0.422809
-0.457917
-0.498599
-0.543898
-0.593507
-0.647375
-0.705681
-0.769128
-0.837385
-0.908236
-0.985733
-1.05733
-0.363693
-0.370956
-0.390218
-0.418328
-0.453205
-0.493373
-0.537846
-0.586339
-0.638949
-0.695596
-0.756974
-0.824248
-0.891317
-0.967432
-1.03467
-0.36115
-0.367001
-0.384204
-0.411546
-0.446006
-0.48555
-0.529105
-0.576325
-0.62755
-0.682679
-0.741204
-0.807968
-0.871063
-0.945496
-1.00852
-0.360103
-0.362526
-0.376645
-0.402812
-0.436546
-0.475232
-0.517743
-0.563512
-0.612973
-0.666989
-0.72186
-0.788078
-0.847607
-0.919702
-0.980114
-0.359419
-0.356536
-0.367864
-0.392535
-0.42507
-0.462558
-0.503818
-0.548066
-0.595049
-0.648348
-0.699305
-0.76421
-0.82107
-0.88939
-0.94849
-0.357301
-0.348534
-0.358562
-0.381155
-0.411849
-0.447749
-0.487366
-0.530158
-0.573839
-0.62628
-0.673845
-0.73621
-0.792053
-0.855459
-0.913332
-0.352834
-0.340328
-0.349719
-0.369116
-0.39724
-0.43119
-0.46848
-0.509809
-0.549685
-0.600266
-0.645563
-0.703758
-0.760193
-0.8194
-0.875444
-0.346611
-0.335049
-0.341764
-0.356992
-0.381819
-0.413448
-0.447458
-0.486853
-0.523036
-0.569992
-0.614549
-0.666894
-0.724386
-0.780943
-0.835304
-0.340209
-0.332947
-0.334422
-0.345639
-0.366467
-0.395192
-0.424909
-0.461092
-0.494251
-0.535509
-0.580685
-0.626429
-0.684834
-0.739235
-0.793001
-0.335321
-0.331777
-0.328255
-0.33634
-0.352333
-0.377084
-0.401809
-0.432662
-0.463383
-0.497218
-0.543435
-0.583216
-0.642328
-0.69446
-0.748974
-0.332355
-0.329897
-0.325045
-0.329887
-0.340659
-0.3599
-0.379238
-0.40247
-0.43044
-0.456162
-0.501632
-0.537394
-0.596788
-0.646865
-0.705412
-0.330738
-0.328351
-0.324767
-0.326163
-0.332447
-0.344731
-0.358297
-0.371888
-0.395476
-0.413984
-0.455025
-0.489096
-0.547494
-0.596331
-0.66568
-0.329856
-0.327602
-0.3252
-0.324916
-0.328008
-0.332885
-0.33986
-0.343167
-0.358584
-0.372497
-0.404573
-0.440945
-0.492412
-0.546996
-0.621292
-0.329304
-0.327484
-0.326025
-0.325674
-0.326667
-0.325207
-0.324469
-0.318437
-0.321851
-0.332275
-0.354973
-0.394325
-0.440692
-0.4991
-0.570525
-0.32883
-0.327666
-0.327257
-0.327425
-0.327134
-0.321344
-0.312771
-0.298238
-0.289875
-0.29425
-0.310933
-0.350322
-0.398419
-0.457901
-0.522675
-0.328234
-0.327862
-0.328564
-0.329249
-0.328277
-0.319763
-0.304656
-0.282491
-0.26452
-0.261655
-0.274472
-0.313579
-0.363307
-0.424172
-0.484333
-0.327378
-0.32782
-0.329512
-0.330697
-0.329237
-0.319009
-0.299018
-0.270624
-0.245784
-0.236074
-0.246562
-0.284454
-0.335491
-0.39577
-0.452515
-0.326222
-0.32742
-0.329815
-0.331483
-0.3296
-0.31838
-0.295135
-0.262239
-0.231705
-0.217524
-0.22716
-0.262858
-0.314941
-0.371877
-0.424885
-0.324888
-0.326677
-0.329471
-0.331588
-0.32965
-0.317901
-0.292882
-0.257061
-0.222384
-0.205552
-0.216075
-0.250288
-0.300342
-0.352364
-0.401126
-0.323695
-0.325883
-0.328848
-0.331436
-0.329883
-0.318558
-0.293559
-0.256157
-0.219521
-0.2018
-0.213572
-0.245929
-0.290803
-0.337034
-0.38095
-0.323136
-0.32558
-0.328691
-0.331963
-0.331732
-0.322299
-0.299236
-0.261302
-0.224048
-0.206948
-0.218033
-0.24693
-0.285359
-0.325163
-0.363872
-0.3237
-0.326356
-0.329809
-0.334279
-0.336475
-0.330293
-0.310086
-0.271605
-0.234872
-0.218327
-0.226947
-0.251
-0.282756
-0.316135
-0.349456
-0.325636
-0.328525
-0.332598
-0.338699
-0.344264
-0.341908
-0.321123
-0.285498
-0.24956
-0.232929
-0.238009
-0.256536
-0.281931
-0.309068
-0.337139
-0.328859
-0.331996
-0.33685
-0.344796
-0.35431
-0.35589
-0.332796
-0.298928
-0.265246
-0.248125
-0.24939
-0.262465
-0.281934
-0.303439
-0.326624
-0.332967
-0.33632
-0.341915
-0.351576
-0.365516
-0.36588
-0.345618
-0.31089
-0.279365
-0.262012
-0.259901
-0.268062
-0.282296
-0.29871
-0.317402
-0.337425
-0.340902
-0.346961
-0.357923
-0.376338
-0.372945
-0.354686
-0.321037
-0.291193
-0.273686
-0.268839
-0.272907
-0.282542
-0.294513
-0.309262
-0.341696
-0.345163
-0.351179
-0.363361
-0.381793
-0.37957
-0.35972
-0.328269
-0.300262
-0.28279
-0.275874
-0.276661
-0.282476
-0.290627
-0.30184
-0.345366
-0.348644
-0.3539
-0.368055
-0.380468
-0.382378
-0.361916
-0.332747
-0.306663
-0.289427
-0.280994
-0.279261
-0.281901
-0.28681
-0.294994
-0.348226
-0.350901
-0.355211
-0.37007
-0.37584
-0.379576
-0.36107
-0.334661
-0.310642
-0.293849
-0.284356
-0.280658
-0.280743
-0.282993
-0.288495
-0.350185
-0.351994
-0.355157
-0.367951
-0.372215
-0.373784
-0.357952
-0.334587
-0.312644
-0.296405
-0.28617
-0.280971
-0.27898
-0.279026
-0.282224
-0.351393
-0.352059
-0.354888
-0.361181
-0.369468
-0.367825
-0.353495
-0.332939
-0.312998
-0.2974
-0.286683
-0.280289
-0.276627
-0.274911
-0.276065
-0.352098
-0.351368
-0.355014
-0.35112
-0.364474
-0.361753
-0.348495
-0.330256
-0.312101
-0.297147
-0.286102
-0.278767
-0.273745
-0.270574
-0.269949
-0.352457
-0.350348
-0.35474
-0.344854
-0.357415
-0.35544
-0.343415
-0.326958
-0.310248
-0.295874
-0.284622
-0.276511
-0.27038
-0.266041
-0.263875
-0.352608
-0.350205
-0.352267
-0.346137
-0.351879
-0.349278
-0.338327
-0.323276
-0.307701
-0.293807
-0.282391
-0.273646
-0.266602
-0.261285
-0.257814
-0.352767
-0.352233
-0.347117
-0.350246
-0.349235
-0.344024
-0.333403
-0.31937
-0.304641
-0.291099
-0.279545
-0.27025
-0.262444
-0.256325
-0.251757
-0.353164
-0.356171
-0.340921
-0.351296
-0.347699
-0.339922
-0.328851
-0.315349
-0.30119
-0.287883
-0.276177
-0.266406
-0.257956
-0.251145
-0.245633
-0.354093
-0.360271
-0.33921
-0.348969
-0.34566
-0.33657
-0.324784
-0.311356
-0.29747
-0.284254
-0.272375
-0.262166
-0.253157
-0.245753
-0.239411
-0.355987
-0.362644
-0.344741
-0.347104
-0.343073
-0.333441
-0.32106
-0.307422
-0.293544
-0.280283
-0.268191
-0.257577
-0.248078
-0.240137
-0.233057
-0.359238
-0.362553
-0.354698
-0.34823
-0.34089
-0.330365
-0.317479
-0.303521
-0.289465
-0.276027
-0.263677
-0.252673
-0.242731
-0.234313
-0.226584
-0.364227
-0.360554
-0.363167
-0.351678
-0.339928
-0.327556
-0.313937
-0.299564
-0.28521
-0.271506
-0.258855
-0.247473
-0.237135
-0.228282
-0.220001
-0.371651
-0.358438
-0.368309
-0.355444
-0.340051
-0.325231
-0.310448
-0.295498
-0.280762
-0.266727
-0.253747
-0.241996
-0.231293
-0.222064
-0.213339
-0.381308
-0.360715
-0.370781
-0.358357
-0.340562
-0.323326
-0.307044
-0.291296
-0.276077
-0.261671
-0.248348
-0.236241
-0.225213
-0.215664
-0.206597
-0.392198
-0.369669
-0.372757
-0.360032
-0.340761
-0.321524
-0.303666
-0.286948
-0.271146
-0.256328
-0.242655
-0.230211
-0.218893
-0.209081
-0.199759
-0.403329
-0.383778
-0.376059
-0.360692
-0.340199
-0.319451
-0.300168
-0.282417
-0.265949
-0.250679
-0.236654
-0.223895
-0.212326
-0.202302
-0.192781
-0.412839
-0.398364
-0.380808
-0.360835
-0.33876
-0.316825
-0.296368
-0.277637
-0.26047
-0.24472
-0.230338
-0.217285
-0.205498
-0.195303
-0.185627
-0.419046
-0.409476
-0.385393
-0.360693
-0.33657
-0.313539
-0.292126
-0.272527
-0.254676
-0.238434
-0.223695
-0.210361
-0.198384
-0.188058
-0.178273
-0.421249
-0.415867
-0.388376
-0.360066
-0.333798
-0.309617
-0.287362
-0.267013
-0.248531
-0.23181
-0.216715
-0.203113
-0.190963
-0.180538
-0.170696
-0.420672
-0.418069
-0.389333
-0.358672
-0.330507
-0.305131
-0.282065
-0.261048
-0.241996
-0.224823
-0.209384
-0.195525
-0.183217
-0.172719
-0.162856
-0.418953
-0.417459
-0.388424
-0.35635
-0.326668
-0.300125
-0.276243
-0.254601
-0.235037
-0.21745
-0.201689
-0.187589
-0.175138
-0.164575
-0.154681
-0.41739
-0.415406
-0.386057
-0.353081
-0.322216
-0.294596
-0.269904
-0.247662
-0.227629
-0.209668
-0.193614
-0.179299
-0.166726
-0.156105
-0.146058
-0.41664
-0.412778
-0.38263
-0.348919
-0.3171
-0.288515
-0.263039
-0.240217
-0.21975
-0.201454
-0.185142
-0.170649
-0.157997
-0.147339
-0.136854
-0.416807
-0.409992
-0.378441
-0.343943
-0.311283
-0.281836
-0.255624
-0.23225
-0.211381
-0.192788
-0.176258
-0.161634
-0.148966
-0.138331
-0.126999
-0.417647
-0.407189
-0.37367
-0.338212
-0.30474
-0.274511
-0.247621
-0.223734
-0.202503
-0.183657
-0.166954
-0.152255
-0.139651
-0.129097
-0.116652
-0.418704
-0.404358
-0.368392
-0.33175
-0.297442
-0.266488
-0.238986
-0.214641
-0.193101
-0.174055
-0.157235
-0.142525
-0.130071
-0.119523
-0.10637
-0.419439
-0.401339
-0.362578
-0.324539
-0.289346
-0.257716
-0.229676
-0.204942
-0.18316
-0.163988
-0.147118
-0.132471
-0.120242
-0.109409
-0.0962275
-0.419388
-0.397742
-0.356095
-0.316523
-0.280406
-0.248149
-0.219656
-0.194623
-0.172679
-0.153466
-0.136621
-0.122131
-0.110064
-0.0988463
-0.0860927
-0.418166
-0.393092
-0.348746
-0.307612
-0.270574
-0.237754
-0.208911
-0.183684
-0.161668
-0.142492
-0.125737
-0.111457
-0.0994828
-0.0879843
-0.0758479
-0.415427
-0.387053
-0.34032
-0.297709
-0.259807
-0.226516
-0.197447
-0.172141
-0.150146
-0.131024
-0.114452
-0.100413
-0.0884927
-0.0769089
-0.0654277
-0.4109
-0.379397
-0.330631
-0.286721
-0.248071
-0.214444
-0.185278
-0.159984
-0.138056
-0.119072
-0.102754
-0.0889833
-0.0771334
-0.0656404
-0.0548143
-0.404382
-0.369974
-0.319533
-0.274572
-0.235362
-0.201558
-0.172387
-0.147169
-0.125394
-0.106643
-0.0906435
-0.0771723
-0.0654582
-0.0541652
-0.0440201
-0.395741
-0.358709
-0.306915
-0.26121
-0.221696
-0.187832
-0.158726
-0.133687
-0.112165
-0.0937418
-0.0781241
-0.064997
-0.0534962
-0.0424821
-0.0330681
-0.384907
-0.345605
-0.292696
-0.246624
-0.207054
-0.173212
-0.14429
-0.119542
-0.09838
-0.0803769
-0.0652086
-0.0524755
-0.0412596
-0.0305983
-0.0219707
-0.371863
-0.330737
-0.276841
-0.230809
-0.19134
-0.157693
-0.129088
-0.104748
-0.0840537
-0.0665639
-0.0519142
-0.0396246
-0.0287531
-0.0185181
-0.0107336
-0.356628
-0.314184
-0.259403
-0.213668
-0.174547
-0.141288
-0.11314
-0.0893251
-0.0692059
-0.0523226
-0.0382607
-0.0264598
-0.0159813
-0.00624152
0.000615179
-0.339257
-0.295901
-0.240504
-0.195186
-0.156685
-0.124016
-0.0964696
-0.073298
-0.0538603
-0.0376743
-0.024266
-0.0129959
-0.00296022
0.00620888
0.0120169
-0.31985
-0.275632
-0.220329
-0.175491
-0.137796
-0.105907
-0.0791075
-0.0566967
-0.0380432
-0.022639
-0.00994204
0.000753906
0.0102725
0.0187535
0.0234195
-0.298551
-0.253082
-0.199076
-0.154743
-0.117948
-0.0869974
-0.0610882
-0.039555
-0.0217825
-0.00723276
0.00470754
0.0147797
0.0236604
0.0312515
0.0347459
-0.275497
-0.228554
-0.176549
-0.133044
-0.0972304
-0.0673402
-0.0424526
-0.0219101
-0.00510711
0.00853125
0.0196834
0.0290716
0.0371431
0.0435342
0.0456886
-0.250704
-0.202528
-0.1527
-0.110434
-0.0757246
-0.0469987
-0.0232492
-0.00380237
0.0119535
0.0246383
0.034978
0.0436049
0.0506586
0.0554295
0.055622
-0.2241
-0.175513
-0.127652
-0.086931
-0.0534985
-0.0260422
-0.0035335
0.0147245
0.0293678
0.0410655
0.0505592
0.0583177
0.0641175
0.0668008
0.0642741
-0.195801
-0.147692
-0.101591
-0.0625877
-0.0306137
-0.00454015
0.0166343
0.0336239
0.0471006
0.0577762
0.0663589
0.073098
0.0774032
0.07777
0.0727983
-0.166054
-0.119044
-0.0746839
-0.0374996
-0.00713907
0.0174375
0.0371916
0.0528459
0.0651101
0.0747172
0.0822837
0.0878159
0.0904508
0.0889358
0.0837345
-0.135094
-0.0895831
-0.0470619
-0.0117819
0.0168442
0.0398188
0.0580741
0.0723365
0.0833449
0.0918213
0.0982454
0.102403
0.103361
0.100634
0.0992357
-0.103131
-0.0593864
-0.0188412
0.0144488
0.0412449
0.0625279
0.0792156
0.0920366
0.101743
0.109015
0.114182
0.116892
0.116382
0.113137
0.114338
-0.0703577
-0.0285728
0.00986392
0.0410788
0.0659665
0.0854847
0.100547
0.111882
0.120237
0.126228
0.130063
0.131362
0.129676
0.126369
0.128514
-0.0369571
0.00271781
0.0389343
0.0679967
0.0909105
0.108606
0.121994
0.131802
0.138759
0.143407
0.145879
0.145847
0.143176
0.139803
0.141814
-0.00310587
0.0343373
0.0682459
0.0950911
0.115978
0.131805
0.143482
0.151727
0.157242
0.160507
0.161624
0.160357
0.156841
0.15324
0.154498
0.0310234
0.0661363
0.0976712
0.12225
0.141069
0.154994
0.164931
0.171585
0.175626
0.177489
0.177269
0.174822
0.170474
0.166435
0.166799
0.0652611
0.0979667
0.127082
0.149362
0.166084
0.178086
0.186262
0.191304
0.193853
0.194313
0.192786
0.18921
0.184026
0.179375
0.178769
0.0994412
0.129683
0.156349
0.176314
0.190924
0.20099
0.207397
0.210816
0.211866
0.210927
0.208113
0.203417
0.197367
0.192034
0.190466
0.133401
0.161143
0.185349
0.202995
0.21549
0.22362
0.228255
0.230053
0.229608
0.227286
0.22321
0.217415
0.210475
0.204387
0.201855
0.166982
0.192207
0.213955
0.229295
0.239685
0.245888
0.248761
0.248946
0.247017
0.243328
0.238004
0.231118
0.223288
0.216443
0.212937
0.200029
0.222741
0.242049
0.255107
0.263413
0.267709
0.268839
0.267429
0.264039
0.259006
0.252459
0.244497
0.235771
0.228139
0.223669
0.232394
0.252613
0.269513
0.280326
0.286581
0.289
0.288415
0.285437
0.280609
0.274256
0.266508
0.257495
0.247897
0.239483
0.23403
0.263931
0.281696
0.296234
0.30485
0.309097
0.309679
0.307417
0.302906
0.296675
0.289034
0.280116
0.270074
0.259611
0.250409
0.243986
0.294503
0.30987
0.322103
0.328582
0.330875
0.32967
0.325774
0.319772
0.312174
0.303279
0.293228
0.282198
0.270902
0.260911
0.253511
0.323977
0.337017
0.347015
0.351428
0.35183
0.348896
0.343421
0.335976
0.327058
0.316953
0.305805
0.293818
0.28171
0.270943
0.26258
0.352227
0.363027
0.370871
0.373299
0.371882
0.367285
0.360291
0.351458
0.341269
0.330002
0.317809
0.304911
0.292022
0.280482
0.271167
0.379132
0.387794
0.393576
0.394109
0.390955
0.38477
0.376325
0.366167
0.354763
0.342384
0.329192
0.315429
0.301793
0.289502
0.279252
0.40458
0.411219
0.415042
0.413778
0.408976
0.401285
0.391463
0.380047
0.36749
0.354062
0.339929
0.325349
0.310998
0.297972
0.286814
0.428465
0.433208
0.435184
0.432231
0.425879
0.41677
0.405652
0.393051
0.379409
0.36499
0.349975
0.334633
0.319608
0.305872
0.293838
0.450688
0.453677
0.453926
0.449399
0.4416
0.431168
0.418841
0.405134
0.390479
0.37514
0.359305
0.343253
0.327595
0.313181
0.300307
0.471159
0.472545
0.471197
0.465217
0.456081
0.444427
0.430982
0.416252
0.400662
0.384472
0.367886
0.351184
0.334936
0.319877
0.306208
0.489793
0.489741
0.486932
0.479627
0.46927
0.456499
0.442034
0.42637
0.409925
0.39296
0.37569
0.358398
0.341607
0.325944
0.311531
0.506513
0.505205
0.501076
0.492576
0.481118
0.467341
0.451956
0.43545
0.418235
0.400576
0.382693
0.364872
0.347588
0.331368
0.316268
0.521257
0.51888
0.513575
0.504014
0.491582
0.476915
0.460715
0.443464
0.425567
0.407293
0.388873
0.370586
0.352862
0.336133
0.32041
0.533983
0.530705
0.524382
0.513899
0.500623
0.485184
0.468279
0.450383
0.431897
0.413091
0.394208
0.375521
0.357412
0.340231
0.323955
0.544661
0.540623
0.533451
0.522194
0.508208
0.49212
0.474623
0.456184
0.437202
0.417952
0.398682
0.37966
0.361223
0.343651
0.326901
0.553256
0.548597
0.540746
0.528866
0.514309
0.497699
0.479724
0.460848
0.441467
0.421859
0.402279
0.382989
0.364285
0.346388
0.329249
0.559733
0.5546
0.54624
0.533892
0.518904
0.5019
0.483565
0.46436
0.444677
0.4248
0.404988
0.385495
0.366587
0.34844
0.331004
0.564067
0.558613
0.549914
0.537252
0.521976
0.504709
0.486134
0.466707
0.446823
0.426766
0.406799
0.387171
0.368125
0.349806
0.332171
0.566238
0.560622
0.551754
0.538935
0.523515
0.506116
0.48742
0.467883
0.447898
0.427751
0.407706
0.388011
0.368895
0.350489
0.332753
0.566238
0.560622
0.551754
0.538935
0.523515
0.506116
0.48742
0.467883
0.447898
0.427751
0.407706
0.388011
0.368895
0.350489
0.332753
0.564067
0.558613
0.549914
0.537252
0.521976
0.504709
0.486134
0.466707
0.446823
0.426766
0.406799
0.387171
0.368125
0.349806
0.332171
0.559733
0.5546
0.546241
0.533892
0.518904
0.5019
0.483566
0.46436
0.444677
0.4248
0.404988
0.385495
0.366587
0.34844
0.331004
0.553256
0.548597
0.540746
0.528866
0.514309
0.497699
0.479724
0.460848
0.441467
0.421859
0.402279
0.382989
0.364285
0.346388
0.329249
0.544661
0.540623
0.533451
0.522194
0.508208
0.492121
0.474623
0.456184
0.437202
0.417952
0.398682
0.37966
0.361223
0.343651
0.326901
0.533983
0.530705
0.524382
0.5139
0.500623
0.485184
0.468279
0.450383
0.431897
0.413092
0.394208
0.375521
0.357412
0.340231
0.323955
0.521258
0.51888
0.513575
0.504014
0.491582
0.476915
0.460715
0.443464
0.425568
0.407293
0.388873
0.370586
0.352862
0.336134
0.320411
0.506514
0.505206
0.501076
0.492576
0.481119
0.467342
0.451956
0.435451
0.418236
0.400576
0.382694
0.364872
0.347589
0.331368
0.316268
0.489793
0.489742
0.486933
0.479628
0.46927
0.4565
0.442034
0.42637
0.409925
0.392961
0.37569
0.358398
0.341607
0.325945
0.311532
0.471159
0.472545
0.471197
0.465218
0.456082
0.444427
0.430983
0.416253
0.400662
0.384473
0.367886
0.351184
0.334936
0.319877
0.306208
0.450689
0.453677
0.453927
0.4494
0.4416
0.431168
0.418841
0.405134
0.39048
0.37514
0.359305
0.343254
0.327595
0.313181
0.300307
0.428465
0.433209
0.435185
0.432232
0.425879
0.41677
0.405653
0.393051
0.379409
0.364991
0.349976
0.334633
0.319609
0.305873
0.293838
0.40458
0.411219
0.415042
0.413779
0.408977
0.401285
0.391463
0.380047
0.367491
0.354062
0.339929
0.325349
0.310998
0.297972
0.286815
0.379133
0.387795
0.393577
0.394109
0.390955
0.38477
0.376326
0.366167
0.354763
0.342385
0.329193
0.31543
0.301794
0.289502
0.279252
0.352228
0.363028
0.370872
0.3733
0.371883
0.367286
0.360292
0.351459
0.341269
0.330002
0.317809
0.304912
0.292022
0.280483
0.271167
0.323978
0.337018
0.347016
0.351429
0.351831
0.348896
0.343421
0.335977
0.327058
0.316953
0.305806
0.293818
0.281711
0.270944
0.262581
0.294504
0.309871
0.322104
0.328583
0.330876
0.329671
0.325775
0.319772
0.312174
0.30328
0.293229
0.282198
0.270902
0.260912
0.253512
0.263932
0.281697
0.296235
0.304851
0.309098
0.30968
0.307417
0.302907
0.296676
0.289034
0.280116
0.270074
0.259612
0.25041
0.243987
0.232395
0.252614
0.269514
0.280327
0.286581
0.289001
0.288416
0.285438
0.28061
0.274256
0.266509
0.257496
0.247898
0.239484
0.23403
0.20003
0.222742
0.24205
0.255108
0.263414
0.26771
0.26884
0.26743
0.26404
0.259007
0.25246
0.244498
0.235772
0.22814
0.223669
0.166983
0.192208
0.213956
0.229296
0.239686
0.245889
0.248762
0.248946
0.247018
0.243329
0.238005
0.231118
0.223289
0.216444
0.212938
0.133402
0.161144
0.18535
0.202996
0.215491
0.223621
0.228256
0.230054
0.229608
0.227287
0.223211
0.217416
0.210476
0.204387
0.201856
0.0994425
0.129684
0.156351
0.176315
0.190925
0.200991
0.207397
0.210817
0.211867
0.210928
0.208114
0.203418
0.197368
0.192034
0.190467
0.0652625
0.097968
0.127083
0.149363
0.166085
0.178087
0.186263
0.191305
0.193854
0.194314
0.192787
0.189211
0.184027
0.179376
0.17877
0.0310248
0.0661377
0.0976725
0.122252
0.14107
0.154995
0.164932
0.171586
0.175626
0.17749
0.17727
0.174823
0.170474
0.166436
0.166799
-0.00310435
0.0343388
0.0682473
0.0950924
0.115979
0.131806
0.143483
0.151728
0.157243
0.160508
0.161625
0.160358
0.156842
0.153241
0.154499
-0.0369556
0.00271929
0.0389357
0.067998
0.0909118
0.108607
0.121995
0.131803
0.13876
0.143408
0.14588
0.145848
0.143177
0.139804
0.141815
-0.070356
-0.0285713
0.00986538
0.0410802
0.0659678
0.0854859
0.100548
0.111883
0.120238
0.126229
0.130064
0.131363
0.129677
0.12637
0.128515
-0.103129
-0.0593848
-0.0188397
0.0144503
0.0412463
0.0625292
0.0792168
0.0920378
0.101744
0.109016
0.114183
0.116893
0.116383
0.113138
0.114339
-0.135092
-0.0895814
-0.0470603
-0.0117804
0.0168456
0.0398201
0.0580754
0.0723377
0.083346
0.0918224
0.0982465
0.102404
0.103362
0.100634
0.0992367
-0.166052
-0.119042
-0.0746823
-0.0374981
-0.00713762
0.0174389
0.0371929
0.0528471
0.0651113
0.0747183
0.0822848
0.087817
0.0904518
0.0889368
0.0837355
-0.195799
-0.14769
-0.10159
-0.0625861
-0.0306122
-0.00453873
0.0166357
0.0336252
0.0471019
0.0577774
0.06636
0.0730991
0.0774043
0.077771
0.0727993
-0.224098
-0.175511
-0.12765
-0.0869294
-0.0534969
-0.0260407
-0.0035321
0.0147258
0.0293691
0.0410667
0.0505604
0.0583188
0.0641186
0.0668018
0.0642751
-0.250702
-0.202526
-0.152699
-0.110432
-0.075723
-0.0469972
-0.0232478
-0.00380099
0.0119548
0.0246395
0.0349792
0.043606
0.0506597
0.0554306
0.0556231
-0.275495
-0.228552
-0.176548
-0.133043
-0.0972287
-0.0673386
-0.0424512
-0.0219087
-0.00510575
0.00853255
0.0196846
0.0290728
0.0371443
0.0435353
0.0456897
-0.298549
-0.25308
-0.199074
-0.154741
-0.117947
-0.0869958
-0.0610867
-0.0395535
-0.0217811
-0.00723141
0.00470883
0.0147809
0.0236616
0.0312526
0.034747
-0.319847
-0.27563
-0.220327
-0.17549
-0.137794
-0.105905
-0.0791059
-0.0566952
-0.0380418
-0.0226376
-0.00994071
0.00075518
0.0102737
0.0187547
0.0234207
-0.339254
-0.295899
-0.240502
-0.195184
-0.156683
-0.124015
-0.096468
-0.0732964
-0.0538588
-0.0376729
-0.0242646
-0.0129946
-0.00295897
0.00621008
0.012018
-0.356625
-0.314181
-0.259401
-0.213666
-0.174545
-0.141286
-0.113138
-0.0893236
-0.0692044
-0.0523211
-0.0382593
-0.0264584
-0.01598
-0.00624028
0.000616369
-0.37186
-0.330735
-0.276839
-0.230807
-0.191339
-0.157691
-0.129087
-0.104747
-0.0840521
-0.0665624
-0.0519128
-0.0396233
-0.0287518
-0.0185168
-0.0107323
-0.384905
-0.345602
-0.292694
-0.246622
-0.207052
-0.17321
-0.144288
-0.119541
-0.0983784
-0.0803754
-0.0652071
-0.0524741
-0.0412583
-0.030597
-0.0219695
-0.395738
-0.358707
-0.306912
-0.261208
-0.221694
-0.18783
-0.158724
-0.133685
-0.112164
-0.0937403
-0.0781226
-0.0649956
-0.0534949
-0.0424808
-0.0330669
-0.40438
-0.369972
-0.31953
-0.27457
-0.23536
-0.201556
-0.172385
-0.147168
-0.125393
-0.106642
-0.0906419
-0.0771708
-0.0654568
-0.0541639
-0.0440188
-0.410898
-0.379395
-0.330628
-0.286719
-0.248069
-0.214442
-0.185277
-0.159983
-0.138055
-0.119071
-0.102753
-0.0889818
-0.077132
-0.065639
-0.0548129
-0.415424
-0.38705
-0.340317
-0.297707
-0.259805
-0.226514
-0.197445
-0.172139
-0.150144
-0.131022
-0.11445
-0.100412
-0.0884912
-0.0769075
-0.0654264
-0.418163
-0.39309
-0.348743
-0.30761
-0.270572
-0.237752
-0.208909
-0.183682
-0.161666
-0.142491
-0.125736
-0.111456
-0.0994813
-0.0879828
-0.0758465
-0.419386
-0.39774
-0.356093
-0.31652
-0.280404
-0.248147
-0.219654
-0.194621
-0.172677
-0.153465
-0.136619
-0.122129
-0.110063
-0.0988448
-0.0860913
-0.419437
-0.401336
-0.362575
-0.324537
-0.289344
-0.257714
-0.229674
-0.20494
-0.183158
-0.163986
-0.147116
-0.132469
-0.12024
-0.109407
-0.096226
-0.418701
-0.404356
-0.36839
-0.331748
-0.297439
-0.266486
-0.238984
-0.214639
-0.193099
-0.174053
-0.157233
-0.142523
-0.13007
-0.119522
-0.106368
-0.417644
-0.407187
-0.373668
-0.338209
-0.304738
-0.274509
-0.247619
-0.223732
-0.202501
-0.183655
-0.166952
-0.152253
-0.13965
-0.129096
-0.116651
-0.416804
-0.409989
-0.378439
-0.343941
-0.31128
-0.281834
-0.255622
-0.232248
-0.211379
-0.192786
-0.176256
-0.161632
-0.148965
-0.13833
-0.126997
-0.416637
-0.412775
-0.382627
-0.348917
-0.317097
-0.288512
-0.263037
-0.240215
-0.219748
-0.201452
-0.18514
-0.170647
-0.157995
-0.147337
-0.136852
-0.417387
-0.415403
-0.386055
-0.353079
-0.322214
-0.294594
-0.269902
-0.24766
-0.227627
-0.209666
-0.193612
-0.179297
-0.166724
-0.156103
-0.146056
-0.41895
-0.417456
-0.388421
-0.356348
-0.326666
-0.300123
-0.276241
-0.254599
-0.235035
-0.217448
-0.201688
-0.187588
-0.175136
-0.164573
-0.154679
-0.420669
-0.418066
-0.38933
-0.358669
-0.330505
-0.305129
-0.282063
-0.261045
-0.241994
-0.224821
-0.209382
-0.195523
-0.183216
-0.172717
-0.162854
-0.421247
-0.415864
-0.388374
-0.360063
-0.333796
-0.309614
-0.28736
-0.267011
-0.248529
-0.231808
-0.216714
-0.203111
-0.190962
-0.180537
-0.170694
-0.419044
-0.409473
-0.385391
-0.360691
-0.336568
-0.313537
-0.292123
-0.272525
-0.254674
-0.238432
-0.223693
-0.210359
-0.198382
-0.188057
-0.178271
-0.412836
-0.398361
-0.380806
-0.360832
-0.338758
-0.316823
-0.296366
-0.277635
-0.260468
-0.244718
-0.230336
-0.217283
-0.205496
-0.195301
-0.185626
-0.403326
-0.383775
-0.376056
-0.360689
-0.340197
-0.319448
-0.300166
-0.282415
-0.265946
-0.250677
-0.236652
-0.223893
-0.212325
-0.202301
-0.19278
-0.392195
-0.369666
-0.372755
-0.360029
-0.340758
-0.321522
-0.303664
-0.286945
-0.271144
-0.256326
-0.242653
-0.23021
-0.218891
-0.209079
-0.199758
-0.381305
-0.360712
-0.370778
-0.358354
-0.340559
-0.323324
-0.307042
-0.291294
-0.276075
-0.261668
-0.248346
-0.236239
-0.225211
-0.215662
-0.206595
-0.371648
-0.358435
-0.368306
-0.355441
-0.340049
-0.325228
-0.310445
-0.295496
-0.280759
-0.266725
-0.253745
-0.241994
-0.231291
-0.222062
-0.213337
-0.364224
-0.360551
-0.363164
-0.351676
-0.339926
-0.327554
-0.313935
-0.299562
-0.285208
-0.271503
-0.258853
-0.247471
-0.237133
-0.228281
-0.219999
-0.359235
-0.362551
-0.354695
-0.348227
-0.340887
-0.330363
-0.317477
-0.303519
-0.289462
-0.276025
-0.263675
-0.252671
-0.242729
-0.234311
-0.226582
-0.355984
-0.362641
-0.344738
-0.347101
-0.34307
-0.333438
-0.321057
-0.30742
-0.293541
-0.280281
-0.268189
-0.257574
-0.248076
-0.240135
-0.233055
-0.354091
-0.360268
-0.339208
-0.348966
-0.345657
-0.336567
-0.324782
-0.311354
-0.297468
-0.284252
-0.272373
-0.262164
-0.253155
-0.245751
-0.239409
-0.353161
-0.356168
-0.340918
-0.351293
-0.347696
-0.33992
-0.328849
-0.315347
-0.301188
-0.287881
-0.276175
-0.266404
-0.257954
-0.251143
-0.245631
-0.352765
-0.35223
-0.347114
-0.350243
-0.349232
-0.344021
-0.3334
-0.319368
-0.304638
-0.291096
-0.279542
-0.270248
-0.262442
-0.256323
-0.251755
-0.352605
-0.350202
-0.352265
-0.346134
-0.351876
-0.349275
-0.338324
-0.323273
-0.307698
-0.293805
-0.282389
-0.273643
-0.2666
-0.261283
-0.257812
-0.352455
-0.350345
-0.354737
-0.344851
-0.357413
-0.355438
-0.343413
-0.326956
-0.310245
-0.295871
-0.284619
-0.276509
-0.270378
-0.266039
-0.263873
-0.352095
-0.351365
-0.355011
-0.351118
-0.364471
-0.36175
-0.348493
-0.330254
-0.312099
-0.297145
-0.2861
-0.278765
-0.273743
-0.270572
-0.269947
-0.35139
-0.352056
-0.354885
-0.361179
-0.369466
-0.367823
-0.353492
-0.332936
-0.312995
-0.297397
-0.286681
-0.280286
-0.276625
-0.274908
-0.276063
-0.350182
-0.351991
-0.355154
-0.367948
-0.372212
-0.373782
-0.35795
-0.334585
-0.312642
-0.296402
-0.286167
-0.280968
-0.278978
-0.279024
-0.282222
-0.348223
-0.350898
-0.355208
-0.370067
-0.375837
-0.379573
-0.361067
-0.334659
-0.310639
-0.293846
-0.284353
-0.280656
-0.280741
-0.282991
-0.288493
-0.345363
-0.348641
-0.353897
-0.368052
-0.380466
-0.382375
-0.361913
-0.332745
-0.306661
-0.289424
-0.280992
-0.279259
-0.281898
-0.286808
-0.294991
-0.341693
-0.34516
-0.351176
-0.363358
-0.38179
-0.379567
-0.359718
-0.328266
-0.300259
-0.282787
-0.275871
-0.276658
-0.282474
-0.290625
-0.301838
-0.337422
-0.340899
-0.346958
-0.35792
-0.376335
-0.372943
-0.354683
-0.321034
-0.29119
-0.273684
-0.268836
-0.272904
-0.28254
-0.294511
-0.309259
-0.332964
-0.336317
-0.341912
-0.351573
-0.365513
-0.365877
-0.345616
-0.310887
-0.279362
-0.262009
-0.259898
-0.268059
-0.282294
-0.298707
-0.3174
-0.328856
-0.331993
-0.336847
-0.344793
-0.354307
-0.355887
-0.332794
-0.298925
-0.265243
-0.248122
-0.249387
-0.262462
-0.281932
-0.303437
-0.326622
-0.325633
-0.328522
-0.332595
-0.338696
-0.344261
-0.341905
-0.32112
-0.285496
-0.249557
-0.232926
-0.238006
-0.256533
-0.281928
-0.309066
-0.337137
-0.323697
-0.326353
-0.329807
-0.334277
-0.336472
-0.33029
-0.310083
-0.271602
-0.234869
-0.218324
-0.226944
-0.250997
-0.282753
-0.316132
-0.349453
-0.323133
-0.325577
-0.328689
-0.33196
-0.331729
-0.322296
-0.299233
-0.261299
-0.224045
-0.206945
-0.21803
-0.246927