/*--------------------------------*- C++ -*----------------------------------*\
  =========                 |
  \\      /  F ield         | OpenFOAM: The Open Source CFD Toolbox
   \\    /   O peration     | Website:  https://openfoam.org
    \\  /    A nd           | Version:  7
     \\/     M anipulation  |
\*---------------------------------------------------------------------------*/
FoamFile
{
    version     2.0;
    format      ascii;
    class       surfaceScalarField;
    location    "7.9992";
    object      phi;
}
// * * * * * * * * * * * * * * * * * * * * * * * * * * * * * * * * * * * * * //

dimensions      [0 3 -1 0 0 0 0];

internalField   nonuniform List<scalar> 
37105
(
-1.48083e-05
1.48089e-05
-5.86574e-10
-3.36262e-05
1.88186e-05
-7.20377e-10
-5.27801e-05
1.91545e-05
-7.33622e-10
-7.25621e-05
1.97828e-05
-7.29751e-10
-9.30478e-05
2.04864e-05
-6.90144e-10
-0.000114384
2.13364e-05
-6.12321e-10
-0.000136715
2.23322e-05
-4.9782e-10
-0.000160206
2.34908e-05
-3.48727e-10
-0.000185019
2.48131e-05
-1.70362e-10
-0.0002113
2.62817e-05
3.61523e-11
-0.000239159
2.78589e-05
2.57317e-10
-0.000268586
2.94264e-05
4.94535e-10
-0.000299385
3.0798e-05
7.42881e-10
-0.000331179
3.17926e-05
9.91192e-10
3.23677e-05
1.2223e-09
-0.000363548
-1.45617e-05
2.93707e-05
-3.31424e-05
3.73992e-05
-5.20548e-05
3.8067e-05
-7.15641e-05
3.92921e-05
-9.17354e-05
4.06577e-05
-0.000112698
4.22995e-05
-0.000134582
4.42154e-05
-0.000157527
4.64359e-05
-0.000181674
4.89606e-05
-0.000207143
5.17502e-05
-0.000234014
5.473e-05
-0.000262263
5.76755e-05
-0.000291695
6.02303e-05
-0.000321934
6.20309e-05
6.29696e-05
-0.000352535
-1.40742e-05
4.34449e-05
-3.21874e-05
5.55125e-05
-5.0626e-05
5.65056e-05
-6.96036e-05
5.82696e-05
-8.91671e-05
6.02212e-05
-0.000109416
6.2548e-05
-0.000130447
6.52466e-05
-0.000152368
6.83568e-05
-0.000175281
7.18742e-05
-0.000199265
7.57342e-05
-0.000224364
7.98285e-05
-0.000250539
8.38507e-05
-0.000277617
8.73079e-05
-0.000305233
8.96475e-05
9.06356e-05
-0.000332899
-1.3358e-05
5.68028e-05
-3.07855e-05
7.294e-05
-4.85322e-05
7.42524e-05
-6.67435e-05
7.64809e-05
-8.54411e-05
7.89188e-05
-0.000104684
8.17906e-05
-0.000124532
8.50945e-05
-0.000145052
8.88772e-05
-0.00016631
9.31319e-05
-0.000188344
9.77687e-05
-0.000211169
0.000102653
-0.000234748
0.00010743
-0.000258957
0.000111517
-0.000283475
0.000114166
0.000114942
-0.000307782
-1.24348e-05
6.92377e-05
-2.89671e-05
8.94723e-05
-4.58228e-05
9.11081e-05
-6.30634e-05
9.37215e-05
-8.06773e-05
9.65327e-05
-9.86771e-05
9.97904e-05
-0.000117085
0.000103503
-0.000135934
0.000107725
-0.000155258
0.000112457
-0.000175076
0.000117586
-0.000195388
0.000122966
-0.000216175
0.000128217
-0.000237381
0.000132722
-0.000258759
0.000135543
0.000135949
-0.000279765
-1.13627e-05
8.06004e-05
-2.6767e-05
0.000104877
-4.25541e-05
0.000106895
-5.8653e-05
0.00010982
-7.5007e-05
0.000112887
-9.15803e-05
0.000116364
-0.000108362
0.000120284
-0.000125358
0.000124722
-0.000142594
0.000129692
-0.000160084
0.000135077
-0.000177841
0.000140722
-0.000195871
0.000146247
-0.000214186
0.000151037
-0.000232634
0.000153991
0.000153981
-0.000250667
-1.00771e-05
9.06775e-05
-2.41989e-05
0.000118998
-3.8786e-05
0.000121482
-5.36103e-05
0.000124645
-6.85721e-05
0.000127848
-8.35913e-05
0.000131383
-9.8632e-05
0.000135325
-0.000113691
0.00013978
-0.0001288
0.000144801
-0.000143997
0.000150274
-0.00015932
0.000156045
-0.000174809
0.000161737
-0.000190524
0.000166752
-0.000206414
0.000169881
0.000169548
-0.000221981
-8.59437e-06
9.92718e-05
-2.12909e-05
0.000131695
-3.45824e-05
0.000134774
-4.80386e-05
0.000138101
-6.1523e-05
0.000141333
-7.49224e-05
0.000144782
-8.81872e-05
0.00014859
-0.00010132
0.000152913
-0.000114379
0.000157861
-0.000127442
0.000163338
-0.000140583
0.000169186
-0.000153862
0.000175016
-0.000167351
0.00018024
-0.000181079
0.000183609
0.000183164
-0.000194695
-6.94089e-06
0.000106213
-1.80808e-05
0.000142835
-3.00105e-05
0.000146703
-4.20416e-05
0.000150132
-5.40105e-05
0.000153302
-6.57844e-05
0.000156556
-7.73114e-05
0.000160117
-8.86112e-05
0.000164213
-9.97787e-05
0.000169028
-0.000110932
0.000174491
-0.000122172
0.000180426
-0.000133551
0.000186395
-0.000145107
0.000191796
-0.000156902
0.000195405
0.000195013
-0.000168751
-5.1313e-06
0.000111344
-1.46126e-05
0.000152316
-2.51401e-05
0.000157231
-3.57175e-05
0.000160709
-4.61735e-05
0.000163758
-5.63668e-05
0.000166749
-6.6247e-05
0.000169997
-7.58552e-05
0.000173821
-8.53159e-05
0.000178489
-9.47702e-05
0.000183945
-0.000104322
0.000189978
-0.000113982
0.000196055
-0.000123705
0.000201519
-0.000133485
0.000205184
0.000204747
-0.000143219
-3.16157e-06
0.000114506
-1.09355e-05
0.00016009
-2.00312e-05
0.000166327
-2.91483e-05
0.000169826
-3.81278e-05
0.000172737
-4.68165e-05
0.000175438
-5.51639e-05
0.000178344
-6.32248e-05
0.000181882
-7.11331e-05
0.000186397
-7.90234e-05
0.000191835
-8.69718e-05
0.000197927
-9.49272e-05
0.00020401
-0.000102714
0.000209306
-0.000110128
0.000212598
0.000211686
-0.000117067
-9.82243e-07
0.000115488
-7.10994e-06
0.000166218
-1.47298e-05
0.000173946
-2.24e-05
0.000177496
-2.99614e-05
0.000180299
-3.72342e-05
0.000182711
-4.41622e-05
0.000185272
-5.07979e-05
0.000188517
-5.72607e-05
0.00019286
-6.36461e-05
0.000198221
-6.99628e-05
0.000204243
-7.60902e-05
0.000210138
-8.17232e-05
0.000214939
-8.63602e-05
0.000217235
0.000215114
-8.97885e-05
1.12183e-06
0.000114366
-3.20217e-06
0.000170542
-9.25919e-06
0.000180004
-1.55222e-05
0.000183759
-2.17354e-05
0.000186512
-2.76774e-05
0.000188653
-3.3283e-05
0.000190878
-3.85805e-05
0.000193815
-4.36473e-05
0.000197927
-4.85177e-05
0.000203091
-5.31075e-05
0.000208833
-5.72122e-05
0.000214242
-6.04658e-05
0.000218192
-6.20562e-05
0.000218826
0.000214289
-6.1231e-05
3.18602e-06
0.00011118
7.96035e-07
0.000172932
-3.64712e-06
0.000184447
-8.56297e-06
0.000188675
-1.34902e-05
0.000191439
-1.81701e-05
0.000193333
-2.25308e-05
0.000195239
-2.6544e-05
0.000197828
-3.0222e-05
0.000201605
-3.35288e-05
0.000206398
-3.62816e-05
0.000211586
-3.81238e-05
0.000216084
-3.87168e-05
0.000218785
-3.73193e-05
0.000217428
0.000209212
-3.22426e-05
5.41326e-06
0.000105767
5.22728e-06
0.000173118
2.11567e-06
0.000187558
-1.5826e-06
0.000192374
-5.25334e-06
0.00019511
-8.7214e-06
0.000196801
-1.18942e-05
0.000198411
-1.46535e-05
0.000200587
-1.6933e-05
0.000203884
-1.86138e-05
0.000208079
-1.94807e-05
0.000212453
-1.89878e-05
0.000215591
-1.68506e-05
0.000216648
-1.26444e-05
0.000213222
0.000201151
-4.58354e-06
7.71673e-06
9.805e-05
9.64736e-06
0.000171187
8.08676e-06
0.000189119
5.61269e-06
0.000194848
3.00729e-06
0.000197715
6.04609e-07
0.000199203
-1.36835e-06
0.000200384
-2.88281e-06
0.000202102
-3.76176e-06
0.000204763
-3.7797e-06
0.000208097
-2.68901e-06
0.000211362
9.71882e-08
0.000212805
5.11315e-06
0.000211632
1.26111e-05
0.000205724
0.00019002
2.37422e-05
1.00204e-05
8.80296e-05
1.41085e-05
0.000167099
1.40796e-05
0.000189148
1.28339e-05
0.000196093
1.13785e-05
0.000199171
1.0069e-05
0.000200513
9.13279e-06
0.000201321
8.795e-06
0.00020244
9.3e-06
0.000204258
1.097e-05
0.000206427
1.40247e-05
0.000208308
1.91081e-05
0.000207722
2.71396e-05
0.000203601
3.70998e-05
0.000195764
0.000175509
5.16103e-05
1.22381e-05
7.57915e-05
1.8536e-05
0.000160801
2.00772e-05
0.000187607
2.00465e-05
0.000196124
1.96786e-05
0.000199539
1.94036e-05
0.000200788
1.95465e-05
0.000201178
2.038e-05
0.000201606
2.22011e-05
0.000202437
2.55665e-05
0.000203061
3.06071e-05
0.000203267
3.7596e-05
0.000200733
4.8731e-05
0.000192466
6.0861e-05
0.000183634
0.000159176
7.71944e-05
1.4231e-05
6.15605e-05
2.27813e-05
0.000152251
2.60176e-05
0.00018437
2.72415e-05
0.0001949
2.79361e-05
0.000198844
2.86689e-05
0.000200055
2.98466e-05
0.0002
3.18449e-05
0.000199608
3.49172e-05
0.000199365
3.97485e-05
0.00019823
4.68965e-05
0.000196119
5.52942e-05
0.000192335
6.95168e-05
0.000178243
8.53547e-05
0.000167796
0.000140813
0.000103718
1.57522e-05
4.58083e-05
2.66253e-05
0.000141378
3.17957e-05
0.0001792
3.43702e-05
0.000192326
3.61297e-05
0.000197085
3.78485e-05
0.000198336
4.00143e-05
0.000197834
4.31573e-05
0.000196465
4.74921e-05
0.00019503
5.34534e-05
0.000192269
6.28664e-05
0.000186706
7.22858e-05
0.000182916
8.77431e-05
0.000162786
0.000106981
0.000148557
0.000117494
0.0001303
1.62969e-05
2.95114e-05
2.97776e-05
0.000127897
3.72619e-05
0.000171715
4.13415e-05
0.000188246
4.4208e-05
0.000194218
4.69218e-05
0.000195623
5.00199e-05
0.000194736
5.42077e-05
0.000192277
5.99277e-05
0.00018931
6.66672e-05
0.000185529
7.83674e-05
0.000175006
8.97044e-05
0.000171579
0.000105535
0.000146955
0.000124674
0.000129418
8.90696e-05
0.000153099
1.51858e-05
1.43256e-05
3.19176e-05
0.000111165
4.21699e-05
0.000161463
4.79851e-05
0.000182431
5.20718e-05
0.000190131
5.58351e-05
0.000191859
5.98752e-05
0.000190696
6.48639e-05
0.000187288
7.2122e-05
0.000182052
7.9403e-05
0.000178248
9.25525e-05
0.000161856
0.000106584
0.000157547
0.000125039
0.000128501
0.000142857
0.0001116
5.90274e-05
0.000172899
1.23998e-05
1.92585e-06
3.29117e-05
9.06534e-05
4.61701e-05
0.000148205
5.40799e-05
0.000174521
5.9608e-05
0.000184603
6.44878e-05
0.00018698
6.95662e-05
0.000185617
7.51146e-05
0.00018174
8.39475e-05
0.000173219
9.21127e-05
0.000170083
0.000105499
0.00014847
0.000120839
0.000142207
0.000143326
0.000106013
0.0001624
9.25261e-05
3.04733e-05
0.000190954
8.94153e-06
-7.01568e-06
3.24749e-05
6.712e-05
4.88151e-05
0.000131865
5.93367e-05
0.000164
6.66514e-05
0.000177289
7.27156e-05
0.000180915
7.90147e-05
0.000179318
8.4965e-05
0.00017579
9.495e-05
0.000163234
0.000104858
0.000160175
0.000118659
0.000134669
0.000133452
0.000127415
0.000157842
8.16229e-05
0.000179367
7.10011e-05
2.6046e-06
0.000207236
5.58741e-06
-1.26031e-05
2.98324e-05
4.2875e-05
4.9695e-05
0.000112002
6.34463e-05
0.000150248
7.29792e-05
0.000167756
8.02631e-05
0.000173632
8.79812e-05
0.0001716
9.45889e-05
0.000169182
0.000104798
0.000153025
0.00011651
0.000148463
0.000132094
0.000119085
0.000147279
0.00011223
0.000169543
5.93583e-05
0.00019367
4.6874e-05
-2.55375e-05
0.000221813
2.37668e-06
-1.49798e-05
2.4394e-05
2.08577e-05
4.83938e-05
8.80021e-05
6.58978e-05
0.000132744
7.81978e-05
0.000155456
8.69256e-05
0.000164904
9.60747e-05
0.000162451
0.000104004
0.000161252
0.000113895
0.000143135
0.000126234
0.000136124
0.000142591
0.000102728
0.000161295
9.35262e-05
0.000180292
4.03614e-05
0.00020676
2.04062e-05
-5.38604e-05
0.000235083
-1.03552e-07
-1.48762e-05
1.72921e-05
3.46205e-06
4.47411e-05
6.05531e-05
6.59911e-05
0.000111494
8.16746e-05
0.000139772
9.24237e-05
0.000154155
0.000102781
0.000152094
0.000112643
0.00015139
0.00012268
0.000133099
0.000135589
0.000123214
0.000150027
8.82898e-05
0.000172556
7.09972e-05
0.000189468
2.34501e-05
0.000218951
-9.07698e-06
-8.16262e-05
0.000246717
-1.31695e-06
-1.35593e-05
1.05425e-05
-8.39736e-06
3.79664e-05
3.31291e-05
6.28656e-05
8.65951e-05
8.25455e-05
0.000120092
9.62755e-05
0.000140424
0.000107655
0.000140715
0.000119447
0.000139597
0.000130538
0.000122008
0.000144766
0.000108986
0.00015713
7.59257e-05
0.00018177
4.63569e-05
0.000197552
7.66792e-06
0.000230927
-4.24518e-05
-0.000105465
0.000254766
-1.05072e-06
-1.25085e-05
5.62631e-06
-1.50744e-05
2.83003e-05
1.04551e-05
5.59228e-05
5.89727e-05
7.96401e-05
9.6375e-05
9.7566e-05
0.000122499
0.000110348
0.000127933
0.000123487
0.000126458
0.000135796
0.000109699
0.000152528
9.22541e-05
0.000164683
6.37714e-05
0.000189509
2.15301e-05
0.000205347
-8.1696e-06
0.000241774
-7.88789e-05
-0.000120192
0.000256501
-3.81945e-07
-1.21266e-05
3.23204e-06
-1.86884e-05
1.87571e-05
-5.0699e-06
4.55457e-05
3.2184e-05
7.18194e-05
7.01014e-05
9.42993e-05
0.000100019
0.000110446
0.000111786
0.000124725
0.000112179
0.000137453
9.69705e-05
0.000155831
7.38761e-05
0.000169653
4.99497e-05
0.000193267
-2.08384e-06
0.000209434
-2.43368e-05
0.000245111
-0.000114555
-0.000112154
0.000237073
4.06795e-07
-1.25334e-05
3.14407e-06
-2.14257e-05
1.22328e-05
-1.41586e-05
3.36195e-05
1.07973e-05
5.94952e-05
4.42257e-05
8.44819e-05
7.5032e-05
0.000105161
9.11069e-05
0.000122047
9.52936e-05
0.000135832
8.31856e-05
0.000153117
5.65912e-05
0.000169693
3.33737e-05
0.000187708
-2.00995e-05
0.000207691
-4.43199e-05
0.000218542
-0.000125406
-0.000106428
0.000212816
1.09985e-06
-1.36332e-05
3.81906e-06
-2.41449e-05
9.26541e-06
-1.9605e-05
2.33128e-05
-3.2501e-06
4.50594e-05
2.24791e-05
6.92523e-05
5.0839e-05
9.20162e-05
6.8343e-05
0.000112183
7.51268e-05
0.000128651
6.67178e-05
0.00014382
4.14221e-05
0.000162451
1.47425e-05
0.000177213
-3.48615e-05
0.000191379
-5.84864e-05
0.000185624
-0.00011965
-0.000156574
0.000235769
1.51756e-06
-1.51508e-05
4.07309e-06
-2.67004e-05
7.87803e-06
-2.34099e-05
1.59748e-05
-1.13469e-05
3.12948e-05
7.15912e-06
5.15174e-05
3.06165e-05
7.2472e-05
4.73884e-05
9.39445e-05
5.36543e-05
0.000112829
4.78337e-05
0.000127104
2.71466e-05
0.000147653
-5.80631e-06
0.000155189
-4.23979e-05
0.000164947
-6.82435e-05
0.000193186
-0.000147889
-0.000231482
0.000268095
1.46581e-06
-1.66166e-05
3.27565e-06
-2.85102e-05
5.71025e-06
-2.58445e-05
1.01342e-05
-1.57708e-05
1.92494e-05
-1.95611e-06
3.34525e-05
1.64133e-05
5.03451e-05
3.04958e-05
6.95924e-05
3.4407e-05
8.77406e-05
2.96855e-05
0.000104288
1.05996e-05
0.000120292
-2.18105e-05
0.000125529
-4.76349e-05
0.000161825
-0.00010454
0.000218922
-0.000204986
-0.000296538
0.000283978
8.52188e-07
-1.74688e-05
1.24335e-06
-2.89014e-05
1.8812e-06
-2.64823e-05
3.59571e-06
-1.74853e-05
7.87802e-06
-6.23842e-06
1.61288e-05
8.16255e-06
2.78137e-05
1.8811e-05
4.19764e-05
2.02443e-05
5.91733e-05
1.24886e-05
7.40241e-05
-4.2512e-06
8.76542e-05
-3.54406e-05
0.000120954
-8.09349e-05
0.000185602
-0.000169188
0.000245394
-0.000264778
-0.000347507
0.000296363
-2.76242e-07
-1.71926e-05
-1.78901e-06
-2.73886e-05
-3.42042e-06
-2.48509e-05
-4.4141e-06
-1.64917e-05
-4.09796e-06
-6.55456e-06
-7.08649e-07
4.77324e-06
5.28375e-06
1.28186e-05
1.49289e-05
1.05991e-05
2.86524e-05
-1.23482e-06
4.62413e-05
-2.18402e-05
8.43347e-05
-7.3534e-05
0.000148133
-0.000144734
0.000214339
-0.000235394
0.000262512
-0.000312951
-0.00037748
0.000292485
-1.7344e-06
-1.54582e-05
-5.34697e-06
-2.37761e-05
-9.49042e-06
-2.07075e-05
-1.33711e-05
-1.2611e-05
-1.67257e-05
-3.19999e-06
-1.84235e-05
6.47112e-06
-1.70783e-05
1.14733e-05
-9.73773e-06
3.25851e-06
9.21499e-06
-2.01875e-05
5.11545e-05
-6.37797e-05
0.00011479
-0.00013717
0.00018099
-0.000210933
0.000231187
-0.000285591
0.000263224
-0.000344987
-0.000400744
0.000286487
-3.23363e-06
-1.22245e-05
-8.87296e-06
-1.81367e-05
-1.53865e-05
-1.41939e-05
-2.20784e-05
-5.91911e-06
-2.86794e-05
3.40095e-06
-3.34867e-05
1.12785e-05
-3.27782e-05
1.07648e-05
-1.74058e-05
-1.2114e-05
2.24617e-05
-6.0055e-05
8.48469e-05
-0.000126165
0.000147621
-0.000199944
0.000198701
-0.000262013
0.000233987
-0.000320877
0.000259881
-0.000370882
-0.000418828
0.000277964
-4.44263e-06
-7.78191e-06
-1.16161e-05
-1.09633e-05
-1.98054e-05
-6.00459e-06
-2.83271e-05
2.60259e-06
-3.61622e-05
1.12361e-05
-4.00413e-05
1.51576e-05
-3.22476e-05
2.97113e-06
1.60013e-06
-4.59617e-05
5.69035e-05
-0.000115358
0.000117088
-0.000186349
0.000165769
-0.000248625
0.000203885
-0.000300128
0.000232298
-0.00034929
0.000252125
-0.000390709
-0.00043333
0.000266628
-5.09461e-06
-2.6873e-06
-1.29766e-05
-3.08129e-06
-2.17032e-05
2.72201e-06
-3.02765e-05
1.11759e-05
-3.69919e-05
1.79515e-05
-3.60275e-05
1.41932e-05
-1.49468e-05
-1.81096e-05
3.24817e-05
-9.33902e-05
8.76704e-05
-0.000170547
0.000135707
-0.000234386
0.000173909
-0.000286828
0.00020446
-0.000330679
0.000226612
-0.000371442
0.000243669
-0.000407766
-0.000447537
0.000257876
-5.10285e-06
2.41555e-06
-1.28249e-05
4.64072e-06
-2.09628e-05
1.08599e-05
-2.82323e-05
1.84454e-05
-3.21133e-05
2.18325e-05
-2.45816e-05
6.66148e-06
1.06574e-05
-5.33486e-05
6.12518e-05
-0.000143985
0.000107242
-0.000216537
0.00014645
-0.000273594
0.000177505
-0.000317882
0.000201573
-0.000354747
0.000220262
-0.000390131
0.000234952
-0.000422456
-0.000458509
0.000245924
-4.56443e-06
6.97998e-06
-1.14534e-05
1.15296e-05
-1.82628e-05
1.76694e-05
-2.34565e-05
2.36391e-05
-2.37898e-05
2.21658e-05
-5.96056e-06
-1.11677e-05
3.67626e-05
-9.60718e-05
8.16892e-05
-0.000188911
0.000120904
-0.000255752
0.000152853
-0.000305543
0.000177574
-0.000342603
0.000197417
-0.000374591
0.000212666
-0.00040538
0.000225205
-0.000434995
-0.000470236
0.000236931
-3.65008e-06
1.06301e-05
-9.28907e-06
1.71686e-05
-1.44113e-05
2.27916e-05
-1.72818e-05
2.65096e-05
-1.3963e-05
1.8847e-05
1.43355e-05
-3.94662e-05
5.93681e-05
-0.000141104
9.75296e-05
-0.000227073
0.00012992
-0.000288143
0.000155581
-0.000331204
0.000175665
-0.000362686
0.000191711
-0.000390637
0.000204897
-0.000418566
0.000216799
-0.000446897
-0.000479636
0.0002262
-2.54444e-06
1.31745e-05
-6.73228e-06
2.13565e-05
-9.9862e-06
2.60455e-05
-1.07704e-05
2.72938e-05
-3.47012e-07
8.42362e-06
3.49162e-05
-7.47294e-05
7.55218e-05
-0.00018171
0.000109168
-0.000260718
0.000135563
-0.000314538
0.000156038
-0.000351679
0.00017209
-0.000378737
0.000185765
-0.000404312
0.000197261
-0.000430062
0.00020728
-0.000456916
-0.000489157
0.000216802
-1.40851e-06
1.4583e-05
-4.08586e-06
2.40338e-05
-5.36244e-06
2.73221e-05
-4.90456e-06
2.68359e-05
1.34917e-05
-9.97269e-06
5.36163e-05
-0.000114854
8.87842e-05
-0.000216878
0.000117055
-0.000288989
0.000138334
-0.000335818
0.00015451
-0.000367855
0.000167804
-0.000392031
0.000179275
-0.000415784
0.000189229
-0.000440016
0.00019907
-0.000466758
-0.000497495
0.000207409
-3.97677e-07
1.49807e-05
-1.47561e-06
2.51118e-05
-1.15886e-06
2.70053e-05
2.23e-06
2.3447e-05
2.79266e-05
-3.56693e-05
6.7072e-05
-0.000153999
9.85683e-05
-0.000248374
0.000121865
-0.000312285
0.000138872
-0.000352826
0.0001519
-0.000380883
0.000162748
-0.000402879
0.000172663
-0.000425699
0.000181805
-0.000449158
0.000190188
-0.000475141
-0.000505118
0.00019781
3.7149e-07
1.46092e-05
8.05827e-07
2.46774e-05
1.92719e-06
2.5884e-05
1.03993e-05
1.49749e-05
4.32732e-05
-6.85432e-05
7.80935e-05
-0.00018882
0.000105179
-0.00027546
0.00012416
-0.000331266
0.000137724
-0.000366389
0.000148149
-0.000391308
0.00015739
-0.00041212
0.000166043
-0.000434352
0.000173911
-0.000457025
0.00018196
-0.000483191
-0.000512404
0.000189247
8.73061e-07
1.37361e-05
2.15734e-06
2.33931e-05
3.5038e-06
2.45375e-05
1.78328e-05
6.4591e-07
5.56444e-05
-0.000106355
8.65052e-05
-0.00021968
0.000109075
-0.00029803
0.000124394
-0.000346585
0.000135217
-0.000377212
0.000143878
-0.000399969
0.000151726
-0.000419967
0.000159215
-0.000441841
0.000166597
-0.000464407
0.000173691
-0.000490285
-0.000518474
0.000179761
1.07005e-06
1.26661e-05
2.89968e-06
2.15635e-05
4.74702e-06
2.26902e-05
2.62768e-05
-2.08838e-05
6.40812e-05
-0.000144159
9.21959e-05
-0.000247795
0.000110818
-0.000316652
0.000123045
-0.000358812
0.000131819
-0.000385987
0.000138998
-0.000407147
0.000145834
-0.000426804
0.000152594
-0.0004486
0.000158987
-0.0004708
0.000165441
-0.000496739
-0.000524496
0.000171463
1.12997e-06
1.15361e-05
2.99994e-06
1.96935e-05
7.12607e-06
1.8564e-05
3.62253e-05
-4.99831e-05
7.08907e-05
-0.000178825
9.55095e-05
-0.000272414
0.000110827
-0.00033197
0.000120589
-0.000368573
0.00012769
-0.000393088
0.000133852
-0.00041331
0.000139886
-0.000432839
0.000145737
-0.000454451
0.000151679
-0.000476742
0.000157595
-0.000502655
-0.000529331
0.00016243
9.55617e-07
1.05805e-05
1.86557e-06
1.87836e-05
1.08985e-05
9.53114e-06
4.59806e-05
-8.50652e-05
7.6037e-05
-0.000208881
9.66751e-05
-0.000293052
0.000109264
-0.000344559
0.000117167
-0.000376476
0.000123112
-0.000399033
0.000128424
-0.000418621
0.000133722
-0.000438137
0.000139082
-0.00045981
0.000144335
-0.000481996
0.000149433
-0.000507753
-0.000534094
0.000154196
5.4591e-07
1.00346e-05
2.97847e-07
1.90317e-05
1.51821e-05
-5.35313e-06
5.31082e-05
-0.000122991
7.95376e-05
-0.000235311
9.64939e-05
-0.000310008
0.000106711
-0.000354776
0.000113197
-0.000382962
0.000118192
-0.000404028
0.000122844
-0.000423273
0.000127621
-0.000442914
0.000132278
-0.000464468
0.000137007
-0.000486725
0.000141768
-0.000512514
-0.000538121
0.000145795
1.71967e-07
9.86262e-06
1.30329e-07
1.90733e-05
2.17157e-05
-2.69385e-05
5.70767e-05
-0.000158352
8.11682e-05
-0.000259402
9.51931e-05
-0.000324033
0.000103372
-0.000362955
0.000108694
-0.000388285
0.000113021
-0.000408354
0.000117153
-0.000427406
0.000121341
-0.000447101
0.00012557
-0.000468697
0.000129832
-0.000490987
0.000133816
-0.000516497
-0.000541857
0.000137551
-2.32877e-07
1.00955e-05
2.03849e-06
1.68019e-05
2.93981e-05
-5.42981e-05
6.01881e-05
-0.000189142
8.11013e-05
-0.000280315
9.29155e-05
-0.000335847
9.95578e-05
-0.000369597
0.000103992
-0.000392719
0.00010773
-0.000412091
0.000111368
-0.000431044
0.000115147
-0.000450881
0.000118841
-0.000472391
0.000122536
-0.000494682
0.000126196
-0.000520157
-0.000545172
0.000129511
-5.33514e-07
1.0629e-05
5.19458e-06
1.10738e-05
3.66037e-05
-8.57072e-05
6.2536e-05
-0.000215074
7.99129e-05
-0.000297692
8.97642e-05
-0.000345699
9.52797e-05
-0.000375112
9.90244e-05
-0.000396464
0.0001023
-0.000415367
0.000105557
-0.000434301
0.000108848
-0.000454171
0.00011211
-0.000475653
0.000115437
-0.000498008
0.000118468
-0.000523189
-0.000547944
0.00012124
-7.44749e-07
1.13738e-05
8.66985e-06
1.65924e-06
4.15335e-05
-0.000118571
6.39665e-05
-0.000237508
7.80447e-05
-0.00031177
8.60921e-05
-0.000353746
9.07307e-05
-0.000379751
9.39837e-05
-0.000399717
9.68651e-05
-0.000418249
9.97014e-05
-0.000437137
0.000102612
-0.000457082
0.000105449
-0.00047849
0.000108225
-0.000500784
0.000110854
-0.000525818
-0.000550439
0.000113349
-8.67184e-07
1.22409e-05
1.25701e-05
-1.17781e-05
4.38315e-05
-0.000149832
6.42418e-05
-0.000257918
7.57278e-05
-0.000323256
8.21301e-05
-0.000360148
8.59796e-05
-0.0003836
8.88064e-05
-0.000402544
9.13431e-05
-0.000420785
9.38539e-05
-0.000439648
9.63471e-05
-0.000459575
9.87491e-05
-0.000480892
0.00010117
-0.000503204
0.000103312
-0.00052796
-0.000552343
0.000105216
-1.20434e-06
1.34453e-05
1.74218e-05
-3.04042e-05
4.47528e-05
-0.000177163
6.3132e-05
-0.000276297
7.2904e-05
-0.000333028
7.8021e-05
-0.000365265
8.11853e-05
-0.000386765
8.36339e-05
-0.000404992
8.58588e-05
-0.00042301
8.80005e-05
-0.00044179
9.01206e-05
-0.000461695
9.21502e-05
-0.000482922
9.40784e-05
-0.000505133
9.57736e-05
-0.000529655
-0.000553984
9.74147e-05
-8.142e-07
1.42595e-05
2.16073e-05
-5.28257e-05
4.55146e-05
-0.00020107
6.12009e-05
-0.000291983
6.95508e-05
-0.000341378
7.37742e-05
-0.000369489
7.63677e-05
-0.000389358
7.84397e-05
-0.000407064
8.03368e-05
-0.000424908
8.21639e-05
-0.000443617
8.39141e-05
-0.000463445
8.55232e-05
-0.000484531
8.708e-05
-0.000506689
8.83862e-05
-0.000530962
-0.000555116
8.95185e-05
2.71307e-07
1.39882e-05
2.49928e-05
-7.75472e-05
4.56903e-05
-0.000221768
5.88713e-05
-0.000305164
6.58401e-05
-0.000348347
6.93952e-05
-0.000373044
7.15698e-05
-0.000391533
7.33012e-05
-0.000408795
7.48829e-05
-0.000426489
7.63576e-05
-0.000445091
7.77362e-05
-0.000464824
7.89903e-05
-0.000485785
8.01138e-05
-0.000507813
8.09771e-05
-0.000531825
-0.000555972
8.18328e-05
1.48462e-06
1.25036e-05
2.73504e-05
-0.000103413
4.54363e-05
-0.000239854
5.63051e-05
-0.000316033
6.19828e-05
-0.000354025
6.49411e-05
-0.000376002
6.67647e-05
-0.000393357
6.81829e-05
-0.000410214
6.94339e-05
-0.00042774
7.05782e-05
-0.000446236
7.16049e-05
-0.000465851
7.24595e-05
-0.00048664
7.31989e-05
-0.000508552
7.37163e-05
-0.000532342
-0.000556429
7.41732e-05
3.36789e-06
9.13567e-06
2.8628e-05
-0.000128673
4.47933e-05
-0.000256019
5.36211e-05
-0.000324861
5.80987e-05
-0.000358502
6.04787e-05
-0.000378382
6.19822e-05
-0.00039486
6.31122e-05
-0.000411344
6.40553e-05
-0.000428683
6.48543e-05
-0.000447035
6.55096e-05
-0.000466506
6.60083e-05
-0.000487139
6.63545e-05
-0.000508899
6.64518e-05
-0.00053244
-0.000556527
6.65495e-05
5.73907e-06
3.3966e-06
2.87741e-05
-0.000151708
4.36278e-05
-0.000270873
5.08489e-05
-0.000332082
5.42517e-05
-0.000361905
5.60645e-05
-0.000380195
5.72303e-05
-0.000396026
5.80703e-05
-0.000412184
5.86993e-05
-0.000429312
5.91648e-05
-0.0004475
5.94729e-05
-0.000466814
5.95897e-05
-0.000487255
5.95472e-05
-0.000508856
5.92861e-05
-0.000532179
-0.000556187
5.89461e-05
8.55364e-06
-5.15704e-06
2.87801e-05
-0.000171935
4.1877e-05
-0.00028397
4.79141e-05
-0.000338119
5.04432e-05
-0.000364434
5.17227e-05
-0.000381475
5.25396e-05
-0.000396843
5.30823e-05
-0.000412726
5.34082e-05
-0.000429638
5.35411e-05
-0.000447633
5.34847e-05
-0.000466758
5.32404e-05
-0.000487011
5.28197e-05
-0.000508435
5.21445e-05
-0.000531503
-0.000555412
5.13702e-05
1.09748e-05
-1.61318e-05
2.87919e-05
-0.000189752
3.98356e-05
-0.000295013
4.47619e-05
-0.000343046
4.66336e-05
-0.000366306
4.74547e-05
-0.000382296
4.79158e-05
-0.000397304
4.81464e-05
-0.000412957
4.81582e-05
-0.00042965
4.79606e-05
-0.000447435
4.75602e-05
-0.000466357
4.69435e-05
-0.000486394
4.61304e-05
-0.000507622
4.50842e-05
-0.000530457
-0.000554216
4.38878e-05
1.27122e-05
-2.88441e-05
2.84163e-05
-0.000205456
3.75756e-05
-0.000304173
4.14523e-05
-0.000346922
4.27903e-05
-0.000367644
4.32383e-05
-0.000382744
4.33677e-05
-0.000397433
4.32814e-05
-0.000412871
4.29791e-05
-0.000429348
4.24533e-05
-0.00044691
4.16976e-05
-0.000465602
4.07143e-05
-0.000485411
3.95205e-05
-0.000506429
3.80769e-05
-0.000529014
-0.000552583
3.64435e-05
1.36731e-05
-4.25171e-05
2.76267e-05
-0.000219409
3.51547e-05
-0.000311701
3.80774e-05
-0.000349845
3.89468e-05
-0.000368513
3.90723e-05
-0.000382869
3.8889e-05
-0.00039725
3.84853e-05
-0.000412467
3.78611e-05
-0.000428724
3.70032e-05
-0.000446052
3.59058e-05
-0.000464504
3.4557e-05
-0.000484062
3.29665e-05
-0.000504838
3.11357e-05
-0.000527183
-0.000550544
2.90969e-05
1.39466e-05
-5.64637e-05
2.64383e-05
-0.000231901
3.25931e-05
-0.000317856
3.4695e-05
-0.000351947
3.51346e-05
-0.000368953
3.49584e-05
-0.000382693
3.44803e-05
-0.000396772
3.37662e-05
-0.000411753
3.28213e-05
-0.000427779
3.16338e-05
-0.000444864
3.01893e-05
-0.00046306
2.84813e-05
-0.000482354
2.6511e-05
-0.000502868
2.42514e-05
-0.000524923
-0.000548093
2.18006e-05
1.37471e-05
-7.02108e-05
2.49414e-05
-0.000243096
2.99386e-05
-0.000322853
3.1339e-05
-0.000353347
3.13805e-05
-0.000368994
3.09107e-05
-0.000382223
3.01423e-05
-0.000396003
2.9121e-05
-0.000410732
2.78549e-05
-0.000426513
2.63343e-05
-0.000443344
2.45503e-05
-0.000461276
2.24929e-05
-0.000480297
2.01537e-05
-0.000500529
1.74394e-05
-0.000522209
-0.000545242
1.45883e-05
1.32393e-05
-8.34501e-05
2.3215e-05
-0.000253071
2.72189e-05
-0.000326857
2.80242e-05
-0.000354152
2.76994e-05
-0.00036867
2.69368e-05
-0.000381461
2.58803e-05
-0.000394947
2.45558e-05
-0.000409407
2.29711e-05
-0.000424928
2.1121e-05
-0.000441493
1.89941e-05
-0.000459149
1.65867e-05
-0.000477889
1.39083e-05
-0.00049785
1.07621e-05
-0.000519063
-0.000541873
7.39317e-06
1.25291e-05
-9.59792e-05
2.13414e-05
-0.000261884
2.44778e-05
-0.000329993
2.4769e-05
-0.000354444
2.41038e-05
-0.000368004
2.30483e-05
-0.000380405
2.16995e-05
-0.000393598
2.00709e-05
-0.000407778
1.81681e-05
-0.000423025
1.59866e-05
-0.000439312
1.35194e-05
-0.000456681
1.07663e-05
-0.000475136
7.7279e-06
-0.000494812
4.336e-06
-0.000515671
-0.000537465
-7.17169e-08
1.16781e-05
-0.000107657
1.93773e-05
-0.000269583
2.17472e-05
-0.000332363
2.15871e-05
-0.000354284
2.06006e-05
-0.000367018
1.92494e-05
-0.000379054
1.76046e-05
-0.000391953
1.56714e-05
-0.000405845
1.34515e-05
-0.000420805
1.09414e-05
-0.000436802
8.13072e-06
-0.000453871
5.02927e-06
-0.000472035
1.52679e-06
-0.000491309
-1.93091e-06
-0.000512213
-0.000532943
-6.45267e-06
1.06711e-05
-0.000118328
1.73742e-05
-0.000276286
1.90658e-05
-0.000334054
1.84953e-05
-0.000353713
1.71961e-05
-0.000365719
1.55461e-05
-0.000377404
1.35996e-05
-0.000390007
1.13571e-05
-0.000403603
8.81971e-06
-0.000418268
5.97763e-06
-0.00043396
2.82429e-06
-0.000450717
-6.63574e-07
-0.000468547
-4.32634e-06
-0.000487647
-8.48638e-06
-0.000508053
-0.00052842
-1.30098e-05
9.63177e-06
-0.00012796
1.53808e-05
-0.000282035
1.64541e-05
-0.000335128
1.55033e-05
-0.000352762
1.38918e-05
-0.000364107
1.19387e-05
-0.000375451
9.68549e-06
-0.000387753
7.12797e-06
-0.000401045
4.26971e-06
-0.000415409
1.08755e-06
-0.000430778
-2.36786e-06
-0.000447262
-6.10283e-06
-0.000464812
-1.01152e-05
-0.000483634
-1.47634e-05
-0.000503405
-0.000523648
-1.95356e-05
8.6792e-06
-0.000136639
1.3442e-05
-0.000286798
1.39248e-05
-0.000335611
1.26063e-05
-0.000351444
1.0687e-05
-0.000362188
8.42861e-06
-0.000373193
5.86119e-06
-0.000385186
2.97649e-06
-0.000398161
-2.32201e-07
-0.000412201
-3.66874e-06
-0.000427341
-7.4391e-06
-0.000443492
-1.14924e-05
-0.000460759
-1.58888e-05
-0.000479238
-2.08748e-05
-0.000498419
-0.000518553
-2.5969e-05
7.75564e-06
-0.000144395
1.15768e-05
-0.000290619
1.14881e-05
-0.000335522
9.8066e-06
-0.000349762
7.58059e-06
-0.000359962
5.00989e-06
-0.000370622
2.11324e-06
-0.000382289
-1.0809e-06
-0.000394966
-4.5283e-06
-0.000408753
-8.32363e-06
-0.000423546
-1.24158e-05
-0.0004394
-1.68103e-05
-0.000456364
-2.16059e-05
-0.000474442
-2.68578e-05
-0.000493167
-0.0005131
-3.2311e-05
6.85845e-06
-0.000151253
9.79338e-06
-0.000293554
9.148e-06
-0.000334877
7.10857e-06
-0.000347723
4.56945e-06
-0.000357423
1.66707e-06
-0.000367719
-1.52088e-06
-0.000379101
-4.98163e-06
-0.000391506
-8.77104e-06
-0.000404964
-1.28851e-05
-0.000419432
-1.7301e-05
-0.000434984
-2.20428e-05
-0.000451622
-2.72174e-05
-0.000469268
-3.27357e-05
-0.000487649
-0.000507294
-3.85418e-05
5.99402e-06
-0.000157247
8.09497e-06
-0.000295655
6.9112e-06
-0.000333693
4.51494e-06
-0.000345327
1.63847e-06
-0.000354546
-1.55218e-06
-0.000364529
-5.01705e-06
-0.000375637
-8.80859e-06
-0.000387714
-1.29217e-05
-0.000400851
-1.73508e-05
-0.000415003
-2.20917e-05
-0.000430243
-2.71772e-05
-0.000446537
-3.26724e-05
-0.000463772
-3.85118e-05
-0.000481809
-0.000501134
-4.46717e-05
5.16771e-06
-0.000162415
6.48138e-06
-0.000296968
4.78299e-06
-0.000331994
2.01965e-06
-0.000342563
-1.17332e-06
-0.000351353
-4.63632e-06
-0.000361066
-8.43144e-06
-0.000371841
-1.25449e-05
-0.000383601
-1.69762e-05
-0.000396419
-2.17225e-05
-0.000410256
-2.67875e-05
-0.000425178
-3.22039e-05
-0.000441121
-3.80152e-05