/*--------------------------------*- C++ -*----------------------------------*\
  =========                 |
  \\      /  F ield         | OpenFOAM: The Open Source CFD Toolbox
   \\    /   O peration     | Website:  https://openfoam.org
    \\  /    A nd           | Version:  7
     \\/     M anipulation  |
\*---------------------------------------------------------------------------*/
FoamFile
{
    version     2.0;
    format      ascii;
    class       surfaceScalarField;
    location    "20.0013";
    object      phi;
}
// * * * * * * * * * * * * * * * * * * * * * * * * * * * * * * * * * * * * * //

dimensions      [0 3 -1 0 0 0 0];

internalField   nonuniform List<scalar> 
37105
(
-1.18456e-05
1.19248e-05
-7.91894e-08
-2.75043e-05
1.57645e-05
-1.05748e-07
-4.37226e-05
1.63289e-05
-1.1067e-07
-6.06682e-05
1.70616e-05
-1.16015e-07
-7.84057e-05
1.78589e-05
-1.21415e-07
-9.6963e-05
1.86841e-05
-1.26715e-07
-0.000116344
1.95124e-05
-1.31782e-07
-0.000136524
2.0317e-05
-1.36417e-07
-0.000157482
2.10985e-05
-1.40534e-07
-0.000179202
2.18637e-05
-1.43997e-07
-0.00020169
2.26349e-05
-1.46634e-07
-0.000224955
2.3413e-05
-1.48003e-07
-0.000249004
2.41964e-05
-1.47505e-07
-0.000273862
2.50026e-05
-1.44644e-07
2.5928e-05
-1.39322e-07
-0.000299651
-1.16583e-05
2.3583e-05
-2.71355e-05
3.12417e-05
-4.31733e-05
3.23667e-05
-5.99183e-05
3.38067e-05
-7.74303e-05
3.53709e-05
-9.57288e-05
3.69826e-05
-0.000114809
3.85924e-05
-0.000134638
4.01461e-05
-0.000155183
4.16438e-05
-0.000176417
4.30969e-05
-0.000198333
4.45511e-05
-0.000220934
4.60147e-05
-0.00024423
4.74918e-05
-0.00026824
4.90124e-05
5.07465e-05
-0.000293058
-1.12879e-05
3.48709e-05
-2.64067e-05
4.63605e-05
-4.2089e-05
4.8049e-05
-5.84411e-05
5.01587e-05
-7.55138e-05
5.24437e-05
-9.33112e-05
5.478e-05
-0.000111813
5.70945e-05
-0.000130972
5.93051e-05
-0.000150737
6.14091e-05
-0.000171061
6.342e-05
-0.000191918
6.54083e-05
-0.000213303
6.74001e-05
-0.000235229
6.94178e-05
-0.000257711
7.14944e-05
7.38278e-05
-0.000280793
-1.07423e-05
4.56132e-05
-2.5333e-05
6.09513e-05
-4.04934e-05
6.32094e-05
-5.62739e-05
6.59392e-05
-7.27134e-05
6.88831e-05
-8.97952e-05
7.18618e-05
-0.000107481
7.47799e-05
-0.000125703
7.75279e-05
-0.000144394
8.00992e-05
-0.000163481
8.25071e-05
-0.000182922
8.48493e-05
-0.000202704
8.71824e-05
-0.000222848
8.95619e-05
-0.00024337
9.2016e-05
9.47251e-05
-0.000264267
-1.00358e-05
5.56491e-05
-2.39348e-05
7.48503e-05
-3.84185e-05
7.7693e-05
-5.34681e-05
8.09888e-05
-6.9106e-05
8.4521e-05
-8.52926e-05
8.80483e-05
-0.000101969
9.14567e-05
-0.000119052
9.46106e-05
-0.000136454
9.75007e-05
-0.000154086
0.000100139
-0.000171891
0.000102654
-0.000189853
0.000105144
-0.000208006
0.000107715
-0.000226379
0.000110389
0.000113298
-0.000244951
-9.20217e-06
6.48512e-05
-2.22356e-05
8.78837e-05
-3.5902e-05
9.13594e-05
-5.00837e-05
9.51705e-05
-6.47805e-05
9.92178e-05
-7.99291e-05
0.000103197
-9.54527e-05
0.00010698
-0.000111252
0.00011041
-0.000127228
0.000113477
-0.000143283
0.000116194
-0.000159349
0.000118721
-0.000175413
0.000121208
-0.000191524
0.000123826
-0.000207743
0.000126608
0.000129613
-0.000224059
-8.20956e-06
7.30608e-05
-2.02472e-05
9.99214e-05
-3.29842e-05
0.000104096
-4.61863e-05
0.000108373
-5.9831e-05
0.000112863
-7.38343e-05
0.0001172
-8.81041e-05
0.00012125
-0.00010253
0.000124836
-0.000117008
0.000127954
-0.000131436
0.000130621
-0.000145746
0.000133031
-0.000159927
0.000135389
-0.000174047
0.000137946
-0.000188204
0.000140765
0.000143824
-0.000202415
-7.06466e-06
8.01254e-05
-1.79884e-05
0.000110845
-2.97069e-05
0.000115815
-4.18427e-05
0.000120508
-5.43514e-05
0.000125371
-6.71337e-05
0.000129983
-8.0086e-05
0.000134202
-9.30916e-05
0.000137842
-0.000106044
0.000140907
-0.000118846
0.000143424
-0.000131434
0.000145619
-0.000143799
0.000147754
-0.000156017
0.000150164
-0.000168219
0.000152967
0.000156063
-0.000180458
-5.7869e-06
8.59123e-05
-1.54847e-05
0.000120543
-2.61143e-05
0.000126444
-3.71189e-05
0.000131513
-4.84313e-05
0.000136684
-5.99436e-05
0.000141495
-7.15443e-05
0.000145803
-8.3113e-05
0.000149411
-9.45449e-05
0.000152339
-0.000105751
0.000154629
-0.000116673
0.000156542
-0.0001273
0.000158381
-0.000137701
0.000160565
-0.000148021
0.000163287
0.000166385
-0.000158343
-4.38927e-06
9.03016e-05
-1.27641e-05
0.000128918
-2.22524e-05
0.000135933
-3.20778e-05
0.000141338
-4.21539e-05
0.00014676
-5.23692e-05
0.00015171
-6.26064e-05
0.00015604
-7.27431e-05
0.000159547
-8.26771e-05
0.000162273
-9.23264e-05
0.000164279
-0.00010164
0.000165855
-0.000110599
0.00016734
-0.000119243
0.000169209
-0.000127701
0.000171746
0.000174768
-0.000136085
-2.87752e-06
9.31791e-05
-9.85967e-06
0.0001359
-1.81653e-05
0.000144238
-2.67782e-05
0.000149951
-3.55955e-05
0.000155577
-4.45039e-05
0.000160619
-5.33813e-05
0.000164918
-6.21041e-05
0.00016827
-7.05713e-05
0.00017074
-7.87051e-05
0.000172412
-8.64579e-05
0.000173608
-9.38005e-05
0.000174682
-0.000100727
0.000176136
-0.0001073
0.000178319
0.000181142
-0.000113674
-1.23726e-06
9.44164e-05
-6.81437e-06
0.000141477
-1.38947e-05
0.000151319
-2.12738e-05
0.00015733
-2.88248e-05
0.000163128
-3.64306e-05
0.000168224
-4.39625e-05
0.00017245
-5.12964e-05
0.000175604
-5.83312e-05
0.000177775
-6.49869e-05
0.000179068
-7.12121e-05
0.000179833
-7.69696e-05
0.00018044
-8.22054e-05
0.000181371
-8.68661e-05
0.00018298
0.000185413
-9.11365e-05
4.63917e-07
9.39525e-05
-3.67939e-06
0.00014562
-9.4708e-06
0.00015711
-1.56146e-05
0.000163474
-2.19054e-05
0.000169419
-2.82227e-05
0.000174542
-3.44302e-05
0.000178657
-4.04041e-05
0.000181578
-4.60403e-05
0.000183411
-5.12523e-05
0.00018428
-5.59734e-05
0.000184554
-6.0158e-05
0.000184625
-6.37383e-05
0.000184952
-6.65088e-05
0.000185751
0.000187392
-6.84879e-05
2.00876e-06
9.19437e-05
-5.17254e-07
0.000148146
-4.93192e-06
0.000161525
-9.85214e-06
0.000168394
-1.48943e-05
0.000174461
-1.99472e-05
0.000179595
-2.4856e-05
0.000183566
-2.95007e-05
0.000186223
-3.37708e-05
0.000187681
-3.75704e-05
0.00018808
-4.08092e-05
0.000187793
-4.34153e-05
0.000187231
-4.53507e-05
0.000186887
-4.63787e-05
0.000186778
0.000186753
-4.57393e-05
3.66226e-06
8.82815e-05
2.86065e-06
0.000148948
-3.65439e-07
0.000164751
-4.03497e-06
0.000172064
-7.85199e-06
0.000178278
-1.16662e-05
0.000183409
-1.53049e-05
0.000187205
-1.86532e-05
0.000189571
-2.15877e-05
0.000190615
-2.40033e-05
0.000190495
-2.57864e-05
0.000189576
-2.68164e-05
0.000188261
-2.70274e-05
0.000187098
-2.64048e-05
0.000186156
0.000184021
-2.36736e-05
5.33577e-06
8.29457e-05
6.24725e-06
0.000148037
4.4115e-06
0.000166587
1.82875e-06
0.000174647
-8.73488e-07
0.00018098
-3.44814e-06
0.000185983
-5.8506e-06
0.000189607
-7.93239e-06
0.000191653
-9.5611e-06
0.000192244
-1.06152e-05
0.000191549
-1.09662e-05
0.000189927
-1.04554e-05
0.00018775
-8.93964e-06
0.000185582
-6.30758e-06
0.000183524
0.00018029
-2.57613e-06
6.96278e-06
7.59829e-05
9.61965e-06
0.00014538
9.13391e-06
0.000167072
7.74182e-06
0.000176039
6.21551e-06
0.000182506
4.74668e-06
0.000187452
3.49987e-06
0.000190854
2.62134e-06
0.000192531
2.25154e-06
0.000192614
2.53337e-06
0.000191268
3.59439e-06
0.000188866
5.61788e-06
0.000185726
8.76041e-06
0.00018244
1.30373e-05
0.000179247
0.000174442
1.88849e-05
8.47375e-06
6.75092e-05
1.29096e-05
0.000140944
1.38066e-05
0.000166175
1.35677e-05
0.000176278
1.31495e-05
0.000182925
1.28152e-05
0.000187787
1.27259e-05
0.000190943
1.30297e-05
0.000192227
1.38824e-05
0.000191761
1.54345e-05
0.000189715
1.78299e-05
0.000186471
2.13072e-05
0.000182249
2.61258e-05
0.000177621
3.19316e-05
0.000173441
0.000166687
3.96873e-05
9.7752e-06
5.7734e-05
1.60201e-05
0.000134699
1.83743e-05
0.000163821
1.92827e-05
0.000175369
1.99253e-05
0.000182282
2.06653e-05
0.000187046
2.16756e-05
0.000189933
2.31112e-05
0.000190792
2.51421e-05
0.00018973
2.79492e-05
0.000186908
3.16679e-05
0.000182752
3.65137e-05
0.000177403
4.3017e-05
0.000171118
5.04498e-05
0.000166008
0.000157349
5.97876e-05
1.07332e-05
4.70008e-05
1.88292e-05
0.000126603
2.27577e-05
0.000159893
2.48393e-05
0.000173288
2.65063e-05
0.000180615
2.82631e-05
0.00018529
3.03198e-05
0.000187876
3.28383e-05
0.000188273
3.59956e-05
0.000186573
4.00198e-05
0.000182884
4.50608e-05
0.000177711
5.11625e-05
0.000171302
5.9333e-05
0.000162948
6.8481e-05
0.00015686
0.000146511
7.93187e-05
1.11634e-05
3.58374e-05
2.11936e-05
0.000116573
2.68561e-05
0.00015423
3.01683e-05
0.000169975
3.28398e-05
0.000177944
3.55643e-05
0.000182565
3.8611e-05
0.00018483
4.21584e-05
0.000184726
4.63825e-05
0.000182349
5.15567e-05
0.00017771
5.79453e-05
0.000171322
6.52057e-05
0.000164041
7.49161e-05
0.000153237
8.58243e-05
0.000145952
0.000133952
9.83839e-05
1.08653e-05
2.49721e-05
2.29695e-05
0.000104468
3.05381e-05
0.000146662
3.51769e-05
0.000165337
3.88665e-05
0.000174254
4.25194e-05
0.000178912
4.64935e-05
0.000180856
5.10144e-05
0.000180205
5.62492e-05
0.000177114
6.24431e-05
0.000171516
7.02316e-05
0.000163534
7.85833e-05
0.000155689
8.96894e-05
0.000142131
0.000102338
0.000133303
0.000119323
0.000116967
9.75811e-06
1.5214e-05
2.40248e-05
9.02018e-05
3.36299e-05
0.000137056
3.97469e-05
0.00015922
4.45154e-05
0.000169486
4.90764e-05
0.000174351
5.39102e-05
0.000176022
5.93312e-05
0.000174784
6.5559e-05
0.000170886
7.25968e-05
0.000164478
8.18171e-05
0.000154314
9.12998e-05
0.000146207
0.000103511
0.000129919
0.000117601
0.000119213
0.000101927
0.000134997
8.02865e-06
7.18538e-06
2.41928e-05
7.40377e-05
3.59199e-05
0.000125329
4.3739e-05
0.000151401
4.97028e-05
0.000163522
5.51695e-05
0.000168884
6.08024e-05
0.000170389
6.70197e-05
0.000168567
7.42689e-05
0.000163637
8.19762e-05
0.000156771
9.25255e-05
0.000143764
0.00010335
0.000135382
0.000116818
0.000116452
0.000131281
0.00010475
8.15657e-05
0.000151642
6.02976e-06
1.15563e-06
2.32442e-05
5.68232e-05
3.71859e-05
0.000111388
4.6986e-05
0.0001416
5.43076e-05
0.0001562
6.07161e-05
0.000162476
6.71178e-05
0.000163987
7.3954e-05
0.00016173
8.22912e-05
0.0001553
9.05808e-05
0.000148481
0.000102159
0.000132186
0.000114297
0.000123245
0.000129956
0.000100792
0.000144401
9.03053e-05
5.91416e-05
0.000166825
4.03934e-06
-2.88371e-06
2.09773e-05
3.98853e-05
3.72201e-05
9.51449e-05
4.92819e-05
0.000129539
5.81614e-05
0.000147321
6.55776e-05
0.00015506
7.28086e-05
0.000156756
8.00869e-05
0.000154452
8.94585e-05
0.000145928
9.84569e-05
0.000139483
0.000110773
0.00011987
0.000123611
0.000110407
0.000142004
8.23986e-05
0.000157249
7.50607e-05
3.49653e-05
0.000181425
2.22383e-06
-5.10754e-06
1.74713e-05
2.46378e-05
3.58545e-05
7.67617e-05
5.0325e-05
0.000115068
6.10259e-05
0.00013662
6.95693e-05
0.000146516
7.77422e-05
0.000148583
8.53634e-05
0.000146831
9.55474e-05
0.000135744
0.000105495
0.000129535
0.000118686
0.000106678
0.000131677
9.74166e-05
0.000152111
6.19654e-05
0.000168905
5.82662e-05
8.96961e-06
0.000194901
8.51874e-07
-5.95941e-06
1.32287e-05
1.22609e-05
3.29652e-05
5.70252e-05
4.97547e-05
9.82787e-05
6.2578e-05
0.000123796
7.24054e-05
0.000136689
8.17306e-05
0.000139258
8.97696e-05
0.000138792
0.000100249
0.000125265
0.000111253
0.000118532
0.000125571
9.23604e-05
0.00013913
8.38568e-05
0.000160345
4.07505e-05
0.000179054
3.95573e-05
-1.85715e-05
0.000206595
1.08029e-07
-6.06744e-06
9.11982e-06
3.24915e-06
2.83433e-05
3.78017e-05
4.71611e-05
7.94609e-05
6.24454e-05
0.000108512
7.3749e-05
0.000125385
8.4309e-05
0.000128698
9.32969e-05
0.000129804
0.000103638
0.000114924
0.000115253
0.000106917
0.000130335
7.72777e-05
0.000145886
6.83061e-05
0.000165439
2.11975e-05
0.000187851
1.71454e-05
-4.66124e-05
0.000215892
-1.77661e-07
-5.88978e-06
5.71468e-06
-2.6432e-06
2.22804e-05
2.1236e-05
4.22921e-05
5.94492e-05
6.00866e-05
9.07177e-05
7.32729e-05
0.000112199
8.49185e-05
0.000117052
9.52072e-05
0.000119515
0.000105727
0.000104404
0.000118224
9.44207e-05
0.000131307
6.41942e-05
0.000151136
4.84773e-05
0.000166143
6.19092e-06
0.000194793
-1.15047e-05
-7.12266e-05
0.000219407
-1.56885e-07
-5.73289e-06
3.43884e-06
-6.23892e-06
1.6015e-05
8.65981e-06
3.53455e-05
4.01188e-05
5.5007e-05
7.10562e-05
7.03135e-05
9.68926e-05
8.31747e-05
0.000104191
9.47908e-05
0.000107899
0.000105022
9.41727e-05
0.00011995
7.94931e-05
0.000130316
5.38278e-05
0.000153349
2.5444e-05
0.000166258
-6.71803e-06
0.000196205
-4.14516e-05
-8.85978e-05
0.000213576
6.58448e-08
-5.79874e-06
2.42611e-06
-8.59919e-06
1.09278e-05
1.58121e-07
2.73163e-05
2.37303e-05
4.7074e-05
5.12985e-05
6.43726e-05
7.95939e-05
7.78914e-05
9.06724e-05
9.19945e-05
9.3796e-05
0.000101088
8.50788e-05
0.000118617
6.19642e-05
0.000126733
4.57124e-05
0.000152619
-4.42118e-07
0.000161295
-1.53939e-05
0.000193754
-7.39109e-05
-0.000101889
0.000207045
3.85832e-07
-6.18457e-06
2.26975e-06
-1.04831e-05
7.69404e-06
-5.26617e-06
1.98941e-05
1.15302e-05
3.71408e-05
3.40517e-05
5.52493e-05
6.14854e-05
6.91992e-05
7.67225e-05
8.42601e-05
7.87351e-05
9.46445e-05
7.46945e-05
0.00011098
4.56282e-05
0.000122062
3.46307e-05
0.000145482
-2.38623e-05
0.000154028
-2.39401e-05
0.000189106
-0.000108988
-0.000100411
0.000187629
7.19167e-07
-6.90374e-06
2.415e-06
-1.21789e-05
5.95999e-06
-8.81117e-06
1.4107e-05
3.38321e-06
2.70222e-05
2.11366e-05
4.34356e-05
4.5072e-05
5.75453e-05
6.26128e-05
7.13003e-05
6.498e-05
8.3265e-05
6.27298e-05
9.67547e-05
3.21385e-05
0.000110234
2.11514e-05
0.000123869
-3.74968e-05
0.000139043
-3.91142e-05
0.000162948
-0.000132894
-0.000114556
0.000177093
9.18582e-07
-7.82232e-06
2.3765e-06
-1.36369e-05
4.727e-06
-1.11617e-05
9.67049e-06
-1.56028e-06
1.80306e-05
1.27764e-05
3.04021e-05
3.27006e-05
4.30934e-05
4.99214e-05
5.44821e-05
5.35913e-05
6.54506e-05
5.17614e-05
7.68589e-05
2.07302e-05
8.95317e-05
8.47856e-06
9.78738e-05
-4.58388e-05
0.000123842
-6.50829e-05
0.000143485
-0.000152536
-0.000172058
0.000200987
8.61801e-07
-8.68412e-06
1.80182e-06
-1.45769e-05
3.05756e-06
-1.24174e-05
5.56631e-06
-4.06904e-06
1.00337e-05
8.30907e-06
1.76593e-05
2.5075e-05
2.70012e-05
4.05795e-05
3.5537e-05
4.50556e-05
4.39036e-05
4.33947e-05
5.18412e-05
1.27925e-05
6.64329e-05
-6.11313e-06
8.5829e-05
-6.52349e-05
0.000129486
-0.00010874
0.000174612
-0.000197662
-0.000240746
0.0002433
4.89543e-07
-9.17366e-06
5.38685e-07
-1.4626e-05
4.5865e-07
-1.23374e-05
8.74657e-07
-4.48505e-06
2.10286e-06
7.08087e-06
5.48278e-06
2.16951e-05
1.02894e-05
3.57728e-05
1.537e-05
3.9975e-05
2.0742e-05
3.80226e-05
2.93787e-05
4.15586e-06
5.77797e-05
-3.45141e-05
9.87772e-05
-0.000106232
0.000158449
-0.000168412
0.000208714
-0.000247927
-0.000288382
0.000256351
-1.77352e-07
-8.99631e-06
-1.30309e-06
-1.35003e-05
-2.86985e-06
-1.07706e-05
-4.46989e-06
-2.88501e-06
-5.99129e-06
8.60228e-06
-6.81373e-06
2.25175e-05
-6.74886e-06
3.5708e-05
-4.79344e-06
3.80196e-05
3.64194e-06
2.95872e-05
2.69613e-05
-1.91635e-05
7.54542e-05
-8.30071e-05
0.000129804
-0.000160582
0.000186776
-0.000225384
0.000224059
-0.00028521
-0.000323485
0.000259162
-1.03387e-06
-7.96244e-06
-3.49596e-06
-1.10382e-05
-6.68203e-06
-7.58454e-06
-1.02917e-05
7.24622e-07
-1.42918e-05
1.26024e-05
-1.85745e-05
2.68002e-05
-2.17381e-05
3.88716e-05
-1.81808e-05
3.44623e-05
5.06569e-06
6.34078e-06
4.93232e-05
-6.3421e-05
0.000106496
-0.00014018
0.00015756
-0.000211646
0.000200452
-0.000268276
0.000231086
-0.000315844
-0.000352651
0.000260251
-1.90452e-06
-6.05793e-06
-5.61775e-06
-7.32495e-06
-1.02524e-05
-2.94986e-06
-1.54241e-05
5.89626e-06
-2.10013e-05
1.81797e-05
-2.61141e-05
3.1913e-05
-2.78024e-05
4.05599e-05
-1.41824e-05
2.08423e-05
2.61748e-05
-3.40164e-05
8.00522e-05
-0.000117298
0.000132292
-0.00019242
0.000174048
-0.000253402
0.000208084
-0.000302311
0.000234427
-0.000342187
-0.000373696
0.000255472
-2.57103e-06
-3.4869e-06
-7.1528e-06
-2.74318e-06
-1.25856e-05
2.48291e-06
-1.82994e-05
1.16101e-05
-2.35251e-05
2.34054e-05
-2.61145e-05
3.45024e-05
-2.13627e-05
3.58081e-05
6.37885e-06
-6.89929e-06
5.58149e-05
-8.34525e-05
0.000106385
-0.000167868
0.00014984
-0.000235875
0.000184605
-0.000288168
0.000211769
-0.000329475
0.000231738
-0.000362156
-0.000391592
0.000249634
-2.86409e-06
-6.22812e-07
-7.70369e-06
2.09642e-06
-1.30845e-05
7.86368e-06
-1.80243e-05
1.65499e-05
-2.10537e-05
2.64348e-05
-1.93158e-05
3.27645e-05
-5.12166e-06
2.16139e-05
3.31691e-05
-4.519e-05
8.25144e-05
-0.000132798
0.000126392
-0.000211746
0.000162164
-0.000271647
0.000189853
-0.000315857
0.00021064
-0.000350262
0.000227735
-0.000379251
-0.000407108
0.000243251
-2.74324e-06
2.12042e-06
-7.23465e-06
6.58783e-06
-1.17836e-05
1.24126e-05
-1.49614e-05
1.97278e-05
-1.4707e-05
2.61803e-05
-9.03995e-06
2.70975e-05
1.47294e-05
-2.15539e-06
5.88085e-05
-8.92691e-05
0.000103395
-0.000177384
0.000140638
-0.00024899
0.000169103
-0.000300112
0.000190789
-0.000337543
0.00020805
-0.000367523
0.000222335
-0.000393536
-0.000420087
0.000235314
-2.29416e-06
4.41458e-06
-5.99289e-06
1.02866e-05
-9.23366e-06
1.56534e-05
-1.02942e-05
2.07884e-05
-7.03142e-06
2.29175e-05
3.33942e-06
1.67266e-05
3.58203e-05
-3.46362e-05
7.97552e-05
-0.000133204
0.000119086
-0.000216715
0.000149577
-0.000279481
0.000172134
-0.000322669
0.000189624
-0.000355032
0.00020351
-0.000381409
0.000215685
-0.00040571
-0.000432302
0.0002279
-1.67421e-06
6.08879e-06
-4.37606e-06
1.29884e-05
-6.21857e-06
1.74959e-05
-5.31049e-06
1.98803e-05
-7.34705e-07
1.83417e-05
1.60228e-05
-3.09132e-08
5.60455e-05
-7.46589e-05
9.65459e-05
-0.000173704
0.000129755
-0.000249925
0.000154338
-0.000304063
0.000172273
-0.000340604
0.000186207
-0.000368966
0.000197963
-0.000393165
0.000209123
-0.00041687
-0.000443057
0.000219877
-1.04766e-06
7.13645e-06
-2.76911e-06
1.47099e-05
-3.41831e-06
1.81451e-05
-1.18151e-06
1.76435e-05
4.75948e-06
1.24007e-05
2.9525e-05
-2.47964e-05
7.28003e-05
-0.000117934
0.00010903
-0.000209934
0.00013634
-0.000277235
0.00015587
-0.000323593
0.000170137
-0.000354871
0.000181807
-0.000380636
0.000192053
-0.000403411
0.000201897
-0.000426714
-0.000452962
0.000211802
-5.41344e-07
7.6778e-06
-1.45481e-06
1.56233e-05
-1.1637e-06
1.7854e-05
1.33529e-06
1.51445e-05
1.09702e-05
2.76585e-06
4.46167e-05
-5.8443e-05
8.58266e-05
-0.000159144
0.00011744
-0.000241547
0.000139561
-0.000299356
0.000155004
-0.000339036
0.000166659
-0.000366526
0.000176538
-0.000390515
0.000185497
-0.00041237
0.00019468
-0.000435897
-0.000462137
0.000203855
-2.28733e-07
7.90653e-06
-6.08674e-07
1.60033e-05
2.50173e-07
1.69952e-05
2.53047e-06
1.28642e-05
1.90329e-05
-1.37366e-05
5.95258e-05
-9.89359e-05
9.58972e-05
-0.000195516
0.000122295
-0.000267945
0.000140142
-0.000317203
0.000152515
-0.000351409
0.000162145
-0.000376156
0.000170737
-0.000399106
0.000178928
-0.000420562
0.000187346
-0.000444315
-0.000470387
0.000195596
-1.26129e-07
8.03266e-06
-1.44484e-07
1.60216e-05
7.57537e-07
1.60931e-05
4.52211e-06
9.09961e-06
3.0191e-05
-3.94055e-05
7.12086e-05
-0.000139953
0.000102788
-0.000227095
0.000124408
-0.000289564
0.000138777
-0.000331572
0.000148812
-0.000361444
0.000157026
-0.000384371
0.000164666
-0.000406746
0.000172075
-0.000427971
0.000179843
-0.000452082
-0.00047811
0.000187565
-1.9096e-07
8.22362e-06
2.94784e-10
1.58304e-05
3.19968e-07
1.57735e-05
9.50593e-06
-8.63535e-08
4.33922e-05
-7.32918e-05
7.98136e-05
-0.000176375
0.000106728
-0.00025401
0.00012438
-0.000307216
0.000135987
-0.000343179
0.000144336
-0.000369793
0.000151494
-0.000391529
0.00015833
-0.000413581
0.000165183
-0.000434824
0.000172405
-0.000459305
-0.000485049
0.000179345
-3.45928e-07
8.56955e-06
-2.03057e-07
1.56875e-05
9.3631e-08
1.54768e-05
1.63645e-05
-1.63572e-05
5.49509e-05
-0.000111878
8.62282e-05
-0.000207652
0.000108356
-0.000276138
0.000122716
-0.000321576
0.000132231
-0.000352693
0.000139316
-0.000376878
0.000145674
-0.000397887
0.000151897
-0.000419805
0.000158205
-0.000441132
0.000164802
-0.000465902
-0.000491461
0.000171214
-4.77039e-07
9.04659e-06
-4.51514e-07
1.5662e-05
1.97882e-06
1.30464e-05
2.60716e-05
-4.045e-05
6.28171e-05
-0.000148624
9.01877e-05
-0.000235023
0.000108298
-0.000294248
0.000119905
-0.000333183
0.000127785
-0.000360573
0.000133943
-0.000383037
0.000139688
-0.000403632
0.000145349
-0.000425466
0.000151164
-0.000446946
0.00015725
-0.000471989
-0.000497263
0.000163053
-5.30204e-07
9.57679e-06
-8.77416e-07
1.60092e-05
6.26979e-06
5.89924e-06
3.69697e-05
-7.115e-05
6.86799e-05
-0.000180334
9.19338e-05
-0.000258277
0.000106813
-0.000309128
0.000116261
-0.00034263
0.000122904
-0.000367217
0.000128352
-0.000388484
0.000133569
-0.000408849
0.00013875
-0.000430647
0.000144107
-0.000452302
0.00014961
-0.000477493
-0.000502533
0.00015488
-5.77548e-07
1.01543e-05
-1.19369e-06
1.66253e-05
1.14153e-05
-6.7098e-06
4.58016e-05
-0.000105536
7.29729e-05
-0.000207505
9.20778e-05
-0.000277382
0.000104249
-0.000321299
0.000112047
-0.000350429
0.000117734
-0.000372904
0.000122607
-0.000393357
0.000127377
-0.000413619
0.000132112
-0.000435381
0.000137007
-0.000457197
0.000142001
-0.000482486
-0.000507293
0.000146761
-4.24183e-07
1.05785e-05
-4.89144e-07
1.66903e-05
1.78432e-05
-2.50422e-05
5.11856e-05
-0.000138879
7.55e-05
-0.00023182
9.11613e-05
-0.000293043
0.000100967
-0.000331104
0.000107431
-0.000356893
0.000112381
-0.000377854
0.000116784
-0.00039776
0.000121134
-0.000417969
0.000125443
-0.000439691
0.000129909
-0.000461664
0.000134369
-0.000486946
-0.000511538
0.000138614
-3.00904e-07
1.08794e-05
1.8834e-06
1.4506e-05
2.55863e-05
-4.87451e-05
5.50137e-05
-0.000168306
7.62321e-05
-0.000253038
8.92334e-05
-0.000306044
9.71661e-05
-0.000339037
0.00010257
-0.000362296
0.000106917
-0.000382201
0.000110899
-0.000401742
0.000114855
-0.000421926
0.000118763
-0.000443598
0.000122789
-0.000465689
0.000126754
-0.000490912
-0.000515331
0.000130547
-2.93572e-07
1.1173e-05
5.05802e-06
9.1544e-06
3.26478e-05
-7.63349e-05
5.79038e-05
-0.000193562
7.56512e-05
-0.000270785
8.64342e-05
-0.000316827
9.29754e-05
-0.000345578
9.75536e-05
-0.000366875
0.000101394
-0.000386041
0.000104993
-0.000405341
0.000108567
-0.0004255
0.000112073
-0.000447104
0.000115671
-0.000469288
0.000119149
-0.00049439
-0.000518656
0.000122474
-3.22782e-07
1.14958e-05
8.38153e-06
4.5009e-07
3.77353e-05
-0.000105689
5.96821e-05
-0.000215509
7.42423e-05
-0.000285346
8.30452e-05
-0.00032563
8.84911e-05
-0.000351024
9.24384e-05
-0.000370822
9.58457e-05
-0.000389449
9.90744e-05
-0.000408569
0.000102269
-0.000428695
0.000105386
-0.000450221
0.000108554
-0.000472456
0.000111562
-0.000497398
-0.000521572
0.000114479
-3.26873e-07
1.18227e-05
1.19221e-05
-1.17989e-05
4.05691e-05
-0.000134336
6.03329e-05
-0.000235273
7.22446e-05
-0.000297257
7.93136e-05
-0.000332699
8.38375e-05
-0.000355548
8.7264e-05
-0.000374248
9.02873e-05
-0.000392472
9.31624e-05
-0.000411444
9.59848e-05
-0.000431517
9.8709e-05
-0.000452945
0.000101452
-0.0004752
0.000104012
-0.000499957
-0.000524065
0.000106504
-4.4116e-07
1.22638e-05
1.61973e-05
-2.84373e-05
4.18614e-05
-0.00016
5.96617e-05
-0.000253073
6.9703e-05
-0.000307299
7.53791e-05
-0.000338375
7.91091e-05
-0.000359278
8.20714e-05
-0.000377211
8.47363e-05
-0.000395137
8.72622e-05
-0.00041397
8.97096e-05
-0.000433965
9.20469e-05
-0.000455282
9.43693e-05
-0.000477522
9.64899e-05
-0.000502078
-0.000526173
9.85989e-05
-5.53392e-09
1.22693e-05
1.99496e-05
-4.83925e-05
4.27802e-05
-0.00018283
5.81134e-05
-0.000268406
6.66238e-05
-0.000315809
7.12824e-05
-0.000343034
7.43648e-05
-0.00036236
7.68954e-05
-0.000379741
7.9205e-05
-0.000397447
8.13828e-05
-0.000416148
8.34614e-05
-0.000436043
8.5411e-05
-0.000457232
8.73144e-05
-0.000479426
8.90132e-05
-0.000503776
-0.000527874
9.07133e-05
6.83222e-07
1.15861e-05
2.30622e-05
-7.07715e-05
4.30727e-05
-0.000202841
5.60582e-05
-0.000281391
6.31672e-05
-0.000322918
6.70457e-05
-0.000346912
6.96203e-05
-0.000364935
7.17552e-05
-0.000381876
7.37092e-05
-0.000399401
7.55332e-05
-0.000417972
7.72376e-05
-0.000437748
7.88003e-05
-0.000458794
8.02907e-05
-0.000480916
8.15749e-05
-0.000505061
-0.000529182
8.28831e-05
1.81036e-06
9.77576e-06
2.53041e-05
-9.42652e-05
4.28789e-05
-0.000220416
5.36844e-05
-0.000292197
5.95038e-05
-0.000328738
6.2723e-05
-0.000350131
6.48804e-05
-0.000367092
6.66552e-05
-0.000383651
6.82554e-05
-0.000401001
6.97201e-05
-0.000419437
7.10519e-05
-0.00043908
7.22282e-05
-0.000459971
7.33049e-05
-0.000481993
7.4175e-05
-0.000505931
-0.00053006
7.50528e-05
3.46224e-06
6.31352e-06
2.66271e-05
-0.00011743
4.22639e-05
-0.000236052
5.11198e-05
-0.000301053
5.57643e-05
-0.000333382
5.83756e-05
-0.000352743
6.01565e-05
-0.000368873
6.15951e-05
-0.00038509
6.28483e-05
-0.000402254
6.39517e-05
-0.00042054
6.49054e-05
-0.000440033
6.5693e-05
-0.000460758
6.63585e-05
-0.000482658
6.68059e-05
-0.000506378
-0.000530484
6.72304e-05
5.51982e-06
7.93701e-07
2.7063e-05
-0.000138973
4.11826e-05
-0.000250172
4.84202e-05
-0.00030829
5.20156e-05
-0.000336978
5.40514e-05
-0.000354779
5.54653e-05
-0.000370287
5.65763e-05
-0.000386201
5.7488e-05
-0.000403166
5.82303e-05
-0.000421282
5.8807e-05
-0.00044061
5.92061e-05
-0.000461157
5.9458e-05
-0.00048291
5.94795e-05
-0.000506399
-0.000530447
5.94422e-05
7.79726e-06
-7.00356e-06
2.69319e-05
-0.000158108
3.95423e-05
-0.000262782
4.5564e-05
-0.000314312
4.82845e-05
-0.000339698
4.97831e-05
-0.000356277
5.08244e-05
-0.000371328
5.16056e-05
-0.000386982
5.21784e-05
-0.000403739
5.25617e-05
-0.000421666
5.27594e-05
-0.000440808
5.27651e-05
-0.000461163
5.26042e-05
-0.000482749
5.22013e-05
-0.000505997
-0.000529947
5.17011e-05
9.98823e-06
-1.69918e-05
2.68701e-05
-0.00017499
3.75806e-05
-0.000273493
4.25177e-05
-0.000319249
4.45531e-05
-0.000341734
4.55762e-05
-0.0003573
4.6246e-05
-0.000371998
4.66901e-05
-0.000387426
4.69228e-05
-0.000403971
4.69483e-05
-0.000421691
4.67685e-05
-0.000440628
4.63795e-05
-0.000460774
4.58026e-05
-0.000482172
4.49802e-05
-0.000505174
-0.000528981
4.40142e-05
1.15106e-05
-2.85024e-05
2.64912e-05
-0.00018997
3.54141e-05
-0.000282416
3.93208e-05
-0.000323156
4.07985e-05
-0.000343211
4.14224e-05
-0.000357924
4.17365e-05
-0.000372312
4.18391e-05
-0.000387528
4.17285e-05
-0.000403861
4.13973e-05
-0.00042136
4.08403e-05
-0.000440071
4.00519e-05
-0.000459986
3.90545e-05
-0.000481175
3.78161e-05
-0.000503936
-0.000527553
3.63883e-05
1.23835e-05
-4.08858e-05
2.57156e-05
-0.000203303
3.30833e-05
-0.000289783
3.60571e-05
-0.00032613
3.70448e-05
-0.000344199
3.73175e-05
-0.000358197
3.72951e-05
-0.00037229
3.7057e-05
-0.00038729
3.66003e-05
-0.000403404
3.59119e-05
-0.000420672
3.49812e-05
-0.00043914
3.37977e-05
-0.000458802
3.23739e-05
-0.000479751
3.07069e-05
-0.000502269
-0.000525672
2.88261e-05
1.26799e-05
-5.35658e-05
2.45934e-05
-0.000215216
3.06242e-05
-0.000295814
3.27799e-05
-0.000328285
3.33207e-05
-0.00034474
3.32665e-05
-0.000358143
3.29223e-05
-0.000371945
3.23482e-05
-0.000386716
3.15449e-05
-0.000402601
3.04991e-05
-0.000419626
2.91972e-05
-0.000437838
2.76265e-05
-0.000457231
2.57826e-05
-0.000477907
2.36502e-05
-0.000500137
-0.000523347
2.13251e-05
1.25458e-05
-6.61116e-05
2.3181e-05
-0.000225851
2.80704e-05
-0.000300704
2.95231e-05
-0.000329738
2.96503e-05
-0.000344867
2.92785e-05
-0.000357771
2.86196e-05
-0.000371287
2.77142e-05
-0.000385811
2.65656e-05
-0.000401452
2.5162e-05
-0.000418222
2.34902e-05
-0.000436167
2.15437e-05
-0.000455285
1.9309e-05
-0.000475672
1.66728e-05
-0.0004975
-0.00052055
1.38756e-05
1.21195e-05
-7.82311e-05
2.15608e-05
-0.000235293
2.54591e-05
-0.000304602
2.63045e-05
-0.000330583
2.60486e-05
-0.000344611
2.53632e-05
-0.000357085
2.43918e-05
-0.000370315
2.31588e-05
-0.000384578
2.16675e-05
-0.000399961
1.99071e-05
-0.000416462
1.78647e-05
-0.000434124
1.55392e-05
-0.000452959
1.29446e-05
-0.000473078
9.85206e-06
-0.000494408
-0.00051714
6.44235e-06
1.14927e-05
-8.97238e-05
1.97967e-05
-0.000243597
2.28244e-05
-0.00030763
2.31416e-05
-0.0003309
2.25276e-05
-0.000343997
2.15289e-05
-0.000356087
2.02437e-05
-0.00036903
1.86843e-05
-0.000383018
1.68524e-05
-0.000398129
1.47371e-05
-0.000414347
1.23264e-05
-0.000431714
9.61497e-06
-0.000450248
6.63753e-06
-0.0004701
3.32119e-06
-0.000491092
-0.000512791
-1.02785e-06
1.07232e-05
-0.000100447
1.79454e-05
-0.000250819
2.02017e-05
-0.000309886
2.0049e-05
-0.000330748
1.90946e-05
-0.000343043
1.77819e-05
-0.000354774
1.61804e-05
-0.000367428
1.42944e-05
-0.000381132
1.21227e-05
-0.000395957
9.65573e-06
-0.00041188
6.88149e-06
-0.000428939
3.787e-06
-0.000447153
2.35808e-07
-0.000466549
-3.21091e-06
-0.000487645
-0.000508305
-7.69696e-06
9.79242e-06
-0.000110239
1.60521e-05
-0.000257078
1.76229e-05
-0.000311457
1.70422e-05
-0.000330167
1.57557e-05
-0.000341756
1.41266e-05
-0.000353145
1.22056e-05
-0.000365507
9.9902e-06
-0.000378917
7.47604e-06
-0.000393443
4.66017e-06
-0.000409064
1.52171e-06
-0.000425801
-1.93644e-06
-0.000443695
-5.60744e-06
-0.000462878
-9.85366e-06
-0.000483399
-0.000503735
-1.44232e-05
8.86132e-06
-0.000119101
1.41665e-05
-0.000262384
1.51079e-05
-0.000312398
1.4128e-05
-0.000329187
1.25129e-05
-0.000340141
1.05655e-05
-0.000351197
8.32084e-06
-0.000363263
5.77049e-06
-0.000376367
2.9077e-06
-0.00039058
-2.67337e-07
-0.000405889
-3.71498e-06
-0.000422353
-7.4731e-06
-0.000439937
-1.15202e-05
-0.000458831
-1.62448e-05
-0.000478674
-0.000498892
-2.10878e-05
7.97632e-06
-0.000127077
1.23265e-05
-0.000266734
1.26685e-05
-0.00031274
1.13049e-05
-0.000327824
9.36676e-06
-0.000338203
7.09872e-06
-0.000348929
4.52228e-06
-0.000360686
1.62131e-06
-0.000373466
-1.55819e-06
-0.000387401
-5.02759e-06
-0.000402419
-8.83412e-06
-0.000418547
-1.29344e-05
-0.000435837
-1.73965e-05
-0.000454369
-2.24665e-05
-0.000473604
-0.000493699
-2.76602e-05
7.10843e-06
-0.000134185
1.05498e-05
-0.000270175
1.03155e-05
-0.000312506
8.57578e-06
-0.000326084
6.31645e-06
-0.000335944
3.72038e-06
-0.000346333
7.86355e-07
-0.000357752
-2.3939e-06
-0.000370285
-5.88628e-06
-0.000383908
-9.71091e-06
-0.000398595
-1.38532e-05
-0.000414404
-1.83149e-05
-0.000431375
-2.32024e-05
-0.000449481
-2.85573e-05
-0.000468249
-0.000488129
-3.41268e-05
6.26149e-06
-0.000140447
8.8459e-06
-0.000272759
8.05268e-06
-0.000311713
5.94452e-06
-0.000323976
3.35709e-06
-0.000333356
3.95775e-07
-0.000343372
-2.78463e-06
-0.000354572
-6.29533e-06
-0.000366775
-1.0132e-05
-0.000380072
-1.42942e-05
-0.000394432
-1.87742e-05
-0.000409924
-2.36018e-05
-0.000426548
-2.88853e-05
-0.000444198
-3.45324e-05
-0.000462602