/*--------------------------------*- C++ -*----------------------------------*\
  =========                 |
  \\      /  F ield         | OpenFOAM: The Open Source CFD Toolbox
   \\    /   O peration     | Website:  https://openfoam.org
    \\  /    A nd           | Version:  7
     \\/     M anipulation  |
\*---------------------------------------------------------------------------*/
FoamFile
{
    version     2.0;
    format      ascii;
    class       volVectorField;
    location    "20.0013";
    object      U;
}
// * * * * * * * * * * * * * * * * * * * * * * * * * * * * * * * * * * * * * //

dimensions      [0 1 -1 0 0 0 0];

internalField   nonuniform List<vector> 
18750
(
(-0.0402636 0.0255197 -6.88661e-21)
(-0.140729 0.0309114 2.49098e-21)
(-0.248296 0.0290314 2.96842e-20)
(-0.343031 0.0276115 7.11848e-21)
(-0.436987 0.026258 -1.79773e-20)
(-0.524651 0.0249708 -4.42372e-20)
(-0.609456 0.0236637 4.6527e-20)
(-0.688842 0.022335 3.10771e-20)
(-0.764472 0.020976 -2.34578e-20)
(-0.835021 0.0196221 -6.33834e-20)
(-0.901618 0.018293 2.42439e-19)
(-0.963327 0.0170036 -2.00336e-19)
(-1.02084 0.0157538 1.19475e-19)
(-1.0735 0.0145906 -2.34302e-19)
(-1.12213 0.0136083 5.45719e-20)
(-0.0419284 0.0754565 4.00241e-21)
(-0.141958 0.091507 8.13134e-21)
(-0.248312 0.0859348 4.98156e-21)
(-0.341881 0.0817008 4.90083e-20)
(-0.434626 0.0776635 1.0315e-19)
(-0.52103 0.0738186 1.40034e-19)
(-0.604469 0.069912 -1.21219e-19)
(-0.68236 0.0659412 2.00652e-19)
(-0.756329 0.0618802 1.88712e-19)
(-0.825043 0.0578362 -6.1139e-20)
(-0.889638 0.0538719 -2.57154e-19)
(-0.949184 0.0500424 1.2777e-20)
(-1.00433 0.0463544 5.80999e-20)
(-1.05437 0.0429392 1.52929e-19)
(-1.10003 0.0400499 -2.33552e-19)
(-0.0451893 0.124157 1.40809e-20)
(-0.144374 0.151047 2.38928e-20)
(-0.248346 0.141976 -7.58407e-20)
(-0.339623 0.135 6.50592e-21)
(-0.43 0.12834 -1.91167e-19)
(-0.513956 0.121972 6.43817e-20)
(-0.594757 0.115487 -1.85193e-19)
(-0.669791 0.108884 -2.10241e-20)
(-0.740612 0.102125 -1.44492e-19)
(-0.805884 0.0953874 4.37648e-19)
(-0.866759 0.0887865 5.8296e-19)
(-0.922342 0.0824393 5.15309e-19)
(-0.973234 0.0763751 3.0334e-19)
(-1.01859 0.0707813 2.05654e-19)
(-1.05907 0.0660001 -3.81384e-19)
(-0.0499218 0.170832 -8.18896e-20)
(-0.147901 0.208853 9.98565e-20)
(-0.248398 0.196602 -7.67493e-20)
(-0.336326 0.187013 -1.64758e-19)
(-0.423273 0.177838 2.90503e-19)
(-0.503714 0.169012 -2.72768e-19)
(-0.580768 0.159992 4.09525e-19)
(-0.651793 0.150786 -3.50443e-19)
(-0.71826 0.141348 2.49354e-19)
(-0.778839 0.131927 -6.13353e-19)
(-0.834719 0.122703 -8.8398e-19)
(-0.885079 0.113883 4.87284e-20)
(-0.930494 0.10554 -1.69153e-19)
(-0.969987 0.0978846 -3.68282e-19)
(-1.00412 0.0912663 1.40047e-18)
(-0.0559448 0.214739 -6.60615e-20)
(-0.152422 0.264268 1.50532e-19)
(-0.248458 0.249294 3.33276e-20)
(-0.332077 0.237285 1.2916e-19)
(-0.414659 0.225753 -1.77439e-19)
(-0.490673 0.214572 7.73306e-20)
(-0.563066 0.203093 9.74213e-19)
(-0.629185 0.191342 1.53241e-19)
(-0.690412 0.179275 2.74296e-19)
(-0.745444 0.167212 -9.69775e-20)
(-0.795526 0.15541 8.28507e-20)
(-0.839961 0.144191 -3.42544e-20)
(-0.879355 0.133696 -9.59101e-19)
(-0.912624 0.12414 -5.37935e-19)
(-0.940196 0.115805 -1.58728e-18)
(-0.0630612 0.255235 1.48888e-19)
(-0.157807 0.316664 5.41778e-20)
(-0.248499 0.299574 -7.29858e-20)
(-0.326963 0.285417 -5.43602e-20)
(-0.404394 0.271739 6.15674e-20)
(-0.475241 0.25835 -8.25311e-19)
(-0.542267 0.244529 -1.05199e-19)
(-0.602833 0.230331 5.29552e-20)
(-0.658242 0.215724 -4.03596e-19)
(-0.707236 0.201105 -5.57469e-19)
(-0.751129 0.186815 4.08768e-19)
(-0.789395 0.173307 -4.05882e-19)
(-0.822737 0.160819 1.25978e-18)
(-0.850017 0.149567 -9.85005e-19)
(-0.871496 0.139708 2.16447e-18)
(-0.0710397 0.291694 -1.36995e-19)
(-0.163865 0.365439 -2.31532e-19)
(-0.248442 0.347039 9.61709e-20)
(-0.321061 0.331072 7.29176e-19)
(-0.392716 0.31551 7.47791e-19)
(-0.457828 0.300109 -2.64283e-19)
(-0.518978 0.284109 1.36054e-19)
(-0.57357 0.267605 8.90419e-20)
(-0.622843 0.250599 8.72552e-19)
(-0.665599 0.233561 1.2118e-18)
(-0.703221 0.21692 -5.90083e-19)
(-0.735388 0.201275 -1.138e-18)
(-0.762953 0.186978 -2.11867e-18)
(-0.78479 0.174268 3.66289e-19)
(-0.800941 0.163147 -2.64568e-18)
(-0.0795991 0.323474 -1.24138e-19)
(-0.170374 0.410103 -1.45882e-19)
(-0.248184 0.391368 -1.05885e-18)
(-0.314434 0.373982 3.82239e-19)
(-0.379848 0.356842 -4.4663e-19)
(-0.438819 0.339672 3.09515e-19)
(-0.493755 0.321704 3.35182e-19)
(-0.542136 0.303085 -1.46295e-18)
(-0.585152 0.283865 -9.80586e-19)
(-0.621678 0.264596 -1.66483e-18)
(-0.653151 0.245795 -2.77606e-19)
(-0.679454 0.2282 1.20946e-18)
(-0.701628 0.2123 4.74429e-18)
(-0.718608 0.198385 -7.26917e-19)
(-0.730168 0.186294 1.29852e-18)
(-0.0883849 0.349967 6.66204e-19)
(-0.17706 0.45023 2.6882e-19)
(-0.247608 0.432325 1.16557e-18)
(-0.307131 0.413945 -8.59852e-19)
(-0.365988 0.395567 4.12516e-19)
(-0.418554 0.376917 -6.93899e-19)
(-0.467084 0.357237 -1.60835e-18)
(-0.509162 0.336737 1.43747e-18)
(-0.545939 0.315533 1.73275e-19)
(-0.576371 0.294266 2.48736e-18)
(-0.601921 0.273538 -8.12942e-19)
(-0.622643 0.254212 -3.68454e-18)
(-0.639759 0.236916 -2.25312e-18)
(-0.652316 0.222033 2.361e-19)
(-0.659791 0.209255 -1.09686e-18)
(-0.0969834 0.370665 -5.56666e-19)
(-0.183603 0.485497 -3.16157e-19)
(-0.246588 0.469737 4.111e-19)
(-0.299192 0.450818 6.3838e-20)
(-0.351297 0.431569 -1.6221e-19)
(-0.397321 0.411767 -1.88618e-19)
(-0.439375 0.390673 7.33662e-19)
(-0.47516 0.368565 -8.79338e-19)
(-0.505798 0.345642 8.68885e-19)
(-0.530331 0.32264 1.09231e-18)
(-0.550212 0.300245 -1.94168e-18)
(-0.565605 0.279424 3.68562e-18)
(-0.577869 0.26093 4.32378e-19)
(-0.586205 0.245271 5.89365e-19)
(-0.589827 0.232038 1.35479e-18)
(-0.104915 0.385105 1.05243e-18)
(-0.189627 0.515603 -3.45332e-19)
(-0.244982 0.503492 -1.53669e-18)
(-0.290631 0.4845 6.13448e-19)
(-0.33591 0.464776 -3.55172e-19)
(-0.375357 0.444188 4.18032e-19)
(-0.410956 0.422005 3.13455e-18)
(-0.440532 0.398589 1.52087e-18)
(-0.465178 0.374235 1.01335e-18)
(-0.48402 0.349783 -3.40189e-18)
(-0.498471 0.325997 3.72626e-18)
(-0.508737 0.303924 1.36514e-18)
(-0.516231 0.284409 -2.2029e-18)
(-0.520314 0.268098 2.67161e-18)
(-0.520079 0.254565 -9.17984e-20)
(-0.111643 0.392957 2.18424e-19)
(-0.194759 0.540458 5.33628e-20)
(-0.242658 0.533488 -1.06705e-19)
(-0.281464 0.51494 -1.09663e-18)
(-0.319921 0.495161 2.19763e-18)
(-0.352851 0.474167 -1.12621e-18)
(-0.382093 0.451244 -3.3253e-18)
(-0.405592 0.426841 1.02854e-18)
(-0.424409 0.40136 -1.64313e-18)
(-0.437754 0.375742 2.55517e-18)
(-0.446971 0.350837 -4.6135e-18)
(-0.452254 0.327748 3.61119e-19)
(-0.454959 0.307368 1.96598e-18)
(-0.454569 0.290456 -4.12527e-18)
(-0.450334 0.276667 -9.70316e-19)
(-0.116481 0.393805 -6.98818e-19)
(-0.198576 0.559877 2.00717e-19)
(-0.239487 0.559632 6.21845e-19)
(-0.271659 0.542117 -2.98038e-20)
(-0.303405 0.522727 -2.99993e-18)
(-0.329953 0.501728 2.88331e-19)
(-0.35299 0.478414 1.08327e-18)
(-0.370577 0.453351 -2.95466e-18)
(-0.383733 0.427046 2.22843e-18)
(-0.391747 0.400544 -2.05397e-18)
(-0.395879 0.374778 5.63165e-18)
(-0.396286 0.350902 -2.34726e-18)
(-0.394183 0.329811 2.85319e-18)
(-0.389044 0.312295 5.79277e-18)
(-0.380574 0.298153 2.50434e-18)
(-0.118896 0.388051 -2.78382e-19)
(-0.200751 0.573974 -6.81818e-21)
(-0.235399 0.581764 -2.32815e-20)
(-0.261206 0.566078 -7.12337e-20)
(-0.286402 0.547516 -1.46643e-18)
(-0.306778 0.526892 -6.54791e-19)
(-0.323816 0.503536 1.06252e-18)
(-0.335676 0.478144 6.48864e-19)
(-0.34334 0.451319 -3.76974e-18)
(-0.346163 0.424201 -2.11255e-19)
(-0.34531 0.397804 -1.10537e-18)
(-0.340905 0.37334 2.25368e-18)
(-0.334017 0.351701 -3.15387e-18)
(-0.323886 0.333587 -4.44686e-19)
(-0.310513 0.318759 -2.83176e-18)
(-0.118501 0.375896 1.24483e-18)
(-0.200869 0.582286 -1.10874e-18)
(-0.230251 0.599846 -1.50904e-18)
(-0.250004 0.586882 2.69611e-18)
(-0.268969 0.569585 2.38397e-18)
(-0.283433 0.549716 3.06795e-18)
(-0.294697 0.526644 1.33258e-19)
(-0.301034 0.501236 2.11505e-18)
(-0.303372 0.474176 2.84827e-18)
(-0.301131 0.446694 4.26884e-18)
(-0.295361 0.419876 -1.98009e-18)
(-0.28616 0.395 4.16909e-18)
(-0.274564 0.37298 -2.51806e-20)
(-0.259508 0.354325 -2.11951e-18)
(-0.240223 0.338464 -5.26775e-18)
(-0.11506 0.357321 -7.88985e-19)
(-0.198577 0.584512 1.22785e-18)
(-0.223933 0.613977 8.19851e-19)
(-0.238063 0.604634 -2.54334e-18)
(-0.251129 0.589036 -1.18925e-18)
(-0.259987 0.570216 -2.196e-19)
(-0.265758 0.547748 -1.62284e-18)
(-0.266784 0.522634 -2.79349e-18)
(-0.263965 0.495611 -4.7869e-18)
(-0.256778 0.467999 -2.08642e-18)
(-0.246148 0.440951 2.93374e-18)
(-0.232107 0.415787 -6.14355e-18)
(-0.215812 0.39349 2.12698e-19)
(-0.19637 0.374486 3.91623e-18)
(-0.169523 0.357845 5.64745e-18)
(-0.108402 0.332338 -1.90203e-18)
(-0.193666 0.580534 1.47539e-18)
(-0.216264 0.624068 -2.54859e-18)
(-0.225418 0.619492 -1.22997e-18)
(-0.232994 0.605999 -6.92503e-20)
(-0.236544 0.588457 1.703e-18)
(-0.237092 0.5669 2.77015e-18)
(-0.233036 0.542334 9.21841e-19)
(-0.225225 0.515583 1.34542e-18)
(-0.213201 0.488048 -3.80126e-18)
(-0.19779 0.460946 1.01373e-19)
(-0.178894 0.435631 -2.94194e-18)
(-0.157743 0.413136 -2.18276e-18)
(-0.134425 0.393822 -6.26463e-18)
(-0.100374 0.377281 -8.01452e-20)
(-0.0984974 0.301182 1.67357e-18)
(-0.186061 0.57025 2.66032e-19)
(-0.20716 0.629965 3.94627e-19)
(-0.212065 0.631449 3.04853e-18)
(-0.214617 0.620501 1.29072e-18)
(-0.213222 0.604532 -1.58633e-18)
(-0.208828 0.584138 1.25303e-18)
(-0.199932 0.560352 -7.31285e-19)
(-0.187301 0.534083 -1.46819e-18)
(-0.170536 0.506793 1.67598e-18)
(-0.150421 0.47981 -5.66554e-18)
(-0.126689 0.454458 -2.28378e-19)
(-0.100488 0.431796 -3.22311e-18)
(-0.0737621 0.412337 4.99604e-18)
(-0.031654 0.39716 4.58063e-19)
(-0.0856072 0.264352 -6.41589e-19)
(-0.175814 0.553447 -1.79654e-18)
(-0.196652 0.63139 4.72424e-19)
(-0.198052 0.640426 -3.51552e-18)
(-0.196054 0.632571 -2.40117e-18)
(-0.190101 0.618465 -1.35651e-18)
(-0.18107 0.599455 -2.38214e-18)
(-0.167588 0.576644 2.30954e-18)
(-0.150323 0.551045 3.26737e-18)
(-0.12892 0.524175 6.39404e-18)
(-0.10419 0.497445 -2.84089e-19)
(-0.0757302 0.472208 7.24547e-18)
(-0.0439962 0.449459 2.86077e-18)
(-0.0148705 0.429778 2.23989e-18)
(0.0369501 0.417022 -4.97295e-18)
(-0.070473 0.22261 1.10554e-18)
(-0.16313 0.529732 2.73543e-18)
(-0.184828 0.627853 1.87456e-18)
(-0.183469 0.646254 2.44998e-18)
(-0.177398 0.642238 7.6896e-21)
(-0.167269 0.630283 9.66544e-19)
(-0.153929 0.612827 2.59494e-20)
(-0.136125 0.591175 -1.78051e-18)
(-0.114427 0.566412 2.78929e-18)
(-0.0884835 0.540084 -9.75526e-18)
(-0.0592002 0.513748 2.86751e-18)
(-0.0263365 0.48876 -1.90141e-18)
(0.011806 0.465909 3.74142e-19)
(0.0417062 0.445826 -2.84351e-18)
(0.105688 0.437471 -3.20828e-18)
(-0.0545801 0.177011 -1.80499e-18)
(-0.148385 0.498479 2.40406e-18)
(-0.171787 0.618603 -5.99757e-19)
(-0.168426 0.648622 -1.03801e-18)
(-0.158774 0.649465 2.17096e-18)
(-0.144848 0.639986 2.28546e-19)
(-0.127522 0.624261 -6.48843e-19)
(-0.105669 0.60389 -7.65102e-20)
(-0.0797647 0.580089 -1.79965e-18)
(-0.049384 0.554417 4.6773e-18)
(-0.0154635 0.528489 2.86478e-18)
(0.0210387 0.504058 1.51638e-18)
(0.0671916 0.481326 -1.39613e-19)
(0.0953769 0.459117 3.6414e-18)
(0.174375 0.458462 -3.27014e-19)
(-0.0402467 0.129325 5.28831e-19)
(-0.132092 0.458823 -5.71004e-19)
(-0.157581 0.602654 4.50977e-19)
(-0.153013 0.647 1.92225e-18)
(-0.140318 0.654099 -1.22823e-18)
(-0.122976 0.64756 -8.00986e-19)
(-0.101999 0.63371 -1.50382e-18)
(-0.0763533 0.614751 1.18845e-18)
(-0.0464894 0.592004 -1.24073e-18)
(-0.0118809 0.567049 -1.42466e-18)
(0.0271585 0.541507 -2.47842e-18)
(0.0658729 0.517722 -1.4423e-18)
(0.122301 0.496065 5.25149e-18)
(0.145779 0.469384 -7.23806e-18)
(0.242933 0.47919 -1.93479e-19)
(-0.0293975 0.082761 2.26725e-18)
(-0.114811 0.409788 -8.76804e-19)
(-0.142204 0.57889 -2.28099e-18)
(-0.137292 0.640602 -6.08781e-19)
(-0.122175 0.655765 3.21638e-18)
(-0.101807 0.652882 -6.74166e-20)
(-0.0775144 0.641179 1.55984e-18)
(-0.048337 0.623656 -8.5751e-19)
(-0.0147141 0.602003 -3.3413e-18)
(0.0236089 0.577923 7.76521e-18)
(0.0689221 0.552514 -5.71829e-18)
(0.107644 0.529398 1.69537e-18)
(0.17766 0.510815 -7.47079e-18)
(0.192016 0.474905 2.64368e-18)
(0.310447 0.498495 2.16795e-18)
(-0.0214734 0.0416659 -8.06386e-19)
(-0.0967882 0.350621 -2.59762e-18)
(-0.125583 0.546212 1.17533e-18)
(-0.121303 0.628293 2.08061e-19)
(-0.104462 0.653854 -2.89354e-18)
(-0.0814987 0.655734 1.79023e-18)
(-0.054266 0.646525 9.08153e-20)
(-0.0218343 0.630597 -4.38935e-19)
(0.0155774 0.609932 -3.41141e-18)
(0.0564537 0.586915 -4.007e-19)
(0.110154 0.561569 4.54377e-18)
(0.145585 0.537611 3.78259e-19)
(0.233886 0.527472 1.07752e-18)
(0.235584 0.477992 3.09623e-18)
(0.374782 0.510158 -7.9023e-18)
(-0.0138442 0.00978638 -1.22904e-18)
(-0.0782391 0.281678 3.69105e-20)
(-0.10767 0.503605 -1.48943e-18)
(-0.10507 0.608582 1.20798e-18)
(-0.0873211 0.647341 1.63678e-18)
(-0.0622049 0.655697 -1.22606e-18)
(-0.0324338 0.649659 -2.11972e-19)
(0.00277377 0.635367 -1.01889e-18)
(0.0445654 0.615521 2.56209e-18)
(0.0859579 0.593792 4.91214e-19)
(0.151254 0.569179 -6.55966e-18)
(0.178846 0.540456 1.78066e-18)
(0.290007 0.543668 1.11022e-18)
(0.278813 0.485532 -5.00319e-18)
(0.436958 0.516639 1.14935e-18)
(-0.00509024 -0.010956 2.78812e-19)
(-0.0602715 0.206265 7.46179e-19)
(-0.0887083 0.45 1.40103e-18)
(-0.0886294 0.579611 -1.18014e-18)
(-0.0708481 0.634955 -4.45988e-20)
(-0.0441937 0.652029 2.9683e-18)
(-0.012152 0.650144 -1.34325e-19)
(0.0248849 0.638083 1.40482e-21)
(0.072545 0.618508 4.12739e-18)
(0.111346 0.597651 -2.35713e-18)
(0.192634 0.577009 1.6879e-18)
(0.207746 0.53756 -4.74788e-18)
(0.344164 0.553415 4.07427e-19)
(0.321447 0.49486 -1.25216e-18)
(0.497742 0.523721 2.17413e-18)
(0.00338975 -0.0213522 -2.07348e-19)
(-0.0441889 0.132345 9.36149e-19)
(-0.0695535 0.384561 -1.2392e-18)
(-0.0720862 0.539317 2.61411e-18)
(-0.0552566 0.61478 -2.18665e-18)
(-0.0277335 0.643729 -1.9518e-18)
(0.00646729 0.647336 -1.21364e-18)
(0.0436887 0.638049 -2.59801e-18)
(0.0996156 0.619176 -5.01285e-18)
(0.132079 0.596699 7.662e-19)
(0.233682 0.585604 3.91335e-18)
(0.233976 0.533893 3.13376e-18)
(0.395711 0.554443 5.33675e-19)
(0.362675 0.500713 -2.61072e-18)
(0.556466 0.52643 -1.3139e-18)
(0.00967936 -0.02457 5.02378e-19)
(-0.0288105 0.0705903 8.819e-19)
(-0.0508645 0.307589 -3.75249e-18)
(-0.0557965 0.485943 -2.58789e-18)
(-0.0406509 0.584743 -7.64268e-20)
(-0.0136308 0.628834 2.05343e-18)
(0.0235644 0.640261 -7.43773e-19)
(0.05833 0.634911 5.77073e-18)
(0.12556 0.617728 4.8337e-19)
(0.14774 0.58883 -3.19262e-18)
(0.272608 0.591086 -3.00349e-18)
(0.259119 0.532045 -4.79131e-18)
(0.442255 0.55115 5.2782e-18)
(0.404433 0.502892 3.5031e-18)
(0.60989 0.523184 -6.12296e-21)
(0.0132708 -0.0240836 -1.398e-18)
(-0.0125748 0.0271976 -2.59583e-18)
(-0.0334969 0.22167 1.8698e-18)
(-0.0402796 0.418274 2.28889e-18)
(-0.0273894 0.541985 1.41862e-18)
(-0.00239753 0.605421 -1.42571e-18)
(0.0383198 0.626556 3.63103e-18)
(0.068495 0.626299 -5.13734e-18)
(0.149245 0.616767 5.67409e-18)
(0.159871 0.574755 3.62791e-18)
(0.303924 0.587043 -1.1134e-18)
(0.287761 0.529838 -1.56187e-18)
(0.47567 0.539803 -2.108e-18)
(0.449571 0.504365 -4.20016e-18)
(0.655383 0.508247 5.04771e-18)
(0.0148743 -0.0222271 3.94866e-18)
(0.00291684 0.00103133 3.03487e-18)
(-0.018342 0.138262 6.90677e-19)
(-0.0267863 0.337148 -3.84689e-20)
(-0.0155974 0.483872 -4.9058e-19)
(0.00450995 0.569785 -5.81903e-19)
(0.0508425 0.605716 -2.83552e-18)
(0.072636 0.607652 4.88696e-18)
(0.167954 0.611658 -3.77978e-18)
(0.172837 0.562936 -3.10261e-20)
(0.319704 0.568521 3.61676e-18)
(0.32134 0.526731 2.53092e-18)
(0.492298 0.517773 2.52435e-18)
(0.493799 0.503081 -2.84829e-20)
(0.693221 0.481331 -2.9969e-18)
(0.015688 -0.0201786 -2.37133e-18)
(0.015495 -0.0127687 -2.46336e-18)
(-0.00361616 0.0734725 7.7101e-19)
(-0.0158496 0.248079 -1.24353e-18)
(-0.00592707 0.408933 -5.79633e-19)
(0.00709523 0.518446 2.08362e-18)
(0.0574291 0.573162 -5.52866e-19)
(0.0747417 0.580905 -5.06288e-19)
(0.172137 0.592729 -1.51583e-18)
(0.192536 0.549533 -3.45864e-18)
(0.317397 0.548638 1.60371e-18)
(0.359756 0.505975 -1.88873e-18)
(0.490116 0.506822 -2.92178e-18)
(0.552694 0.47382 -1.31861e-18)
(0.675573 0.464765 5.33046e-18)
(0.016951 -0.0183704 2.67989e-18)
(0.0254745 -0.0189818 -2.10993e-18)
(0.0119286 0.0330753 -3.47338e-18)
(-0.00594453 0.163911 3.53066e-19)
(0.00139239 0.320533 8.40225e-19)
(0.00507819 0.44871 -5.75063e-19)
(0.056883 0.525647 1.57994e-18)
(0.0709508 0.538756 3.317e-19)
(0.166651 0.566147 -2.26816e-19)
(0.201084 0.5138 1.20223e-19)
(0.316484 0.534532 -1.66533e-18)
(0.376324 0.458962 2.12953e-19)
(0.510198 0.504846 9.35575e-19)
(0.543584 0.408546 -7.37876e-19)
(0.737459 0.483842 5.01767e-18)
(0.0193162 -0.0171182 5.6396e-19)
(0.0343031 -0.0214078 -1.21134e-18)
(0.0264832 0.0114307 3.38371e-18)
(0.00516086 0.0991256 2.62449e-18)
(0.00617598 0.231214 -2.62639e-18)
(-0.000268348 0.361851 -1.69026e-19)
(0.0457159 0.461287 -1.18726e-18)
(0.0647671 0.478718 -4.45045e-19)
(0.139689 0.51752 3.14585e-18)
(0.218848 0.476403 1.57129e-18)
(0.272415 0.479549 2.15082e-18)
(0.437562 0.442664 -1.70401e-18)
(0.441423 0.435728 1.15594e-18)
(0.628107 0.397998 -6.57696e-19)
(0.684259 0.426964 -6.40397e-18)
(0.0228274 -0.0167436 4.50076e-19)
(0.0424633 -0.0227147 7.22626e-19)
(0.0380838 8.02491e-05 -1.86429e-18)
(0.0166407 0.057803 -2.13176e-18)
(0.00791479 0.155534 -1.95987e-18)
(-0.00655625 0.269308 1.68225e-19)
(0.0232572 0.378243 1.38699e-18)
(0.0537277 0.407224 -2.48941e-18)
(0.0985155 0.438238 -1.29012e-18)
(0.216572 0.426322 6.88157e-19)
(0.223619 0.394017 -1.9656e-18)
(0.446039 0.404791 1.94031e-19)
(0.343114 0.314109 1.36617e-18)
(0.696005 0.384692 -1.87629e-18)
(0.504224 0.275722 1.5107e-18)
(0.0270552 -0.0173562 -1.01167e-18)
(0.0492248 -0.0245557 2.29907e-18)
(0.0454711 -0.00782889 1.52549e-18)
(0.024403 0.0321259 1.02636e-18)
(0.00632081 0.0988562 1.67755e-18)
(-0.0155167 0.185343 -1.69026e-19)
(-0.00373091 0.285141 -1.29492e-18)
(0.0260015 0.321764 2.84285e-19)
(0.0615309 0.349266 1.68272e-18)
(0.16811 0.330757 -2.6674e-18)
(0.200062 0.315195 -1.24433e-18)
(0.359275 0.295435 9.73936e-20)
(0.335787 0.237348 -3.90415e-19)
(0.653983 0.314434 2.25732e-18)
(0.529261 0.225396 -2.13184e-18)
(0.0311008 -0.0187136 1.10279e-18)
(0.0531412 -0.0276381 7.36014e-19)
(0.0473225 -0.0163368 -8.98651e-20)
(0.0248218 0.0120629 -6.66251e-19)
(-0.000695137 0.0564144 1.4897e-19)
(-0.0303362 0.115685 -1.96723e-18)
(-0.0328517 0.194207 4.32282e-19)
(-0.0163734 0.225606 -8.46775e-19)
(0.0200262 0.255975 -8.68246e-19)
(0.103466 0.214659 1.82996e-18)
(0.155429 0.218572 2.6464e-18)
(0.304007 0.192676 1.26428e-18)
(0.414516 0.223368 1.30814e-18)
(0.694571 0.286995 -1.70749e-18)
(0.842497 0.352084 -1.81108e-18)
(0.0337823 -0.0202912 9.10621e-19)
(0.0527262 -0.0317895 -1.73867e-18)
(0.0424201 -0.0267291 -8.41418e-19)
(0.0162238 -0.0080151 -1.88429e-18)
(-0.0160237 0.020477 8.51967e-19)
(-0.0525923 0.0570264 2.07477e-18)
(-0.0678586 0.110776 -2.37245e-18)
(-0.0662216 0.127711 8.19779e-19)
(-0.0334731 0.15455 1.49431e-18)
(0.0385127 0.104572 4.26926e-19)
(0.13518 0.123066 -1.75846e-18)
(0.368587 0.164768 -7.26041e-19)
(0.579475 0.248076 2.09462e-21)
(0.868845 0.339952 1.00272e-18)
(1.01814 0.412419 3.95151e-18)
(0.0339546 -0.0214246 -1.47605e-18)
(0.0470781 -0.0362145 -1.48034e-18)
(0.0305548 -0.0384933 8.28475e-19)
(-0.0010697 -0.0294648 3.34973e-18)
(-0.0404095 -0.0140168 -2.1853e-18)
(-0.0837203 0.00473646 6.20774e-19)
(-0.112394 0.0346011 9.30808e-19)
(-0.1216 0.0343801 -7.68538e-20)
(-0.0898762 0.0535448 1.88445e-19)
(0.030693 0.0350478 8.87821e-19)
(0.244705 0.103139 -8.26173e-19)
(0.53834 0.203044 -1.65545e-18)
(0.785273 0.302732 -1.4928e-18)
(0.995794 0.379742 1.24191e-18)
(1.0826 0.416377 3.91737e-19)
(0.0308208 -0.0214681 -3.62969e-19)
(0.0360843 -0.0397483 2.92417e-18)
(0.0125338 -0.0498566 6.1136e-19)
(-0.025365 -0.0504678 8.76702e-19)
(-0.0724323 -0.0463513 8.06103e-19)
(-0.123763 -0.0411683 7.80392e-19)
(-0.163423 -0.0316272 -2.79378e-19)
(-0.16543 -0.0417236 5.15442e-19)
(-0.087859 -0.0137581 2.64839e-19)
(0.151552 0.0435618 1.17061e-18)
(0.451074 0.153326 2.88848e-20)
(0.727293 0.258314 1.14245e-18)
(0.927089 0.3409 -9.57685e-19)
(1.05832 0.387955 -9.35291e-19)
(1.14644 0.42778 6.45002e-19)
(0.0242325 -0.0199054 1.30636e-18)
(0.0206098 -0.0409625 -1.20179e-18)
(-0.00967095 -0.0580736 1.1845e-19)
(-0.0534103 -0.0665683 -1.78993e-18)
(-0.106234 -0.0704518 -1.49317e-18)
(-0.161133 -0.0728356 2.59482e-18)
(-0.196065 -0.0723991 7.73052e-19)
(-0.152372 -0.0748097 -1.10694e-18)
(0.029546 -0.0121577 3.13487e-19)
(0.358141 0.10269 -3.18113e-18)
(0.650033 0.211653 1.07526e-18)
(0.869718 0.29967 -1.29468e-18)
(1.01368 0.357488 1.53e-18)
(1.12013 0.401907 -1.73263e-19)
(1.17797 0.428636 -9.46306e-19)
(0.0148512 -0.016519 -2.03717e-18)
(0.00257055 -0.0385554 -2.07281e-18)
(-0.032553 -0.060002 -2.13305e-18)
(-0.0790675 -0.0726554 -1.60256e-18)
(-0.131088 -0.0787778 1.08855e-18)
(-0.176979 -0.0792003 -4.46787e-18)
(-0.186688 -0.0738274 4.0897e-19)
(-0.0634341 -0.0529646 4.23888e-19)
(0.229213 0.0534172 2.32982e-19)
(0.556796 0.167764 1.49714e-18)
(0.803695 0.259093 -1.23179e-18)
(0.971829 0.327512 2.8418e-18)
(1.0856 0.375744 -6.02462e-19)
(1.15178 0.405671 -1.16985e-18)
(1.18923 0.420796 6.57967e-19)
(0.00401189 -0.0115524 3.59061e-19)
(-0.0155366 -0.0320682 1.67892e-18)
(-0.0522489 -0.0543708 2.39253e-18)
(-0.0961484 -0.0667533 4.0007e-19)
(-0.138972 -0.0689986 1.92443e-18)
(-0.163751 -0.060103 1.09784e-18)
(-0.134888 -0.0471669 3.48111e-19)
(0.0925215 0.0139061 -1.84959e-18)
(0.431497 0.129832 -1.18005e-19)
(0.721093 0.223963 8.11435e-19)
(0.921946 0.297428 3.02891e-18)
(1.05168 0.351854 -3.76746e-19)
(1.1255 0.383242 1.02677e-18)
(1.16985 0.404156 9.69277e-19)
(1.20293 0.417581 1.57417e-18)
(-0.00673004 -0.00571628 6.57961e-19)
(-0.0315664 -0.0223378 -2.20142e-18)
(-0.0662548 -0.0422982 -4.80157e-19)
(-0.102307 -0.0508732 3.07691e-20)
(-0.129147 -0.0457526 -3.57382e-18)
(-0.12802 -0.0264699 9.36372e-19)
(-0.0470821 -0.0109584 -5.05152e-19)
(0.276495 0.090901 6.05843e-19)
(0.605725 0.193183 2.04524e-18)
(0.853762 0.270308 -7.09717e-19)
(1.0114 0.328644 -2.33779e-18)
(1.10104 0.365799 -3.1211e-19)
(1.15283 0.387658 -3.48408e-19)
(1.18472 0.404491 -7.58794e-19)
(1.20456 0.410526 -1.697e-18)
(-0.0160743 6.06627e-05 1.37572e-19)
(-0.0442489 -0.0110477 5.95772e-19)
(-0.0740526 -0.0265888 -1.53629e-18)
(-0.0986459 -0.0299406 6.50024e-19)
(-0.105876 -0.0165841 1.47331e-18)
(-0.0818573 0.00620789 -6.48572e-19)
(0.0743749 0.0412168 -1.10619e-19)
(0.448189 0.155689 -1.5766e-18)
(0.752341 0.246982 3.24272e-19)
(0.956206 0.308109 -1.17708e-18)
(1.07239 0.350809 1.11728e-18)
(1.13662 0.376301 -9.08895e-19)
(1.17055 0.390805 1.59035e-18)
(1.18876 0.400861 -6.01193e-19)
(1.206 0.40398 -1.24349e-18)
(-0.0232548 0.00494118 7.01584e-19)
(-0.0532466 -0.000122128 4.39256e-19)
(-0.0764906 -0.0105908 3.97283e-19)
(-0.0879451 -0.009281 1.04195e-19)
(-0.0765041 0.0103859 6.58849e-19)
(-0.0252002 0.0227878 -1.62217e-18)
(0.230817 0.102366 9.36009e-19)
(0.604145 0.211771 2.26616e-18)
(0.870385 0.290442 -2.5064e-19)
(1.03109 0.336229 1.73517e-18)
(1.11603 0.367469 1.03019e-18)
(1.15812 0.38245 1.78282e-19)
(1.17855 0.390713 3.29396e-19)
(1.19291 0.398199 6.3345e-19)
(1.20692 0.399279 1.45915e-18)
(-0.0280918 0.00839551 1.06084e-18)
(-0.05891 0.00885636 1.5101e-18)
(-0.0751266 0.00297044 -1.3566e-18)
(-0.0733553 0.00795942 1.23666e-18)
(-0.0495292 0.0265073 -2.83503e-18)
(0.0497292 0.0365402 7.26145e-19)
(0.399393 0.157596 -2.46689e-19)
(0.740199 0.25814 -1.39337e-18)
(0.961411 0.323788 -2.5346e-18)
(1.08493 0.357537 -9.76038e-19)
(1.14326 0.378703 -2.40648e-18)
(1.17087 0.385798 1.47997e-18)
(1.1847 0.391304 -1.97837e-18)
(1.19386 0.395407 1.34049e-18)
(1.20396 0.393249 9.1365e-19)
(-0.0308992 0.0102716 -2.5109e-18)
(-0.0619891 0.014947 8.37887e-20)
(-0.0715198 0.0124545 1.82156e-19)
(-0.0584757 0.0203498 3.4097e-19)
(-0.0225086 0.0263063 2.01798e-19)
(0.166904 0.074442 1.35094e-18)
(0.554909 0.207267 7.60046e-19)
(0.851585 0.296221 -2.19454e-19)
(1.02924 0.349184 1.12761e-18)
(1.12083 0.372358 7.31593e-19)
(1.16085 0.386228 3.33005e-19)
(1.1788 0.387895 -8.32396e-19)
(1.18615 0.390738 2.72488e-18)
(1.19305 0.391896 4.69547e-19)
(1.20312 0.389241 -9.84705e-19)
(-0.0323254 0.0107389 2.30394e-18)
(-0.0634335 0.0178391 -1.64397e-18)
(-0.0668114 0.0176826 5.26562e-19)
(-0.0472605 0.0255315 -5.24792e-20)
(0.0183221 0.0164334 2.66002e-18)
(0.326214 0.127845 -2.17514e-19)
(0.692778 0.250292 -9.16528e-19)
(0.940357 0.326026 2.2742e-18)
(1.07813 0.367292 2.19291e-19)
(1.14485 0.382761 9.4214e-19)
(1.17095 0.3912 -1.9029e-18)
(1.18189 0.388622 4.29032e-20)
(1.18667 0.390343 -8.5363e-19)
(1.19256 0.389401 -1.74832e-19)
(1.19962 0.38511 -5.75575e-19)
(-0.0331532 0.0101565 -6.16077e-19)
(-0.0639961 0.0177371 1.71201e-18)
(-0.062242 0.0198928 1.03001e-18)
(-0.03869 0.0205236 8.1709e-19)
(0.0945962 0.0291291 -4.40825e-19)
(0.484716 0.179287 -1.76742e-19)
(0.807402 0.286416 1.17536e-18)
(1.00751 0.349045 -9.63713e-19)
(1.11222 0.380473 2.98479e-19)
(1.15932 0.389794 -1.58975e-18)
(1.17606 0.394109 1.14981e-19)
(1.18343 0.389021 2.39974e-19)
(1.18581 0.389977 -3.54229e-19)
(1.19014 0.38626 -2.09705e-18)
(1.19679 0.381668 8.78031e-19)
(-0.0341216 0.00883622 -1.08025e-18)
(-0.0640494 0.0154834 -1.34888e-18)
(-0.0598922 0.0199556 7.06972e-19)
(-0.0214114 0.00540166 -9.38351e-20)
(0.223601 0.0789898 -1.07638e-18)
(0.623097 0.224725 -4.83872e-20)
(0.899639 0.316143 -8.23607e-19)
(1.05809 0.366545 -1.67006e-18)
(1.13539 0.389438 -6.98922e-19)
(1.16795 0.394368 6.52787e-19)
(1.17834 0.395934 5.98337e-19)
(1.18277 0.389103 -6.21763e-20)
(1.18387 0.389436 -9.48993e-19)
(1.18831 0.383805 1.72659e-18)
(1.19327 0.379116 5.34923e-19)
(-0.0357076 0.00701965 1.06158e-18)
(-0.0638874 0.0129883 2.46854e-21)
(-0.0598751 0.016184 -1.73356e-18)
(0.0221375 -0.00619048 -3.76918e-20)
(0.38183 0.136961 2.6156e-19)
(0.742842 0.262885 4.77965e-19)
(0.972103 0.339833 -8.71751e-19)
(1.09443 0.379641 4.61487e-19)
(1.15029 0.395783 -1.99237e-20)
(1.17211 0.397519 5.27425e-19)
(1.1782 0.396903 -4.74778e-19)
(1.18135 0.389081 -1.33147e-18)
(1.18178 0.389107 -6.37039e-20)
(1.18535 0.381297 -8.3432e-19)
(1.18918 0.376629 -7.20389e-19)
(-0.0379163 0.00505363 4.31805e-19)
(-0.0638732 0.0118394 -8.81373e-19)
(-0.0576116 0.00745226 8.83246e-19)
(0.100695 0.0152081 -2.77751e-19)
(0.52301 0.186117 -1.49959e-19)
(0.84077 0.295552 -4.34793e-19)
(1.02736 0.359037 6.83641e-19)
(1.12031 0.389528 4.5246e-19)
(1.15958 0.400094 -2.73473e-19)
(1.17371 0.399514 -7.84646e-19)
(1.17714 0.397445 -2.8539e-19)
(1.17912 0.389168 1.3613e-18)
(1.1788 0.388631 8.31386e-19)
(1.18243 0.379108 8.19094e-19)
(1.18533 0.375144 -2.52173e-19)
(-0.0404419 0.00336427 -2.71386e-19)
(-0.0648576 0.0113613 9.71607e-20)
(-0.0434447 -0.00624817 -3.65413e-19)
(0.219872 0.0711198 -4.73463e-21)
(0.643436 0.229095 -2.81021e-19)
(0.920288 0.323092 -4.23567e-19)
(1.06943 0.374284 1.49015e-19)
(1.13796 0.396844 -8.97436e-19)
(1.16464 0.403194 8.10054e-19)
(1.17336 0.401058 1.04437e-18)
(1.17493 0.397825 1.34682e-19)
(1.17631 0.38926 -1.17736e-18)
(1.17583 0.388248 -1.14614e-18)
(1.17901 0.377235 -8.65658e-19)
(1.1806 0.373685 3.48668e-19)
(-0.0429415 0.0029929 -8.76132e-19)
(-0.0672982 0.00897677 2.40125e-19)
(-0.00677452 -0.0174438 -1.75711e-19)
(0.363634 0.129263 -5.41984e-21)
(0.749538 0.264803 -7.17569e-20)
(0.983173 0.345439 -1.63225e-19)
(1.09997 0.38642 3.01592e-19)
(1.14953 0.402519 -1.75829e-19)
(1.16703 0.405535 -2.329e-19)
(1.17198 0.402202 -4.50727e-19)
(1.17244 0.39808 -4.00933e-19)
(1.17325 0.389523 -1.83637e-19)
(1.1723 0.387849 7.10977e-19)
(1.17529 0.37558 -2.75931e-20)
(1.17622 0.372935 5.57682e-19)
(-0.0448783 0.00515424 3.64134e-19)
(-0.0693805 0.0042334 6.10371e-19)
(0.0549264 -0.00822643 1.0171e-19)
(0.495944 0.176613 3.77131e-19)
(0.838437 0.29614 8.25419e-19)
(1.03198 0.36428 3.03538e-19)
(1.12204 0.396172 1.12586e-18)
(1.15671 0.406933 5.98407e-19)
(1.16741 0.407451 3.82379e-19)
(1.16973 0.403302 8.82985e-19)
(1.16935 0.398473 2.75108e-19)
(1.1697 0.389878 5.03184e-19)
(1.16867 0.387484 2.49455e-19)
(1.17137 0.374354 1.17401e-19)
(1.17112 0.372289 3.84619e-19)
(-0.0460752 0.00977938 5.08521e-19)
(-0.0667371 -0.00333588 -8.67412e-19)
(0.140469 0.0289192 -1.6549e-19)
(0.606147 0.217956 3.96002e-19)
(0.911692 0.324012 -8.3411e-19)
(1.0698 0.38005 -3.40788e-19)
(1.13725 0.404016 -6.96116e-19)
(1.16059 0.410593 -2.40187e-20)
(1.16654 0.409216 -1.90283e-19)
(1.16705 0.40438 -7.42674e-19)
(1.16612 0.398899 5.66041e-19)
(1.16606 0.39036 4.26854e-20)
(1.16473 0.387207 -2.43481e-20)
(1.16705 0.373366 2.05445e-19)
(1.16626 0.372027 -4.72363e-19)
(-0.0471451 0.0141186 -3.72927e-20)
(-0.0528436 -0.0126892 3.80501e-19)
(0.250301 0.0815038 1.03922e-19)
(0.702611 0.253634 -5.54518e-19)
(0.970818 0.347539 3.69918e-19)
(1.09806 0.393254 1.18397e-19)
(1.14749 0.410582 -3.11091e-19)
(1.16228 0.413783 -1.48133e-19)
(1.16475 0.41095 -4.51923e-19)
(1.16392 0.405567 8.08171e-20)
(1.1625 0.39955 -5.47833e-19)
(1.16202 0.390987 -3.8862e-19)
(1.16057 0.386991 1.03832e-19)
(1.16259 0.372775 1.07492e-19)
(1.16092 0.371873 -1.86713e-19)
(-0.0486855 0.014625 -1.88755e-19)
(-0.0243077 -0.0182484 -1.20425e-19)
(0.371545 0.132397 2.60785e-19)
(0.786528 0.284175 4.76436e-19)
(1.01747 0.367235 9.27245e-20)
(1.11877 0.404251 -2.5539e-19)
(1.15388 0.416183 3.22209e-19)
(1.16229 0.416777 2.81952e-19)
(1.16232 0.412802 1.47189e-19)
(1.16055 0.406899 2.82187e-20)
(1.15874 0.400322 1.76179e-19)
(1.15789 0.391707 7.81299e-20)
(1.1562 0.386917 -5.47902e-20)
(1.15778 0.372421 -6.89684e-20)
(1.15571 0.371856 6.09181e-20)
(-0.050737 0.00877367 -8.80028e-20)
(0.0184619 -0.0148561 -1.03547e-19)
(0.48592 0.177119 8.54355e-20)
(0.859801 0.312086 -1.12706e-19)
(1.05446 0.383932 -2.41405e-19)
(1.13336 0.413451 1.84259e-20)
(1.15739 0.421166 1.48949e-19)
(1.16118 0.419734 -1.34882e-19)
(1.15942 0.414815 8.95516e-20)
(1.15686 0.408402 1.8112e-19)
(1.15466 0.401321 2.89626e-20)
(1.15339 0.392592 7.25617e-20)
(1.15156 0.386949 -8.76507e-20)