/*--------------------------------*- C++ -*----------------------------------*\
  =========                 |
  \\      /  F ield         | OpenFOAM: The Open Source CFD Toolbox
   \\    /   O peration     | Website:  https://openfoam.org
    \\  /    A nd           | Version:  7
     \\/     M anipulation  |
\*---------------------------------------------------------------------------*/
FoamFile
{
    version     2.0;
    format      ascii;
    class       volScalarField;
    location    "30.0003";
    object      p;
}
// * * * * * * * * * * * * * * * * * * * * * * * * * * * * * * * * * * * * * //

dimensions      [0 2 -2 0 0 0 0];

internalField   nonuniform List<scalar> 
18750
(
-0.0168831
-0.0255788
-0.0407162
-0.0631856
-0.0916253
-0.125471
-0.163913
-0.206296
-0.251925
-0.300208
-0.350549
-0.402323
-0.454789
-0.507151
-0.55868
-0.0217363
-0.0301265
-0.0449958
-0.0672466
-0.0955184
-0.129242
-0.167601
-0.209926
-0.255511
-0.303757
-0.354075
-0.405849
-0.458313
-0.510589
-0.561898
-0.029794
-0.0376659
-0.0520651
-0.0739192
-0.101872
-0.135347
-0.173516
-0.215692
-0.261145
-0.309264
-0.35947
-0.411161
-0.463536
-0.515613
-0.566538
-0.0407664
-0.0479336
-0.0616762
-0.0829685
-0.11046
-0.143562
-0.181432
-0.223359
-0.268583
-0.316472
-0.366454
-0.417948
-0.470129
-0.521905
-0.57233
-0.0542578
-0.0605655
-0.0734874
-0.0940743
-0.120974
-0.153584
-0.191045
-0.232618
-0.277507
-0.32505
-0.374679
-0.425835
-0.477695
-0.529077
-0.57893
-0.0697918
-0.0751066
-0.0870795
-0.106849
-0.133047
-0.165055
-0.201998
-0.243109
-0.287553
-0.334632
-0.383767
-0.434429
-0.485824
-0.536726
-0.585975
-0.086845
-0.0910245
-0.101978
-0.120858
-0.146269
-0.177582
-0.213906
-0.25445
-0.29834
-0.344837
-0.393341
-0.443353
-0.494137
-0.544476
-0.593121
-0.104825
-0.107766
-0.117688
-0.135645
-0.160212
-0.190753
-0.226371
-0.26625
-0.309487
-0.355296
-0.403049
-0.452267
-0.502299
-0.551999
-0.60006
-0.123103
-0.124778
-0.133713
-0.150755
-0.174446
-0.204165
-0.239005
-0.278136
-0.32063
-0.365662
-0.412567
-0.460877
-0.510033
-0.559019
-0.606529
-0.141053
-0.141518
-0.149581
-0.165746
-0.18856
-0.217427
-0.25144
-0.289758
-0.331437
-0.375624
-0.421612
-0.468932
-0.517113
-0.565313
-0.612305
-0.158082
-0.157489
-0.164859
-0.18021
-0.20217
-0.230185
-0.263343
-0.300801
-0.341611
-0.384903
-0.429936
-0.476221
-0.523358
-0.570702
-0.617196
-0.173655
-0.172282
-0.179158
-0.193776
-0.214935
-0.24212
-0.274417
-0.310989
-0.350895
-0.39326
-0.437322
-0.482565
-0.528624
-0.575042
-0.621036
-0.187319
-0.185611
-0.192134
-0.206122
-0.226561
-0.25296
-0.284409
-0.320087
-0.359071
-0.400491
-0.443581
-0.487803
-0.532792
-0.578223
-0.623664
-0.198774
-0.197233
-0.203482
-0.216987
-0.236809
-0.262481
-0.293107
-0.327899
-0.365956
-0.406426
-0.448551
-0.49179
-0.535762
-0.580174
-0.624914
-0.207994
-0.206856
-0.212975
-0.226177
-0.245496
-0.270508
-0.300343
-0.334267
-0.371405
-0.410927
-0.452096
-0.494387
-0.537425
-0.58086
-0.624601
-0.214994
-0.214333
-0.220571
-0.233566
-0.252501
-0.276912
-0.305993
-0.339068
-0.375299
-0.41388
-0.454104
-0.495465
-0.537644
-0.580239
-0.622708
-0.219883
-0.219728
-0.226231
-0.239161
-0.257764
-0.281612
-0.309978
-0.342218
-0.377546
-0.415192
-0.454487
-0.494929
-0.536271
-0.578173
-0.619438
-0.222919
-0.22324
-0.230002
-0.242936
-0.261272
-0.284599
-0.312272
-0.343672
-0.378074
-0.414789
-0.453169
-0.49271
-0.533219
-0.574494
-0.614821
-0.224497
-0.225139
-0.232009
-0.244926
-0.26303
-0.285858
-0.312835
-0.343386
-0.376855
-0.412625
-0.450102
-0.488756
-0.528406
-0.569188
-0.608636
-0.22507
-0.225707
-0.232416
-0.245229
-0.26309
-0.285414
-0.311671
-0.341354
-0.373869
-0.408664
-0.445234
-0.483035
-0.521756
-0.562202
-0.600726
-0.225043
-0.22517
-0.231394
-0.243992
-0.261559
-0.283335
-0.308828
-0.337598
-0.369117
-0.402881
-0.438506
-0.475524
-0.513201
-0.553438
-0.591033
-0.224631
-0.223635
-0.229132
-0.241398
-0.25857
-0.279722
-0.304382
-0.332164
-0.362618
-0.395273
-0.429848
-0.466196
-0.502696
-0.542809
-0.579532
-0.223782
-0.221094
-0.225867
-0.237663
-0.254279
-0.2747
-0.298438
-0.325127
-0.354411
-0.385877
-0.419203
-0.455012
-0.49022
-0.530268
-0.56619
-0.222253
-0.217608
-0.22193
-0.233024
-0.248855
-0.268417
-0.291129
-0.316584
-0.344542
-0.37477
-0.406543
-0.441922
-0.475762
-0.515808
-0.551024
-0.219863
-0.213603
-0.217703
-0.227723
-0.242503
-0.261059
-0.282613
-0.30667
-0.333048
-0.36204
-0.391898
-0.42687
-0.459313
-0.499381
-0.534167
-0.216666
-0.209904
-0.213505
-0.222016
-0.235491
-0.252864
-0.273069
-0.295563
-0.319993
-0.347737
-0.375383
-0.409813
-0.440921
-0.480848
-0.515722
-0.212987
-0.207164
-0.209491
-0.216219
-0.228176
-0.24413
-0.262706
-0.283478
-0.305488
-0.331881
-0.357169
-0.390705
-0.420823
-0.460106
-0.495688
-0.209428
-0.205342
-0.205763
-0.210752
-0.220988
-0.23523
-0.251755
-0.270626
-0.289777
-0.314418
-0.337512
-0.369373
-0.399425
-0.437244
-0.474158
-0.206415
-0.203908
-0.202621
-0.206112
-0.214374
-0.226588
-0.240555
-0.257186
-0.273206
-0.295364
-0.316732
-0.345667
-0.376814
-0.41235
-0.451678
-0.204094
-0.202512
-0.200491
-0.20264
-0.208735
-0.218669
-0.229532
-0.243372
-0.256225
-0.274706
-0.295364
-0.319646
-0.353156
-0.384455
-0.43004
-0.202388
-0.201155
-0.199411
-0.200359
-0.204382
-0.2119
-0.219301
-0.229383
-0.239378
-0.252768
-0.273467
-0.29247
-0.328005
-0.354918
-0.401359
-0.201143
-0.200081
-0.198909
-0.19912
-0.20152
-0.20658
-0.21049
-0.215842
-0.22282
-0.230601
-0.250529
-0.265963
-0.300495
-0.327732
-0.370656
-0.200198
-0.199316
-0.198627
-0.198736
-0.200144
-0.202877
-0.203481
-0.203547
-0.206963
-0.208961
-0.227723
-0.24009
-0.275997
-0.300378
-0.345776
-0.199414
-0.198759
-0.19851
-0.198927
-0.199938
-0.200736
-0.198371
-0.193251
-0.192427
-0.189214
-0.205084
-0.216729
-0.252988
-0.277474
-0.326351
-0.198647
-0.198272
-0.198499
-0.199367
-0.200343
-0.199818
-0.194838
-0.185658
-0.179467
-0.173002
-0.18272
-0.196871
-0.228484
-0.259586
-0.308026
-0.197768
-0.197721
-0.198432
-0.199762
-0.200789
-0.199556
-0.192382
-0.180749
-0.168869
-0.16042
-0.165039
-0.180807
-0.20884
-0.246714
-0.288541
-0.196682
-0.196985
-0.198114
-0.199814
-0.200866
-0.199322
-0.190624
-0.177777
-0.161461
-0.151174
-0.153605
-0.169934
-0.195566
-0.23645
-0.273343
-0.195347
-0.195981
-0.197398
-0.199326
-0.200312
-0.198634
-0.189234
-0.175741
-0.157336
-0.145548
-0.14722
-0.164402
-0.188218
-0.226721
-0.263018
-0.19379
-0.194702
-0.196242
-0.198218
-0.199125
-0.197128
-0.187977
-0.174147
-0.156052
-0.144141
-0.144913
-0.161951
-0.185192
-0.219363
-0.255049
-0.192122
-0.193217
-0.19471
-0.196551
-0.197263
-0.195131
-0.18694
-0.173394
-0.156863
-0.146349
-0.14682
-0.161932
-0.184566
-0.2146
-0.248077
-0.190542
-0.191719
-0.193039
-0.194577
-0.195124
-0.193309
-0.187098
-0.175081
-0.159509
-0.151111
-0.151596
-0.164249
-0.185076
-0.211485
-0.241904
-0.189288
-0.190472
-0.191591
-0.192926
-0.193439
-0.192325
-0.188978
-0.179274
-0.164306
-0.156871
-0.157507
-0.167908
-0.186145
-0.209315
-0.236318
-0.188551
-0.189705
-0.1907
-0.191954
-0.192634
-0.192348
-0.191855
-0.183234
-0.170171
-0.162796
-0.163293
-0.17187
-0.187458
-0.207486
-0.231159
-0.188411
-0.189508
-0.190453
-0.191719
-0.192686
-0.193189
-0.193259
-0.186761
-0.17553
-0.168439
-0.168552
-0.175551
-0.18864
-0.205721
-0.226332
-0.188803
-0.189823
-0.190751
-0.192025
-0.193163
-0.194545
-0.192369
-0.188971
-0.179784
-0.173398
-0.17306
-0.17859
-0.189478
-0.203881
-0.221692
-0.189593
-0.1905
-0.191378
-0.192577
-0.193791
-0.195254
-0.191936
-0.189607
-0.182685
-0.177357
-0.176669
-0.180916
-0.189848
-0.201838
-0.217181
-0.190617
-0.191376
-0.192118
-0.193107
-0.1948
-0.193631
-0.19233
-0.189658
-0.184399
-0.180192
-0.179324
-0.182483
-0.189687
-0.199571
-0.212724
-0.191739
-0.192327
-0.192829
-0.193547
-0.195997
-0.192252
-0.192286
-0.18951
-0.185254
-0.181952
-0.181003
-0.183305
-0.18901
-0.197044
-0.20827
-0.192869
-0.193288
-0.193392
-0.194442
-0.194947
-0.192809
-0.191913
-0.189118
-0.185506
-0.182794
-0.181789
-0.183414
-0.187814
-0.19426
-0.203788
-0.193972
-0.194222
-0.193782
-0.195917
-0.192173
-0.19332
-0.191604
-0.188584
-0.185303
-0.182896
-0.181789
-0.182852
-0.186138
-0.191228
-0.199234
-0.195067
-0.195048
-0.194408
-0.196947
-0.191474
-0.192933
-0.191057
-0.187911
-0.184742
-0.182406
-0.18113
-0.181693
-0.184005
-0.187944
-0.194591
-0.196206
-0.195719
-0.195932
-0.195427
-0.193519
-0.192719
-0.190331
-0.187076
-0.183876
-0.181442
-0.179922
-0.179998
-0.181457
-0.184421
-0.189827
-0.197438
-0.196302
-0.19835
-0.192223
-0.194743
-0.192776
-0.189588
-0.186073
-0.182729
-0.180082
-0.178255
-0.177846
-0.178537
-0.180655
-0.184925
-0.198728
-0.197196
-0.200368
-0.191427
-0.194433
-0.192512
-0.188844
-0.184954
-0.181336
-0.178383
-0.1762
-0.175293
-0.175285
-0.176659
-0.179867
-0.200057
-0.199033
-0.200425
-0.19493
-0.194569
-0.192022
-0.187986
-0.183693
-0.179714
-0.176386
-0.173806
-0.172393
-0.171742
-0.172438
-0.174646
-0.201476
-0.202164
-0.198412
-0.199082
-0.195751
-0.191619
-0.186994
-0.182273
-0.177879
-0.174123
-0.171111
-0.169183
-0.167934
-0.168004
-0.169274
-0.203012
-0.206186
-0.195684
-0.200676
-0.196808
-0.191405
-0.185975
-0.180707
-0.175837
-0.17161
-0.168138
-0.165692
-0.163882
-0.163365
-0.163769
-0.204902
-0.209713
-0.196114
-0.200285
-0.19709
-0.19115
-0.184941
-0.179022
-0.173602
-0.168863
-0.164906
-0.161938
-0.159595
-0.158529
-0.158156
-0.207521
-0.211707
-0.201085
-0.200535
-0.196851
-0.190644
-0.183809
-0.17721
-0.171178
-0.165885
-0.161421
-0.157931
-0.155084
-0.153504
-0.152451
-0.211211
-0.211955
-0.208253
-0.202746
-0.196834
-0.189907
-0.182476
-0.175221
-0.168554
-0.162678
-0.157688
-0.153677
-0.15035
-0.148294
-0.146661
-0.216317
-0.211152
-0.214366
-0.206169
-0.19747
-0.189142
-0.180926
-0.173003
-0.165696
-0.159226
-0.153701
-0.149175
-0.145395
-0.142904
-0.140773
-0.223136
-0.211196
-0.218488
-0.209626
-0.198596
-0.188487
-0.179197
-0.170522
-0.162569
-0.155509
-0.149451
-0.144424
-0.140217
-0.137328
-0.134765
-0.231426
-0.21506
-0.22121
-0.212412
-0.199751
-0.187881
-0.177317
-0.167772
-0.159143
-0.151501
-0.144921
-0.139414
-0.134808
-0.131554
-0.128609
-0.240598
-0.223478
-0.223864
-0.214291
-0.200488
-0.187115
-0.175243
-0.164741
-0.1554
-0.147177
-0.140095
-0.134132
-0.129157
-0.125567
-0.122277
-0.249527
-0.23479
-0.227403
-0.215446
-0.200541
-0.185947
-0.172878
-0.161405
-0.151325
-0.142521
-0.134952
-0.128562
-0.123246
-0.119351
-0.115756
-0.256928
-0.245758
-0.231694
-0.21618
-0.199852
-0.184207
-0.170106
-0.157714
-0.146898
-0.137516
-0.129476
-0.122683
-0.117053
-0.112888
-0.109043
-0.261826
-0.254032
-0.235555
-0.216563
-0.198506
-0.181833
-0.166836
-0.153615
-0.142096
-0.13215
-0.123652
-0.116475
-0.110553
-0.106154
-0.102127
-0.264119
-0.259024
-0.238094
-0.216405
-0.196586
-0.178842
-0.163021
-0.149057
-0.136888
-0.126406
-0.117467
-0.109922
-0.103722
-0.099119
-0.0949796
-0.264666
-0.261245
-0.23908
-0.215503
-0.194104
-0.175271
-0.158649
-0.144009
-0.131248
-0.120266
-0.110911
-0.103015
-0.0965476
-0.0917549
-0.0875357
-0.264515
-0.26156
-0.238626
-0.213742
-0.191021
-0.171133
-0.153723
-0.138449
-0.12515
-0.113711
-0.103971
-0.0957495
-0.0890347
-0.0840537
-0.0796843
-0.264383
-0.26074
-0.236979
-0.211099
-0.187284
-0.166418
-0.14824
-0.132366
-0.118575
-0.106724
-0.0966333
-0.0881248
-0.0812037
-0.0760509
-0.0712946
-0.264583
-0.259261
-0.234366
-0.2076
-0.182848
-0.161096
-0.142188
-0.125746
-0.111507
-0.0992865
-0.0888872
-0.080139
-0.0730774
-0.0678186
-0.0622913
-0.265098
-0.257356
-0.230956
-0.203281
-0.177683
-0.155129
-0.135544
-0.118575
-0.10393
-0.0913878
-0.0807272
-0.0717943
-0.0646685
-0.0593998
-0.052765
-0.265689
-0.255104
-0.226847
-0.198165
-0.171757
-0.148476
-0.128276
-0.110831
-0.0958316
-0.083024
-0.0721589
-0.0631062
-0.0559898
-0.0507046
-0.0430373
-0.265984
-0.252473
-0.222065
-0.192249
-0.165038
-0.141095
-0.12035
-0.102494
-0.0872056
-0.0741999
-0.0631979
-0.0541031
-0.0470651
-0.0415057
-0.0334316
-0.265597
-0.249279
-0.216555
-0.185502
-0.157487
-0.132946
-0.111737
-0.0935508
-0.0780537
-0.0649268
-0.0538619
-0.0448171
-0.0378641
-0.0318402
-0.023913
-0.264217
-0.245158
-0.210194
-0.177871
-0.149067
-0.123998
-0.102422
-0.0840025
-0.0683885
-0.0552115
-0.044158
-0.0352267
-0.0283111
-0.0218671
-0.0143843
-0.261542
-0.239816
-0.20283
-0.169286
-0.139743
-0.114239
-0.0924113
-0.0738641
-0.0582203
-0.045036
-0.0340772
-0.0253021
-0.0183807
-0.0117029
-0.00477831
-0.25733
-0.233049
-0.194317
-0.159681
-0.129494
-0.103677
-0.0817236
-0.0631493
-0.0475071
-0.034403
-0.0236154
-0.0150248
-0.00809666
-0.00139118
0.00493366
-0.251389
-0.224718
-0.184533
-0.148999
-0.118318
-0.0923366
-0.0703564
-0.0518114
-0.0362556
-0.0233216
-0.0127731
-0.00439515
0.002491
0.00907922
0.0147609
-0.243593
-0.214746
-0.173379
-0.137206
-0.106243
-0.0802088
-0.0582678
-0.039847
-0.0244776
-0.0118031
-0.00155725
0.00657424
0.0133521
0.0197273
0.024708
-0.23387
-0.20313
-0.160782
-0.124292
-0.0932686
-0.0672476
-0.0454558
-0.0272658
-0.0121872
0.000138675
0.0100196
0.0178667
0.0244754
0.0305651
0.0347682
-0.222195
-0.189928
-0.146704
-0.110264
-0.0793219
-0.0534583
-0.0319337
-0.0140846
0.000598911
0.0124881
0.0219436
0.0294676
0.0358506
0.0415828
0.0449107
-0.208581
-0.175209
-0.131195
-0.0950351
-0.0643981
-0.0388587
-0.0177245
-0.000326129
0.0138606
0.0252298
0.0342049
0.0413663
0.0474533
0.0527224
0.0550823
-0.193072
-0.158939
-0.114375
-0.0785986
-0.0485092
-0.0234738
-0.00285763
0.0139816
0.0275753
0.0383502
0.0467997
0.0535558
0.0592416
0.0638679
0.0651812
-0.175754
-0.140901
-0.0964155
-0.061069
-0.0316941
-0.0073341
0.012633
0.0288066
0.0417185
0.0518375
0.0597271
0.066026
0.0711609
0.0748661
0.0749379
-0.156756
-0.120872
-0.0774777
-0.0425891
-0.0140192
0.00952063
0.0287098
0.0441139
0.0562644
0.0656788
0.0729796
0.0787482
0.0831426
0.085551
0.083886
-0.136194
-0.0991161
-0.057419
-0.0232565
0.00443253
0.0270381
0.0453304
0.0598666
0.0711858
0.0798554
0.0865292
0.0916607
0.0950882
0.0957846
0.0918735
-0.114077
-0.0760659
-0.0362149
-0.00311876
0.0235806
0.0451556
0.0624464
0.0760258
0.0864529
0.0943374
0.10032
0.104666
0.106886
0.105653
0.0998437
-0.0903504
-0.0521683
-0.0139799
0.0177918
0.0433564
0.0638059
0.0800042
0.0925495
0.102031
0.109081
0.114274
0.117659
0.118492
0.115661
0.109703
-0.0651826
-0.0275287
0.00912544
0.0394162
0.0636948
0.0829207
0.0979459
0.109391
0.117875
0.124031
0.128316
0.130585
0.130005
0.126089
0.123165
-0.0387916
-0.00214908
0.0329554
0.0616636
0.0845256
0.102431
0.116211
0.126498
0.133934
0.139122
0.142393
0.143469
0.141638
0.137204
0.136332
-0.0113892
0.0239256
0.0573867
0.084428
0.105769
0.122267
0.134735
0.143813
0.150148
0.154294
0.156475
0.156372
0.153528
0.148969
0.148854
0.0168363
0.0506057
0.0823058
0.107601
0.127337
0.142353
0.153452
0.161273
0.166455
0.169496
0.170548
0.169321
0.165618
0.160962
0.160804
0.0457055
0.0777689
0.1076
0.131074
0.149139
0.162611
0.172292
0.178813
0.182795
0.184686
0.184601
0.182321
0.177872
0.173014
0.172329
0.0750484
0.10528
0.133151
0.15474
0.171079
0.18296
0.191182
0.196367
0.199111
0.199824
0.198608
0.195313
0.190137
0.18493
0.18357
0.104698
0.132997
0.15884
0.178493
0.193063
0.203318
0.210049
0.213868
0.215348
0.21487
0.212538
0.208267
0.202365
0.196676
0.19455
0.134491
0.160779
0.184544
0.202225
0.214996
0.223598
0.228817
0.231249
0.23145
0.229776
0.226336
0.221096
0.214449
0.208212
0.205306
0.164268
0.188486
0.210141
0.225829
0.236782
0.243718
0.247411
0.248447
0.247362
0.244497
0.239965
0.233769
0.226359
0.219507
0.215803
0.193872
0.21598
0.235511
0.249199
0.258327
0.263593
0.265758
0.265396
0.263026
0.258975
0.253358
0.246211
0.238036
0.230557
0.226038
0.22315
0.243129
0.260534
0.272229
0.279539
0.28314
0.283784
0.282031
0.278387
0.273165
0.266479
0.258393
0.249443
0.241306
0.235969
0.251954
0.269802
0.285095
0.294816
0.300325
0.302278
0.301416
0.298289
0.293385
0.287005
0.279267
0.270258
0.260552
0.251753
0.245578
0.28014
0.295872
0.309082
0.316861
0.320596
0.320927
0.318585
0.314106
0.307966
0.300453
0.291684
0.281771
0.271312
0.26184
0.25483
0.307569
0.32122
0.332385
0.338265
0.340266
0.339011
0.335222
0.329421
0.322072
0.313452
0.30368
0.292894
0.281705
0.271555
0.263701
0.334109
0.345727
0.3549
0.358937
0.359251
0.356455
0.351259
0.344176
0.335654
0.325959
0.315215
0.303581
0.291681
0.280859
0.272166
0.359633
0.369283
0.376529
0.378785
0.377471
0.373188
0.366633
0.358311
0.348656
0.337926
0.32625
0.313807
0.301218
0.289725
0.280198
0.384021
0.391782
0.397175
0.397726
0.394851
0.38914
0.381284
0.371774
0.361033
0.349309
0.336742
0.323527
0.310278
0.298127
0.287778
0.407158
0.413124
0.416749
0.415679
0.411317
0.404248
0.395153
0.384512
0.372736
0.36007
0.346659
0.332715
0.318833
0.306037
0.294885
0.428938
0.433215
0.435168
0.432567
0.426802
0.418451
0.408186
0.396476
0.383723
0.370167
0.355963
0.341335
0.326854
0.313433
0.301502
0.44926
0.451967
0.452353
0.448321
0.441242
0.431692
0.420331
0.40762
0.393953
0.379567
0.364624
0.349359
0.334314
0.320292
0.307612
0.468034
0.469302
0.468231
0.462876
0.45458
0.443918
0.431541
0.417903
0.403388
0.388233
0.372611
0.35676
0.341189
0.326595
0.313202
0.485174
0.485146
0.482739
0.476172
0.466761
0.45508
0.441774
0.427286
0.411995
0.396137
0.379895
0.363512
0.347456
0.332322
0.31826
0.500601
0.499437
0.495818
0.488156
0.477737
0.465136
0.450988
0.435734
0.419742
0.403251
0.386453
0.369591
0.353093
0.337459
0.322776
0.514252
0.512116
0.507416
0.498777
0.487463
0.474044
0.459151
0.443214
0.4266
0.409548
0.39226
0.374977
0.358083
0.341992
0.326742
0.526083
0.523123
0.517482
0.507992
0.4959
0.481771
0.466229
0.4497
0.432546
0.415008
0.397297
0.37965
0.362409
0.345908
0.330154
0.536061
0.532401
0.525971
0.515764
0.503015
0.488286
0.472197
0.455168
0.437558
0.419611
0.401545
0.383593
0.366055
0.349198
0.333009
0.544147
0.539911
0.532848
0.52206
0.508779
0.493564
0.477032
0.459598
0.441618
0.423341
0.40499
0.386792
0.369011
0.351856
0.335307
0.550307
0.545626
0.538084
0.526854
0.513169
0.497585
0.480717
0.462975
0.444714
0.426185
0.407618
0.389234
0.371266
0.353879
0.337053
0.554513
0.549527
0.541659
0.530129
0.516169
0.500334
0.483237
0.465285
0.446834
0.428135
0.409422
0.390911
0.372815
0.355266
0.338249
0.556747
0.551599
0.54356
0.531872
0.517768
0.501801
0.484583
0.466522
0.447971
0.429183
0.410393
0.391817
0.373653
0.356019
0.338901
0.557
0.551835
0.543779
0.532077
0.517959
0.501981
0.484752
0.466682
0.448122
0.429326
0.41053
0.391949
0.37378
0.356139
0.339011
0.555271
0.550236
0.542318
0.530744
0.516744
0.500873
0.483744
0.465764
0.447286
0.428565
0.409832
0.391305
0.373193
0.355624
0.33858
0.55157
0.546809
0.539182
0.527878
0.514126
0.498483
0.481561
0.463772
0.445468
0.426901
0.408301
0.389889
0.371894
0.354474
0.337604
0.545914
0.541566
0.534385
0.523492
0.510118
0.49482
0.478214
0.460714
0.442674
0.424343
0.405945
0.387708
0.369889
0.352688
0.336079
0.53833
0.534528
0.527946
0.517604
0.504735
0.4899
0.473716
0.456602
0.438914
0.420898
0.402773
0.38477
0.367184
0.350268
0.334003
0.528852
0.525722
0.519893
0.510239
0.498001
0.483741
0.468084
0.451451
0.434202
0.41658
0.398796
0.381087
0.363787
0.347216
0.331372
0.517521
0.515185
0.510261
0.501429
0.489943
0.47637
0.46134
0.445281
0.428556
0.411405
0.394031
0.376673
0.35971
0.343538
0.328184
0.504374
0.502969
0.499096
0.491211
0.480594
0.467816
0.453512
0.438116
0.421997
0.405391
0.388493
0.371546
0.354969
0.339244
0.324442
0.489449
0.48914
0.486446
0.479629
0.469994
0.458114
0.44463
0.429983
0.414548
0.398561
0.382205
0.365724
0.349579
0.334344
0.320152
0.47281
0.473755
0.472366
0.466732
0.458187
0.447303
0.434728
0.420913
0.406238
0.390939
0.375189
0.359229
0.343559
0.328854
0.315319
0.454532
0.456878
0.456913
0.452574
0.445221
0.435427
0.423847
0.410942
0.397098
0.382553
0.367469
0.352083
0.336929
0.322788
0.309955
0.434701
0.43858
0.440151
0.437215
0.43115
0.422533
0.41203
0.400107
0.387162
0.373432
0.359074
0.344313
0.329713
0.316165
0.30407
0.413409
0.41894
0.422153
0.420718
0.416032
0.408676
0.399323
0.388451
0.376467
0.363613
0.350035
0.335945
0.321935
0.309003
0.297678
0.390755
0.398045
0.402994
0.403154
0.39993
0.39391
0.385777
0.376019
0.365054
0.353128
0.34038
0.327008
0.313621
0.301327
0.290794
0.366845
0.375988
0.382761
0.384598
0.382912
0.378297
0.371447
0.36286
0.352966
0.342019
0.33015
0.317538
0.304801
0.293157
0.283437
0.341792
0.35287
0.36154
0.365131
0.365049
0.361901
0.356391
0.349026
0.34025
0.330325
0.319374
0.30756
0.295502
0.284521
0.275627
0.315717
0.328794
0.339428
0.344836
0.346417
0.34479
0.340668
0.334569
0.326952
0.318087
0.308097
0.297118
0.285763
0.275447
0.267383
0.288746
0.303873
0.316523
0.323804
0.327097
0.327036
0.324343
0.31955
0.313127
0.305357
0.296356
0.28624
0.275604
0.265959
0.258732
0.261011
0.278222
0.292929
0.302127
0.307171
0.308712
0.307482
0.304025
0.298823
0.292174
0.284192
0.274969
0.265077
0.256097
0.249696
0.23265
0.251962
0.268755
0.279901
0.286726
0.289895
0.290154
0.288056
0.2841
0.278596
0.271655
0.263343
0.254198
0.245875
0.240303
0.203807
0.225219
0.244112
0.257228
0.26585
0.270665
0.272428
0.271706
0.269011
0.264666
0.258782
0.251399
0.243019
0.235348
0.230584
0.174628
0.198122
0.219115
0.234208
0.244634
0.251102
0.254377
0.255039
0.253615
0.250444
0.245635
0.239192
0.231568
0.224517
0.22056
0.145267
0.170805
0.193883
0.210948
0.223172
0.231289
0.236074
0.238118
0.237968
0.235977
0.232249
0.226752
0.219883
0.21344
0.210271
0.115878
0.143403
0.168537
0.187552
0.201557
0.21131
0.217593
0.22101
0.222128
0.22132
0.21869
0.214152
0.208021
0.20212
0.199722
0.0866225
0.116056
0.143197
0.164128
0.179885
0.191248
0.199008
0.203778
0.206149
0.206521
0.204996
0.201427
0.196013
0.190591
0.188946
0.057661
0.088905
0.117986
0.140783
0.158249
0.171189
0.180394
0.186489
0.190086
0.191626
0.191222
0.188658
0.183967
0.178892
0.177911
0.0291602
0.0620905
0.0930237
0.117624
0.136745
0.151214
0.161825
0.169209
0.173996
0.176676
0.177399
0.175879
0.171929
0.16706
0.166599
0.00128883
0.0357475
0.068426
0.0947555
0.115466
0.131404
0.143373
0.152004
0.157935
0.161711
0.163553
0.163147
0.16005
0.155287
0.154878
-0.025775
0.00999824
0.0443063
0.0722863
0.0945045
0.111838
0.125108
0.134938
0.141962
0.146773
0.149696
0.150458
0.148367
0.14374
0.142618
-0.051845
-0.0150666
0.0207776
0.0503242
0.0739466
0.09259
0.107095
0.118075
0.12614
0.131912
0.135842
0.137786
0.136935
0.132833
0.129746
-0.0767116
-0.0393998
-0.00203774
0.0289741
0.0538723
0.0737302
0.0893998
0.101471
0.110526
0.117189
0.122021
0.125074
0.125622
0.122604
0.116591
-0.10016
-0.062998
-0.0239959
0.00832662
0.0343518
0.0553272
0.0720813
0.0851796
0.0951745
0.102667
0.108286
0.112295
0.114218
0.112782
0.106919
-0.122017
-0.0857619
-0.0449388
-0.0115592
0.0154501
0.037449
0.0551975
0.069246
0.0801273
0.0884009
0.0947097
0.0995007
0.102622
0.103084
0.0990522
-0.142337
-0.10725
-0.0647524
-0.0306501
-0.00276445
0.0201626
0.038802
0.0537126
0.0654198
0.0744343
0.0813682
0.0867936
0.0908721
0.0930136
0.0911593
-0.161112
-0.127035
-0.0834589
-0.0488983
-0.0202119
0.00353021
0.0229427
0.0386181
0.0510818
0.0607966
0.0683167
0.0742692
0.0790784
0.0824905
0.082331
-0.178226
-0.144858
-0.101196
-0.0662072
-0.0368099
-0.0123961
0.00766209
0.0239993
0.0371404
0.0475066
0.0555828
0.0619894
0.0673415
0.071657
0.0727168
-0.193554
-0.160931
-0.117809
-0.0824363
-0.0524926
-0.0275768
-0.00700245
0.00989117
0.0236215
0.0345775
0.0431754
0.0499843
0.0557329
0.0606811
0.0627707
-0.207009
-0.175471
-0.133126
-0.0974715
-0.0672213
-0.0419813
-0.021017
-0.00367425
0.0105498
0.0220217
0.0310964
0.0382657
0.0443086
0.0497145
0.0527554
-0.21855
-0.188511
-0.147028
-0.11132
-0.0809842
-0.0555848
-0.0343521
-0.016669
-0.00205188
0.00985346
0.0193503
0.0268415
0.0331101
0.0388704
0.0427713
-0.228164
-0.199984
-0.159468
-0.124065
-0.0937857
-0.068369
-0.0469845
-0.0290702
-0.0141634
-0.00191163
0.00794764
0.0157223
0.022161
0.0282045
0.0328704
-0.235876
-0.209832
-0.170479
-0.135702
-0.105698
-0.0803281
-0.0589009
-0.0408609
-0.0257678
-0.0132578
-0.00309784
0.00492249
0.0114709
0.0177257
0.023082
-0.241759
-0.218061
-0.180137
-0.146239
-0.116718
-0.091507
-0.0701028
-0.0520314
-0.0368509
-0.024171
-0.0137735
-0.00554158
0.00105077
0.00742226
0.0134122
-0.24594
-0.224745
-0.188538
-0.155711
-0.12682
-0.101913
-0.0806314
-0.0625846
-0.047401
-0.0346401
-0.0240727
-0.0156575
-0.00906965
-0.00272409
0.00385655
-0.248607
-0.230024
-0.195805
-0.164172
-0.136004
-0.111523
-0.0904887
-0.0725667
-0.0574109
-0.044656
-0.0339947
-0.0254248
-0.0188407
-0.0127239
-0.00559452
-0.25
-0.2341
-0.202078
-0.171687
-0.144291
-0.120329
-0.0996557
-0.0819636
-0.066922
-0.0542161
-0.0435434
-0.0348615
-0.0282389
-0.0225337
-0.0149702
-0.250418
-0.237263
-0.207505
-0.178322
-0.151715
-0.128343
-0.108127
-0.0907603
-0.0759239
-0.0633379
-0.0527275
-0.0439967
-0.0372895
-0.0320382
-0.0243377
-0.250165
-0.239863
-0.212203
-0.184129
-0.158313
-0.135595
-0.115917
-0.0989558
-0.0844045
-0.0720143
-0.0615394
-0.0528507
-0.0460677
-0.0410818
-0.0337915
-0.249621
-0.242073
-0.216221
-0.189137
-0.164122
-0.142124
-0.123055
-0.106563
-0.0923616
-0.0802342
-0.0699618
-0.0613921
-0.0546014
-0.0496331
-0.0433605
-0.249141
-0.243915
-0.219531
-0.193347
-0.169175
-0.147973
-0.129574
-0.113603
-0.099802
-0.0879929
-0.0779793
-0.0695929
-0.0628674
-0.0579131
-0.0527225
-0.24895
-0.245305
-0.222033
-0.196738
-0.173503
-0.153182
-0.135504
-0.120094
-0.106738
-0.0952945
-0.0855868
-0.0774382
-0.0708531
-0.0660068
-0.0615656
-0.249045
-0.246004
-0.223562
-0.199275
-0.177138
-0.157788
-0.140869
-0.126053
-0.113185
-0.102151
-0.0927896
-0.084926
-0.078546
-0.0738707
-0.0698051
-0.249104
-0.245534
-0.223892
-0.200938
-0.180125
-0.161819
-0.14568
-0.131493
-0.119159
-0.108578
-0.0995995
-0.092058
-0.0859239
-0.0814353
-0.0775167
-0.248407
-0.243139
-0.222794
-0.201755
-0.182516
-0.165286
-0.14994
-0.136425
-0.12468
-0.114594
-0.106029
-0.0988358
-0.0929672
-0.0886678
-0.0848293
-0.245922
-0.237989
-0.220174
-0.201848
-0.184349
-0.168174
-0.153646
-0.140872
-0.129773
-0.120219
-0.11209
-0.105262
-0.0996712
-0.0955768
-0.0918524
-0.2409
-0.22964
-0.216305
-0.201422
-0.185607
-0.170447
-0.156815
-0.144866
-0.134465
-0.12547
-0.117794
-0.111348
-0.106049
-0.10219
-0.0986495
-0.233484
-0.218787
-0.212116
-0.200652
-0.186208
-0.172094
-0.159495
-0.148459
-0.138785
-0.130361
-0.123154
-0.117109
-0.112124
-0.108538
-0.105248
-0.224664
-0.207837
-0.208691
-0.199442
-0.186077
-0.173187
-0.161779
-0.151702
-0.142757
-0.134908
-0.128183
-0.122564
-0.11792
-0.11464
-0.111656
-0.215695
-0.19989
-0.206074
-0.197497
-0.185284
-0.173898
-0.16378
-0.154643
-0.146398
-0.139124
-0.1329
-0.127734
-0.123459
-0.120516
-0.117879
-0.207642
-0.196383
-0.203286
-0.194667
-0.184109
-0.174466
-0.165591
-0.157304
-0.149724
-0.143028
-0.137322
-0.132635
-0.128758
-0.126181
-0.123928
-0.201055
-0.19645
-0.199068
-0.191222
-0.182997
-0.175086
-0.167249
-0.159696
-0.152754
-0.146644
-0.141467
-0.13728
-0.133829
-0.131651
-0.129831
-0.196133
-0.197135
-0.192954
-0.18789
-0.182389
-0.175806
-0.168722
-0.161826
-0.155518
-0.149996
-0.145352
-0.141676
-0.138678
-0.136936
-0.135616
-0.192572
-0.19674
-0.185968
-0.185848
-0.182407
-0.176477
-0.169976
-0.16373
-0.158051
-0.153106
-0.148984
-0.145827
-0.143308
-0.142042
-0.141305
-0.190047
-0.194646
-0.181426
-0.18568
-0.182583
-0.176914
-0.171036
-0.16546
-0.160383
-0.155986
-0.152368
-0.149732
-0.147717
-0.146965
-0.146909
-0.188215
-0.191109
-0.181331
-0.185948
-0.18221
-0.177112
-0.172004
-0.167062
-0.162525
-0.158636
-0.155501
-0.153386
-0.151903
-0.151701
-0.152421
-0.186712
-0.1872
-0.184039
-0.184142
-0.181111
-0.177293
-0.172954
-0.168539
-0.164471
-0.16105
-0.158374
-0.156778
-0.155857
-0.156241
-0.157825
-0.185319
-0.184234
-0.185846
-0.179989
-0.179991
-0.177658
-0.173865
-0.169865
-0.166207
-0.163214
-0.16097
-0.159889
-0.159569
-0.160578
-0.163095
-0.184014
-0.182529
-0.185596
-0.176904
-0.17992
-0.178082
-0.174635
-0.171029
-0.167728
-0.16511
-0.163267
-0.162694
-0.163017
-0.164705
-0.168215
-0.182749
-0.181694
-0.183513
-0.178017
-0.180115
-0.178268
-0.1753
-0.172051
-0.169018
-0.166707
-0.165224
-0.165153
-0.166179
-0.16861
-0.173173
-0.181551
-0.181125
-0.181214
-0.181077
-0.178771
-0.178168
-0.175961
-0.172951
-0.170059
-0.167965
-0.166796
-0.167216
-0.169011
-0.172288
-0.177979
-0.180446
-0.180465
-0.179805
-0.182326
-0.17692
-0.178371
-0.176594
-0.173678
-0.170816
-0.168827
-0.167913
-0.168826
-0.171477
-0.175728
-0.182648
-0.179382
-0.179643
-0.179241
-0.181181
-0.177876
-0.178647
-0.177037
-0.174246
-0.171267
-0.169216
-0.168487
-0.169911
-0.173535
-0.178934
-0.1872
-0.178311
-0.178732
-0.178858
-0.179782
-0.180524
-0.178048
-0.177274
-0.174673
-0.17136
-0.169018
-0.168411
-0.17041
-0.175149
-0.181895
-0.191666
-0.17722
-0.177806
-0.178298
-0.178978
-0.181275
-0.17766
-0.177569
-0.174954
-0.171002
-0.168091
-0.167566
-0.170255
-0.176291
-0.184616
-0.196064
-0.176149
-0.176898
-0.177609
-0.178554
-0.180053
-0.179121
-0.177484
-0.174993
-0.170049
-0.166268
-0.165855
-0.169412
-0.176932
-0.187084
-0.200439
-0.175189
-0.176078
-0.17691
-0.178037
-0.179117
-0.180476
-0.177076
-0.174856
-0.168256
-0.163411
-0.163208
-0.167849
-0.177074
-0.189304
-0.204816
-0.174476
-0.17547
-0.176344
-0.177529
-0.178536
-0.179603
-0.177618
-0.174081
-0.16532
-0.159495
-0.159658
-0.165565
-0.176706
-0.191309
-0.209253
-0.174164
-0.17523
-0.17612
-0.177291
-0.17811
-0.178359
-0.178373
-0.171823
-0.161129
-0.154675
-0.15527
-0.162604
-0.175905
-0.193127
-0.213818
-0.174371
-0.175488
-0.176433
-0.177599
-0.178153
-0.177662
-0.176771
-0.168474
-0.155962
-0.149276
-0.150204
-0.159064
-0.174792
-0.194888
-0.21857
-0.175143
-0.176283
-0.177356
-0.178609
-0.179028
-0.177766
-0.174125
-0.164737
-0.150482
-0.143696
-0.144675
-0.155325
-0.173602
-0.196726
-0.223653
-0.176385
-0.177505
-0.178769
-0.180232
-0.180706
-0.178825
-0.172573
-0.16101
-0.14628
-0.138355
-0.139136
-0.151994
-0.172694
-0.198951
-0.229149
-0.177904
-0.178928
-0.180342
-0.182076
-0.182726
-0.180616
-0.172629
-0.159786
-0.14408
-0.13413
-0.134889
-0.150136
-0.172366
-0.202166
-0.23523
-0.179476
-0.180305
-0.181741