/*--------------------------------*- C++ -*----------------------------------*\
  =========                 |
  \\      /  F ield         | OpenFOAM: The Open Source CFD Toolbox
   \\    /   O peration     | Website:  https://openfoam.org
    \\  /    A nd           | Version:  7
     \\/     M anipulation  |
\*---------------------------------------------------------------------------*/
FoamFile
{
    version     2.0;
    format      ascii;
    class       surfaceScalarField;
    location    "30.0003";
    object      phi;
}
// * * * * * * * * * * * * * * * * * * * * * * * * * * * * * * * * * * * * * //

dimensions      [0 3 -1 0 0 0 0];

internalField   nonuniform List<scalar> 
37105
(
-1.02772e-05
1.44893e-05
-4.2121e-06
-2.41751e-05
1.94621e-05
-5.56423e-06
-3.86223e-05
2.01262e-05
-5.679e-06
-5.37174e-05
2.09203e-05
-5.82526e-06
-6.9562e-05
2.18281e-05
-5.9835e-06
-8.62194e-05
2.27899e-05
-6.13254e-06
-0.000103743
2.37832e-05
-6.25933e-06
-0.000122164
2.47694e-05
-6.34817e-06
-0.000141513
2.57375e-05
-6.3894e-06
-0.000161813
2.66743e-05
-6.3734e-06
-0.0001831
2.75789e-05
-6.29194e-06
-0.000205396
2.84236e-05
-6.1285e-06
-0.000228706
2.91738e-05
-5.86338e-06
-0.000253037
2.98178e-05
-5.48669e-06
3.04579e-05
-5.01462e-06
-0.00027848
-1.0091e-05
2.45803e-05
-2.38104e-05
3.31815e-05
-3.80837e-05
3.43995e-05
-5.29867e-05
3.58234e-05
-6.8616e-05
3.74574e-05
-8.50257e-05
3.91996e-05
-0.00010226
4.10176e-05
-0.00012034
4.28488e-05
-0.000139281
4.46788e-05
-0.000159095
4.64887e-05
-0.000179801
4.82847e-05
-0.00020141
5.00329e-05
-0.000223929
5.16922e-05
-0.00024736
5.32491e-05
5.48496e-05
-0.000271752
-9.7553e-06
3.43357e-05
-2.31519e-05
4.65781e-05
-3.71115e-05
4.83591e-05
-5.1671e-05
5.03829e-05
-6.69175e-05
5.27039e-05
-8.28905e-05
5.51726e-05
-9.96187e-05
5.77458e-05
-0.000117105
6.03353e-05
-0.000135347
6.29207e-05
-0.000154333
6.54743e-05
-0.000174058
6.80096e-05
-0.000194519
7.04944e-05
-0.000215719
7.28919e-05
-0.00023765
7.51806e-05
7.75144e-05
-0.000260315
-9.27619e-06
4.36118e-05
-2.22106e-05
5.95125e-05
-3.57224e-05
6.1871e-05
-4.97961e-05
6.44566e-05
-6.45056e-05
6.74134e-05
-7.9871e-05
7.0538e-05
-9.5901e-05
7.37758e-05
-0.000112578
7.70122e-05
-0.000129876
8.02186e-05
-0.000147757
8.33555e-05
-0.000166192
8.64447e-05
-0.000185162
8.94646e-05
-0.000204665
9.23948e-05
-0.000224687
9.52021e-05
9.80137e-05
-0.000245186
-8.66575e-06
5.22776e-05
-2.10007e-05
7.18475e-05
-3.39381e-05
7.48084e-05
-4.73966e-05
7.79151e-05
-6.14321e-05
8.14489e-05
-7.60422e-05
8.5148e-05
-9.12132e-05
8.89468e-05
-0.000106906
9.27047e-05
-0.000123071
9.63838e-05
-0.000139647
9.99318e-05
-0.000156583
0.00010338
-0.000173844
0.000106726
-0.000191429
0.00010998
-0.000209325
0.000113098
0.000116159
-0.00022747
-7.94804e-06
6.02256e-05
-1.95372e-05
8.34366e-05
-3.17843e-05
8.70554e-05
-4.45142e-05
9.0645e-05
-5.77585e-05
9.46932e-05
-7.14909e-05
9.88805e-05
-8.56757e-05
0.000103132
-0.000100253
0.000107282
-0.000115153
0.000111284
-0.000130296
0.000115075
-0.000145613
0.000118697
-0.000161062
0.000122174
-0.000176641
0.000125559
-0.000192356
0.000128813
0.000131951
-0.000208148
-7.09071e-06
6.73163e-05
-1.78264e-05
9.41723e-05
-2.92886e-05
9.85176e-05
-4.11947e-05
0.000102551
-5.3551e-05
0.00010705
-6.63095e-05
0.000111639
-7.94133e-05
0.000116235
-9.27841e-05
0.000120652
-0.000106338
0.000124838
-0.000119982
0.000128719
-0.000133637
0.000132351
-0.000147253
0.00013579
-0.000160838
0.000139144
-0.000174421
0.000142397
0.000145503
-0.000187973
-6.10471e-06
7.3421e-05
-1.58831e-05
0.000103951
-2.64806e-05
0.000109115
-3.74858e-05
0.000113556
-4.88782e-05
0.000118442
-6.05907e-05
0.000123351
-7.25486e-05
0.000128193
-8.46587e-05
0.000132763
-9.68263e-05
0.000137006
-0.000108953
0.000140846
-0.000120953
0.000144352
-0.000132776
0.000147613
-0.000144435
0.000150803
-0.00015599
0.000153951
0.000156963
-0.00016745
-5.00362e-06
7.84247e-05
-1.37243e-05
0.000112671
-2.33919e-05
0.000118783
-3.34363e-05
0.000123601
-4.3807e-05
0.000128813
-5.44236e-05
0.000133968
-6.51961e-05
0.000138966
-7.60197e-05
0.000143586
-8.67927e-05
0.000147779
-9.74153e-05
0.000151468
-0.000107804
0.00015474
-0.000117905
0.000157715
-0.000127733
0.000160631
-0.00013737
0.000163589
0.000166465
-0.000146872
-3.79693e-06
8.22216e-05
-1.13702e-05
0.000120245
-2.00565e-05
0.000127469
-2.90936e-05
0.000132638
-3.84018e-05
0.000138121
-4.78915e-05
0.000143458
-5.74601e-05
0.000148534
-6.69937e-05
0.00015312
-7.63859e-05
0.000157171
-8.55393e-05
0.000160622
-9.43746e-05
0.000163575
-0.000102837
0.000166177
-0.000110931
0.000168724
-0.000118746
0.000171404
0.000174101
-0.000126382
-2.48877e-06
8.47104e-05
-8.84562e-06
0.000126602
-1.65079e-05
0.000135131
-2.45032e-05
0.000140633
-3.27227e-05
0.00014634
-4.10702e-05
0.000151805
-4.9432e-05
0.000156896
-5.76882e-05
0.000161376
-6.57285e-05
0.000165211
-7.34576e-05
0.000168351
-8.08024e-05
0.00017092
-8.77077e-05
0.000173083
-9.41554e-05
0.000175172
-0.000100215
0.000177464
0.00017992
-0.000106034
-1.06679e-06
8.57771e-05
-6.18393e-06
0.000131719
-1.27785e-05
0.000141726
-1.97072e-05
0.000147562
-2.68253e-05
0.000153458
-3.40282e-05
0.000159008
-4.11925e-05
0.000164061
-4.81941e-05
0.000168378
-5.49197e-05
0.000171937
-6.12738e-05
0.000174705
-6.71866e-05
0.000176833
-7.26068e-05
0.000178503
-7.74885e-05
0.000180054
-8.18381e-05
0.000181813
0.000183932
-8.58498e-05
4.11057e-07
8.53661e-05
-3.42636e-06
0.000135556
-8.89385e-06
0.000147193
-1.47455e-05
0.000153414
-2.07613e-05
0.000159474
-2.68268e-05
0.000165074
-3.28105e-05
0.000170044
-3.85866e-05
0.000174154
-4.40388e-05
0.000177389
-4.90677e-05
0.000179734
-5.35997e-05
0.000181365
-5.75893e-05
0.000182492
-6.09798e-05
0.000183444
-6.36734e-05
0.000184507
0.000186082
-6.58242e-05
1.76567e-06
8.36004e-05
-6.14602e-07
0.000137936
-4.88666e-06
0.000151465
-9.65825e-06
0.000158185
-1.45783e-05
0.000164394
-1.95214e-05
0.000170017
-2.43469e-05
0.00017487
-2.89295e-05
0.000178736
-3.315e-05
0.00018161
-3.6902e-05
0.000183486
-4.00995e-05
0.000184563
-4.26926e-05
0.000185085
-4.46536e-05
0.000185405
-4.58022e-05
0.000185656
0.000186093
-4.58123e-05
3.21318e-06
8.03872e-05
2.35045e-06
0.000138799
-8.16107e-07
0.000154632
-4.48506e-06
0.000161854
-8.32416e-06
0.000168233
-1.21628e-05
0.000173855
-1.58559e-05
0.000178563
-1.92774e-05
0.000182158
-2.23067e-05
0.000184639
-2.48253e-05
0.000186005
-2.67342e-05
0.000186472
-2.79522e-05
0.000186303
-2.84658e-05
0.000185919
-2.81934e-05
0.000185383
0.000184144
-2.62451e-05
4.67859e-06
7.57086e-05
5.35554e-06
0.000138122
3.42009e-06
0.000156567
7.32811e-07
0.000164541
-2.05774e-06
0.000171024
-4.80354e-06
0.000176601
-7.3921e-06
0.000181151
-9.68429e-06
0.00018445
-1.15586e-05
0.000186513
-1.28792e-05
0.000187325
-1.35408e-05
0.000187133
-1.34224e-05
0.000186185
-1.2442e-05
0.000184938
-1.06396e-05
0.000183581
0.000180935
-7.43016e-06
6.10558e-06
6.96031e-05
8.3651e-06
0.000135863
7.66902e-06
0.000157263
6.06529e-06
0.000166145
4.28427e-06
0.000172805
2.54315e-06
0.000178342
9.79099e-07
0.000182715
-2.52363e-07
0.000185681
-9.8218e-07
0.000187243
-1.12848e-06
0.000187471
-5.61953e-07
0.000186567
8.4731e-07
0.000184776
3.19951e-06
0.000182586
6.65273e-06
0.000180127
0.000176368
1.12193e-05
7.43351e-06
6.21696e-05
1.13162e-05
0.00013198
1.18973e-05
0.000156682
1.13471e-05
0.000166695
1.05878e-05
0.000173564
9.88019e-06
0.00017905
9.37945e-06
0.000183216
9.22556e-06
0.000185835
9.55261e-06
0.000186916
1.0514e-05
0.00018651
1.22339e-05
0.000184847
1.49051e-05
0.000182104
1.8668e-05
0.000178823
2.33097e-05
0.000175486
0.00017004
2.96381e-05
8.58132e-06
5.35882e-05
1.41245e-05
0.000126437
1.60579e-05
0.000154749
1.65716e-05
0.000166182
1.67954e-05
0.00017334
1.70762e-05
0.000178769
1.75802e-05
0.000182712
1.84499e-05
0.000184966
1.98351e-05
0.000185531
2.18935e-05
0.000184452
2.47491e-05
0.000181991
2.86099e-05
0.000178244
3.37954e-05
0.000173638
3.97855e-05
0.000169496
0.000162204
4.76214e-05
9.43651e-06
4.41517e-05
1.66865e-05
0.000119187
2.00814e-05
0.000151354
2.16934e-05
0.00016457
2.28764e-05
0.000172157
2.4108e-05
0.000177537
2.55816e-05
0.000181239
2.74412e-05
0.000183106
2.98489e-05
0.000183123
3.29874e-05
0.000181313
3.69805e-05
0.000177998
4.19636e-05
0.000173261
4.85967e-05
0.000167005
5.59947e-05
0.000162098
0.000153041
6.51573e-05
9.85195e-06
3.42998e-05
1.88816e-05
0.000110157
2.38789e-05
0.000146357
2.66484e-05
0.0001618
2.87853e-05
0.000170021
3.0935e-05
0.000175388
3.3342e-05
0.000178832
3.61608e-05
0.000180287
3.95538e-05
0.00017973
4.37451e-05
0.000177122
4.88996e-05
0.000172844
5.4927e-05
0.000167233
6.29877e-05
0.000158944
7.18887e-05
0.000153197
0.000142522
8.24086e-05
9.67548e-06
2.46243e-05
2.05862e-05
9.92465e-05
2.73338e-05
0.000139609
3.13536e-05
0.00015778
3.44647e-05
0.000166909
3.75114e-05
0.000172341
4.08133e-05
0.00017553
4.45557e-05
0.000176545
4.88968e-05
0.000175389
5.40826e-05
0.000171936
6.04584e-05
0.000166468
6.74756e-05
0.000160216
7.68855e-05
0.000149534
8.73526e-05
0.000142729
0.000130397
9.94768e-05
8.84216e-06
1.57821e-05
2.1677e-05
8.64117e-05
3.0295e-05
0.000130991
3.57034e-05
0.000152372
3.98512e-05
0.000162762
4.37819e-05
0.00016841
4.79351e-05
0.000171377
5.25643e-05
0.000171915
5.78346e-05
0.000170119
6.38958e-05
0.000165875
7.15631e-05
0.0001588
7.95728e-05
0.000152206
9.01805e-05
0.000138927
0.000102225
0.000130685
0.000116207
0.000116416
7.47124e-06
8.31089e-06
2.20011e-05
7.18818e-05
3.25791e-05
0.000120413
3.95729e-05
0.000145378
4.48596e-05
0.000157475
4.96867e-05
0.000163583
5.46468e-05
0.000166416
6.00974e-05
0.000166465
6.63106e-05
0.000163906
7.31234e-05
0.000159062
8.2106e-05
0.000149818
9.12272e-05
0.000143085
0.00010287
0.000127284
0.000116019
0.000117535
9.92621e-05
0.000132963
5.81769e-06
2.4932e-06
2.13714e-05
5.63281e-05
3.39902e-05
0.000107794
4.28101e-05
0.000136558
4.93852e-05
0.0001509
5.51346e-05
0.000157834
6.08796e-05
0.000160671
6.70575e-05
0.000160287
7.42593e-05
0.000156704
8.16945e-05
0.000151627
9.18391e-05
0.000139673
0.000102313
0.000132611
0.000115354
0.000114243
0.00012877
0.00010412
7.96542e-05
0.000148377
4.11375e-06
-1.62055e-06
1.96253e-05
4.08165e-05
3.4338e-05
9.30817e-05
4.52271e-05
0.000125669
5.32665e-05
0.00014286
6.0024e-05
0.000151076
6.65627e-05
0.000154133
7.33167e-05
0.000153533
8.15418e-05
0.000148479
8.9636e-05
0.000143533
0.000100598
0.000128711
0.000112248
0.000120961
0.000127562
9.89296e-05
0.000141164
9.05175e-05
5.79573e-05
0.000162861
2.52786e-06
-4.14842e-06
1.67991e-05
2.65453e-05
3.34599e-05
7.64209e-05
4.65694e-05
0.00011256
5.62999e-05
0.00013313
6.41647e-05
0.000143211
7.16161e-05
0.000146681
7.88387e-05
0.00014631
8.79283e-05
0.000139389
9.68503e-05
0.000134611
0.000108471
0.000117091
0.000120728
0.000108703
0.000138437
8.12204e-05
0.000153058
7.58967e-05
3.44987e-05
0.000176517
1.25124e-06
-5.39965e-06
1.32455e-05
1.45511e-05
3.12292e-05
5.84371e-05
4.652e-05
9.72689e-05
5.82004e-05
0.000121449
6.73602e-05
0.000134051
7.58127e-05
0.000138229
8.35256e-05
0.000138597
9.32345e-05
0.00012968
0.000103183
0.000124662
0.000115424
0.00010485
0.000128049
9.60779e-05
0.000147129
6.21403e-05
0.000163576
5.945e-05
9.67339e-06
0.000188401
4.50455e-07
-5.85011e-06
9.57388e-06
5.42766e-06
2.74992e-05
4.05118e-05
4.47452e-05
8.00229e-05
5.86298e-05
0.000107565
6.92537e-05
0.000123428
7.89665e-05
0.000128516
8.72925e-05
0.000130271
9.70485e-05
0.000119924
0.000108192
0.000113519
0.000121252
9.17907e-05
0.000134666
8.26633e-05
0.000153018
4.37883e-05
0.000172493
3.99751e-05
-1.59904e-05
0.000198157
7.51541e-08
-5.92526e-06
6.39339e-06
-8.90576e-07
2.24123e-05
2.44929e-05
4.09836e-05
6.14516e-05
5.71863e-05
9.13621e-05
6.95185e-05
0.000111095
8.04116e-05
0.000117623
9.01508e-05
0.000120532
9.95419e-05
0.000110533
0.000111194
0.000101866
0.000124114
7.88713e-05
0.00014062
6.61569e-05
0.000154813
2.95956e-05
0.000180339
1.44487e-05
-3.71757e-05
0.000201525
-4.03754e-08
-5.88489e-06
4.03571e-06
-4.96666e-06
1.68226e-05
1.1706e-05
3.52944e-05
4.29798e-05
5.34041e-05
7.32523e-05
6.77639e-05
9.67357e-05
7.97748e-05
0.000105612
9.07761e-05
0.000109531
0.000100893
0.000100417
0.00011296
8.97992e-05
0.000124644
6.71867e-05
0.000143763
4.70382e-05
0.000156873
1.64854e-05
0.000182687
-1.13656e-05
-5.34688e-05
0.000198981
4.15339e-08
-5.92642e-06
2.7305e-06
-7.65562e-06
1.19144e-05
2.5221e-06
2.83279e-05
2.65663e-05
4.71187e-05
5.44615e-05
6.33584e-05
8.0496e-05
7.66584e-05
9.23121e-05
8.90333e-05
9.71561e-05
9.91387e-05
9.03112e-05
0.000114085
7.4853e-05
0.00012199
5.92821e-05
0.000144498
2.45292e-05
0.000154417
6.56739e-06
0.000180207
-3.71558e-05
-7.14506e-05
0.000198188
2.54298e-07
-6.18072e-06
2.29515e-06
-9.69648e-06
8.47465e-06
-3.6574e-06
2.13879e-05
1.3653e-05
3.88401e-05
3.70093e-05
5.60892e-05
6.32469e-05
7.02533e-05
7.81481e-05
8.45096e-05
8.28998e-05
9.38134e-05
8.10075e-05
0.000110703
5.79636e-05
0.000118776
5.12091e-05
0.000141526
1.77906e-06
0.000148924
-8.30489e-07
0.000179497
-6.77293e-05
-7.80489e-05
0.000186096
5.36876e-07
-6.7176e-06
2.31764e-06
-1.14772e-05
6.50723e-06
-7.84699e-06
1.56706e-05
4.48961e-06
2.98505e-05
2.28294e-05
4.63885e-05
4.67089e-05
6.07411e-05
6.37955e-05
7.55897e-05
6.80512e-05
8.61872e-05
7.04099e-05
0.000100787
4.3364e-05
0.000112989
3.90072e-05
0.00013127
-1.65021e-05
0.000141085
-1.06459e-05
0.000170449
-9.70929e-05
-7.67262e-05
0.000169126
7.68899e-07
-7.4865e-06
2.37329e-06
-1.30816e-05
5.31517e-06
-1.07889e-05
1.1363e-05
-1.55819e-06
2.14809e-05
1.27115e-05
3.52598e-05
3.293e-05
4.88139e-05
5.02415e-05
6.23196e-05
5.45455e-05
7.41618e-05
5.85677e-05
8.60436e-05
3.14822e-05
9.9371e-05
2.56798e-05
0.000109488
-2.66194e-05
0.000124891
-2.60482e-05
0.00014221
-0.000114412
-0.000103965
0.000169449
8.28548e-07
-8.31504e-06
2.09017e-06
-1.43433e-05
4.03931e-06
-1.2738e-05
7.72371e-06
-5.24259e-06
1.40858e-05
6.34945e-06
2.39279e-05
2.30878e-05
3.52641e-05
3.89053e-05
4.61099e-05
4.36997e-05
5.71559e-05
4.75218e-05
6.74703e-05
2.11677e-05
7.94157e-05
1.37345e-05
8.7098e-05
-3.43017e-05
0.000113821
-5.27716e-05
0.000139532
-0.000140122
-0.000169058
0.000204624
6.31179e-07
-8.94622e-06
1.24078e-06
-1.49529e-05
2.08133e-06
-1.35786e-05
3.83218e-06
-6.99343e-06
7.08979e-06
3.09183e-06
1.30144e-05
1.71632e-05
2.09717e-05
3.09479e-05
2.88891e-05
3.57822e-05
3.74738e-05
3.89371e-05
4.50135e-05
1.3628e-05
5.91174e-05
-3.69411e-07
7.91948e-05
-5.43791e-05
0.000125959
-9.95356e-05
0.000175763
-0.000189927
-0.000235378
0.000242084
1.56004e-07
-9.10223e-06
-2.13648e-07
-1.45832e-05
-7.1982e-07
-1.30724e-05
-8.28228e-07
-6.88502e-06
-3.08165e-07
2.57177e-06
2.32291e-06
1.45322e-05
6.32361e-06
2.69472e-05
1.11881e-05
3.09178e-05
1.70898e-05
3.30354e-05
2.57472e-05
4.97055e-06
5.40874e-05
-2.87096e-05
9.67566e-05
-9.70484e-05
0.000158277
-0.000161056
0.000207256
-0.000238906
-0.000281771
0.000253649
-5.44164e-07
-8.55806e-06
-2.09228e-06
-1.30351e-05
-4.07616e-06
-1.10885e-05
-6.05342e-06
-4.90776e-06
-7.78075e-06
4.29909e-06
-8.74856e-06
1.55e-05
-8.428e-06
2.66267e-05
-5.72676e-06
2.82165e-05
3.44024e-06
2.38684e-05
2.64775e-05
-1.80667e-05
7.44309e-05
-7.6663e-05
0.000129612
-0.00015223
0.000185737
-0.00021718
0.00022305
-0.000276219
-0.000317637
0.000258916
-1.35102e-06
-7.20704e-06
-4.14303e-06
-1.02431e-05
-7.61784e-06
-7.61369e-06
-1.13922e-05
-1.13336e-06
-1.51937e-05
8.1006e-06
-1.87098e-05
1.9016e-05
-2.03865e-05
2.83035e-05
-1.56138e-05
2.34438e-05
6.82872e-06
1.4259e-06
4.98485e-05
-6.10865e-05
0.000106699
-0.000133514
0.000157529
-0.000203059
0.000200086
-0.000259738
0.000231542
-0.000307675
-0.000344505
0.000258411
-2.09228e-06
-5.11476e-06
-5.94057e-06
-6.3948e-06
-1.06115e-05
-2.94273e-06
-1.56107e-05
3.86582e-06
-2.05033e-05
1.29932e-05
-2.42192e-05
2.27319e-05
-2.3971e-05
2.80552e-05
-1.02943e-05
9.76712e-06
2.80502e-05
-3.69186e-05
8.09855e-05
-0.000114022
0.000132813
-0.000185341
0.000174501
-0.000244747
0.000208144
-0.000293382
0.000233051
-0.000332582
-0.000364747
0.000253292
-2.59149e-06
-2.52327e-06
-7.07144e-06
-1.91485e-06
-1.22705e-05
2.25633e-06
-1.75051e-05
9.10039e-06
-2.18437e-05
1.73318e-05
-2.31206e-05
2.40088e-05
-1.70764e-05
2.2011e-05
9.4183e-06
-1.67276e-05
5.74776e-05
-8.49779e-05
0.000107321
-0.000163866
0.00015032
-0.000228339
0.00018451
-0.000278937
0.00021043
-0.000319302
0.000230231
-0.000352383
-0.000382549
0.000248033
-2.74538e-06
2.22104e-07
-7.31216e-06
2.65194e-06
-1.22982e-05
7.24235e-06
-1.66979e-05
1.35001e-05
-1.91154e-05
1.97493e-05
-1.66937e-05
2.15871e-05
-2.18045e-06
7.49782e-06
3.49103e-05
-5.38184e-05
8.36072e-05
-0.000133675
0.000126737
-0.000206996
0.000161643
-0.000263245
0.000188539
-0.000305833
0.000209178
-0.00033994
0.000226045
-0.00036925
-0.000397023
0.00024052
-2.56274e-06
2.78485e-06
-6.73297e-06
6.82217e-06
-1.0921e-05
1.14304e-05
-1.38173e-05
1.63964e-05
-1.36599e-05
1.95918e-05
-7.69694e-06
1.56242e-05
1.62061e-05
-1.64053e-05
5.9562e-05
-9.71742e-05
0.000103477
-0.000177589
0.000139781
-0.0002433
0.00016753
-0.000290994
0.000189018
-0.000327321
0.000205933
-0.000356856
0.000219737
-0.000383054
-0.000410258
0.000232972
-2.13546e-06
4.9203e-06
-5.58973e-06
1.02764e-05
-8.68023e-06
1.45209e-05
-9.95158e-06
1.76678e-05
-7.51075e-06
1.7151e-05
3.36291e-06
4.75051e-06
3.65248e-05
-4.95671e-05
7.97434e-05
-0.000140393
0.000117951
-0.000215797
0.00014762
-0.000272968
0.000169812
-0.000313187
0.000187016
-0.000344524
0.000200795
-0.000370636
0.000213307
-0.000395566
-0.00042226
0.000225309
-1.59447e-06
6.51478e-06
-4.20216e-06
1.28841e-05
-6.16253e-06
1.64813e-05
-5.99049e-06
1.74957e-05
-2.24212e-06
1.34026e-05
1.60568e-05
-1.35484e-05
5.64148e-05
-8.99251e-05
9.56126e-05
-0.000179591
0.000127574
-0.000247759
0.000151497
-0.000296892
0.000169181
-0.00033087
0.000183192
-0.000358535
0.000195203
-0.000382647
0.000206265
-0.000406628
-0.00043294
0.000216945
-1.06197e-06
7.57675e-06
-2.84818e-06
1.46703e-05
-3.82934e-06
1.74625e-05
-2.57351e-06
1.62399e-05
3.65275e-06
7.17635e-06
3.07385e-05
-4.06342e-05
7.26627e-05
-0.000131849
0.00010717
-0.000214098
0.000133324
-0.000273913
0.000152364
-0.000315932
0.000166672
-0.000345178
0.000178531
-0.000370395
0.00018884
-0.000392956
0.000198933
-0.00041672
-0.000443156
0.000209149
-6.26351e-07
8.2031e-06
-1.7184e-06
1.57624e-05
-1.85789e-06
1.76019e-05
-3.43837e-07
1.47258e-05
1.17476e-05
-4.91504e-06
4.69143e-05
-7.58009e-05
8.51049e-05
-0.00017004
0.000114751
-0.000243744
0.000135947
-0.000295108
0.000151149
-0.000331134
0.000162909
-0.000356938
0.000172978
-0.000380463
0.000182294
-0.000402273
0.000191714
-0.000426141
-0.000452224
0.000200783
-3.35757e-07
8.53886e-06
-8.87983e-07
1.63146e-05
-3.97981e-07
1.71119e-05
2.0602e-06
1.22676e-05
2.17063e-05
-2.45612e-05
6.11185e-05
-0.000115213
9.45068e-05
-0.000203428
0.000119053
-0.000268291
0.000136179
-0.000312234
0.000148425
-0.00034338
0.000158249
-0.000366762
0.000167162
-0.000389376
0.000175583
-0.000410693
0.000184128
-0.000434687
-0.000460794
0.000192698
-2.03416e-07
8.74227e-06
-2.99103e-07
1.64103e-05
2.64053e-07
1.65488e-05
6.16624e-06
6.36546e-06
3.43292e-05
-5.27242e-05
7.16001e-05
-0.000152484
0.000100659
-0.000232488
0.000120811
-0.000288442
0.000134616
-0.00032604
0.000144648
-0.000353411
0.000153114
-0.000375228
0.000160981
-0.000397244
0.000168667
-0.000418378
0.000176739
-0.000442759
-0.000468581
0.000184526
-1.92009e-07
8.93428e-06
4.06396e-08
1.61777e-05
4.45165e-07
1.61443e-05
1.24065e-05
-5.59584e-06
4.70734e-05
-8.73911e-05
7.97576e-05
-0.000185168
0.000104139
-0.000256869
0.000120563
-0.000304866
0.000131773
-0.000337249
0.000140173
-0.000361812
0.000147555
-0.000382609
0.000154673
-0.000404363
0.0001618
-0.000425505
0.000169137
-0.000450095
-0.0004757
0.000176256
-2.42354e-07
9.17664e-06
9.74253e-08
1.58379e-05
1.3845e-06
1.48572e-05
2.01654e-05
-2.43767e-05
5.68158e-05
-0.000124042
8.5471e-05
-0.000213823
0.000105504
-0.000276903
0.000118815
-0.000318176
0.000128024
-0.000346458
0.000135194
-0.000368981
0.000141803
-0.000389218
0.000148251
-0.000410811
0.000154757
-0.000432012
0.000161581
-0.000456919
-0.000482297
0.000168178
-2.41242e-07
9.41788e-06
-8.76688e-08
1.56843e-05
4.2256e-06
1.05439e-05
3.02589e-05
-5.041e-05
6.36638e-05
-0.000157446
8.87547e-05
-0.000238914
0.000105254
-0.000293402
0.000116008
-0.000328931
0.000123655
-0.000354105
0.000129915
-0.000375242
0.000135857
-0.00039516
0.000141728
-0.000416682
0.000147776
-0.00043806
0.000153985
-0.000463128
-0.0004882
0.000159887
-2.52193e-07
9.67007e-06
-4.16986e-07
1.58491e-05
8.73655e-06
1.39039e-06
4.01045e-05
-8.1778e-05
6.90375e-05
-0.000186379
9.0045e-05
-0.000259922
0.000103602
-0.000306959
0.000112407
-0.000337736
0.000118879
-0.000360576
0.000124409
-0.000380773
0.000129818
-0.000400568
0.000135191
-0.000422055
0.000140697
-0.000443567
0.000146338
-0.000468768
-0.000493661
0.0001518
-2.86169e-07
9.95624e-06
-4.36403e-07
1.59993e-05
1.38727e-05
-1.29188e-05
4.73174e-05
-0.000115223
7.2655e-05
-0.000211717
8.99432e-05
-0.00027721
0.000100989
-0.000318005
0.00010827
-0.000345016
0.000113826
-0.000366133
0.000118782
-0.000385728
0.000123698
-0.000405485
0.000128579
-0.000426936
0.000133644
-0.000448632
0.000138751
-0.000473875
-0.000498493
0.000143584
-1.96036e-07
1.01523e-05
7.16839e-07
1.50864e-05
2.06765e-05
-3.28784e-05
5.17702e-05
-0.000146316
7.44856e-05
-0.000234432
8.87827e-05
-0.000291507
9.76906e-05
-0.000326913
0.000103743
-0.000351068
0.000108595
-0.000370985
0.000113055
-0.000390188
0.000117526
-0.000409956
0.000121977
-0.000431387
0.000126559
-0.000453214
0.000131099
-0.000478415
-0.000502881
0.000135486
-2.02355e-07
1.03546e-05
3.21515e-06
1.16689e-05
2.78997e-05
-5.75629e-05
5.52061e-05
-0.000173623
7.47104e-05
-0.000253937
8.66195e-05
-0.000303416
9.38991e-05
-0.000334193
9.89902e-05
-0.000356159
0.000103252
-0.000375247
0.000107279
-0.000394214
0.000111328
-0.000414006
0.000115332
-0.00043539
0.000119466
-0.000457348
0.000123522
-0.000482472
-0.000506741
0.000127383
-2.65959e-07
1.06206e-05
6.31124e-06
5.09174e-06
3.4062e-05
-8.53137e-05
5.75923e-05
-0.000197153
7.38355e-05
-0.00027018
8.36866e-05
-0.000313267
8.97252e-05
-0.000340231
9.40711e-05
-0.000360505
9.78447e-05
-0.000379021
0.000101467
-0.000397836
0.000105105
-0.000417644
0.000108699
-0.000438984
0.000112377
-0.000461026
0.000115905
-0.000485999
-0.000510164
0.000119328
-3.01844e-07
1.09224e-05
9.56349e-06
-4.7736e-06
3.82224e-05
-0.000113973
5.89167e-05
-0.000217847
7.22242e-05
-0.000283487
8.02412e-05
-0.000321284
8.52868e-05
-0.000345277
8.90566e-05
-0.000364275
9.24036e-05
-0.000382368
9.56422e-05
-0.000401075
9.88829e-05
-0.000420885
0.000102053
-0.000442154
0.00010528
-0.000464253
0.000108352
-0.000489071
-0.000513152
0.000111341
-3.00455e-07
1.12229e-05
1.32139e-05
-1.82879e-05
4.02277e-05
-0.000140986
5.90333e-05
-0.000236653
7.00614e-05
-0.000294515
7.65096e-05
-0.000327732
8.07018e-05
-0.000349469
8.39762e-05
-0.000367549
8.69439e-05
-0.000385336
8.98149e-05
-0.000403946
9.26578e-05
-0.000423728
9.54239e-05
-0.00044492
9.8211e-05
-0.00046704
0.000100801
-0.000491661
-0.000515721
0.00010337
-2.43663e-07
1.14666e-05
1.73067e-05
-3.58383e-05
4.14012e-05
-0.000165081
5.80063e-05
-0.000253258
6.73509e-05
-0.00030386
7.25796e-05
-0.000332961
7.60513e-05
-0.000352941
7.88823e-05
-0.00037038
8.14862e-05
-0.00038794
8.39938e-05
-0.000406453
8.64495e-05
-0.000426183
8.88049e-05
-0.000447276
9.11475e-05
-0.000469382
9.33026e-05
-0.000493816
-0.000517884
9.54647e-05
3.15161e-07
1.11514e-05
2.07483e-05
-5.62715e-05
4.20796e-05
-0.000186412
5.62841e-05
-0.000267463
6.41664e-05
-0.000311742
6.84943e-05
-0.000337289
7.13841e-05
-0.000355831
7.3798e-05
-0.000372794
7.60422e-05
-0.000390184
7.81894e-05
-0.000408601
8.02559e-05
-0.00042825
8.22096e-05
-0.00044923
8.41242e-05
-0.000471297
8.58342e-05
-0.000495526
-0.000519608
8.75584e-05
1.15665e-06
9.99474e-06
2.34555e-05
-7.85703e-05
4.21595e-05
-0.000205116
5.41273e-05
-0.000279431
6.06707e-05
-0.000318286
6.42806e-05
-0.000340899
6.67084e-05
-0.000358259
6.87448e-05
-0.000374831
7.06295e-05
-0.000392069
7.24097e-05
-0.000410381
7.40909e-05
-0.000429931
7.56412e-05
-0.00045078
7.71207e-05
-0.000472776
7.84054e-05
-0.000496811
-0.000520918
7.97158e-05
2.46065e-06
7.53408e-06
2.52919e-05
-0.000101402
4.18005e-05
-0.000221625
5.17097e-05
-0.00028934
5.70244e-05
-0.0003236
6.00049e-05
-0.000343879
6.20371e-05
-0.000360291
6.37222e-05
-0.000376516
6.52515e-05
-0.000393598
6.66642e-05
-0.000411794
6.7957e-05
-0.000431224
6.91067e-05
-0.00045193
7.01623e-05
-0.000473832
7.10068e-05
-0.000497655
-0.000521752
7.18404e-05
4.23022e-06
3.30386e-06
2.62778e-05
-0.000123449
4.1014e-05
-0.000236361
4.91182e-05
-0.000297444
5.33248e-05
-0.000327807
5.5718e-05
-0.000346272
5.73814e-05
-0.000361954
5.8735e-05
-0.000377869
5.99158e-05
-0.000394779
6.09582e-05
-0.000412836
6.18635e-05
-0.000432129
6.26118e-05
-0.000452678
6.32367e-05
-0.000474457
6.3643e-05
-0.000498062
-0.000522125
6.40166e-05
6.27425e-06
-2.97039e-06
2.63545e-05
-0.000143529
3.97131e-05
-0.00024972
4.63932e-05
-0.000304124
4.96281e-05
-0.000331042
5.14665e-05
-0.000348111
5.27627e-05
-0.00036325
5.37859e-05
-0.000378892
5.46216e-05
-0.000395614
5.52973e-05
-0.000413512
5.58142e-05
-0.000432646
5.616e-05
-0.000453024
5.63613e-05
-0.000474658
5.63276e-05
-0.000498028
-0.000522016
5.62186e-05
8.51815e-06
-1.14885e-05
2.63109e-05
-0.000161322
3.79547e-05
-0.000261363
4.34937e-05
-0.000309663
4.59402e-05
-0.000333488
4.72692e-05
-0.00034944
4.81942e-05
-0.000364175
4.88839e-05
-0.000379582
4.93764e-05
-0.000396107
4.96858e-05
-0.000413821
4.98149e-05
-0.000432775
4.97563e-05
-0.000452965
4.95294e-05
-0.000474431
4.90619e-05
-0.00049756
-0.000521437
4.84827e-05
1.03421e-05
-2.18307e-05
2.61266e-05
-0.000177107
3.59459e-05
-0.000271183
4.04235e-05
-0.000314141
4.22422e-05
-0.000335307
4.31291e-05
-0.000350327
4.36889e-05
-0.000364735
4.40371e-05
-0.00037993
4.41835e-05
-0.000396253
4.41293e-05
-0.000413767
4.38716e-05
-0.000432517
4.34055e-05
-0.000452499
4.27512e-05
-0.000473777
4.18555e-05
-0.000496665
-0.000520376
4.07941e-05
1.15509e-05
-3.33816e-05
2.55781e-05
-0.000191134
3.37423e-05
-0.000279347
3.72397e-05
-0.000317638
3.85297e-05
-0.000336597
3.90373e-05
-0.000350834
3.92484e-05
-0.000364946
3.92537e-05
-0.000379936
3.9052e-05
-0.000396052
3.86338e-05
-0.000413349
3.79914e-05
-0.000431875
3.71172e-05
-0.000451625
3.6027e-05
-0.000472687
3.47e-05
-0.000495337
-0.00051885
3.31739e-05
1.21598e-05
-4.55414e-05
2.46716e-05
-0.000203646
3.1396e-05
-0.000286071
3.40147e-05
-0.000320257
3.48316e-05
-0.000337414
3.49961e-05
-0.000350999
3.48749e-05
-0.000364825
3.45383e-05
-0.000379599
3.39859e-05
-0.000395499
3.3205e-05
-0.000412568
3.21822e-05
-0.000430852
3.09047e-05
-0.000450347
2.93788e-05
-0.000471161
2.75969e-05
-0.000493556
-0.000516864
2.56115e-05
1.22701e-05
-5.78114e-05
2.34451e-05
-0.000214821
2.89327e-05
-0.000291559
3.0789e-05
-0.000322113
3.11723e-05
-0.000337797
3.10109e-05
-0.000350837
3.05679e-05
-0.000364382
2.98945e-05
-0.000378926
2.89923e-05
-0.000394597
2.78484e-05
-0.000411424
2.64485e-05
-0.000429452
2.47798e-05
-0.000448679
2.28323e-05
-0.000469214
2.0551e-05
-0.000491274
-0.000514422
1.81085e-05
1.20233e-05
-6.98348e-05
2.19739e-05
-0.000224771
2.63949e-05
-0.00029598
2.75912e-05
-0.000323309
2.75722e-05
-0.000337778
2.7092e-05
-0.000350357
2.63321e-05
-0.000363622
2.53251e-05
-0.000377919
2.4074e-05
-0.000393346
2.25684e-05
-0.000409918
2.07938e-05
-0.000427678
1.87424e-05
-0.000446627
1.64075e-05
-0.000466879
1.3617e-05
-0.000488484
-0.000511451
1.06456e-05
1.15306e-05
-8.13653e-05
2.03251e-05
-0.000233566
2.38125e-05
-0.000299467
2.44366e-05
-0.000323934
2.40439e-05
-0.000337386
2.32475e-05
-0.000349561
2.21712e-05
-0.000362546
2.08335e-05
-0.000376581
1.92365e-05
-0.000391749
1.73701e-05
-0.000408052
1.52206e-05
-0.000425528
1.27866e-05
-0.000444193
1.00739e-05
-0.000464166
6.89358e-06
-0.000485303
-0.000507713
3.15629e-06
1.0867e-05
-9.22323e-05
1.85608e-05
-0.00024126
2.12229e-05
-0.000302129
2.13429e-05
-0.000324054
2.05977e-05
-0.00033664
1.94853e-05
-0.000348448
1.8091e-05
-0.000361152
1.64229e-05
-0.000374913
1.44818e-05
-0.000389808
1.22565e-05
-0.000405827
9.73474e-06
-0.000423006
6.92049e-06
-0.000441379
3.76192e-06
-0.000461007
5.86748e-07
-0.000482128
-0.000503213
-3.9136e-06
1.00681e-05
-0.0001023
1.67283e-05
-0.00024792
1.86568e-05
-0.000304058
1.83236e-05
-0.00032372
1.724e-05
-0.000335557
1.58102e-05
-0.000347018
1.40951e-05
-0.000359437
1.20964e-05
-0.000372914
9.81254e-06
-0.000387524
7.22886e-06
-0.000403243
4.33999e-06
-0.000420118
1.11555e-06
-0.000438155
-2.39991e-06
-0.000457492
-6.21864e-06
-0.000478309
-0.000498778
-1.06538e-05
9.13529e-06
-0.000111436
1.48731e-05
-0.000253658
1.61437e-05
-0.000305328
1.53929e-05
-0.00032297
1.39759e-05
-0.00033414
1.22261e-05
-0.000345269
1.01867e-05
-0.000357397
7.85475e-06
-0.000370582
5.22496e-06
-0.000384894
2.28161e-06
-0.0004003
-9.59914e-07
-0.000416876
-4.49418e-06
-0.00043462
-8.30128e-06
-0.000453685
-1.27303e-05
-0.00047388
-0.000494146
-1.73616e-05
8.2596e-06
-0.000119695
1.30411e-05
-0.000258439
1.3697e-05
-0.000305984
1.25519e-05
-0.000321824
1.08064e-05
-0.000332394
8.73445e-06
-0.000343197
6.36507e-06
-0.000355028
3.69429e-06
-0.000367911
6.97593e-07
-0.000381897
-2.55296e-06
-0.000397049
-6.12409e-06
-0.000413305
-9.99751e-06
-0.000430747
-1.42016e-05
-0.000449481
-1.90444e-05
-0.000469038
-0.000489193
-2.39975e-05
7.40529e-06
-0.000127101
1.12612e-05
-0.000262295
1.13292e-05
-0.000306052
9.80148e-06
-0.000320297
7.73182e-06
-0.000330325
5.33348e-06
-0.000340798
2.6234e-06
-0.000352318
-4.04647e-07
-0.000364883
-3.66587e-06
-0.000378636
-7.27207e-06
-0.000393443
-1.11903e-05
-0.000409387
-1.54194e-05
-0.000426518
-2.00421e-05
-0.000444858
-2.52082e-05
-0.000463872
-0.000483872
-3.053e-05
6.56495e-06
-0.000133666
9.54544e-06
-0.000265276
9.04737e-06
-0.000305554
7.14542e-06
-0.000318395
4.74986e-06
-0.000327929
2.011e-06
-0.000338059
-1.02548e-06
-0.000349281
-4.31552e-06
-0.000361593
-7.94473e-06
-0.000375007
-1.18949e-05
-0.000389493
-1.61578e-05
-0.000405124
-2.07561e-05
-0.00042192
-2.5805e-05
-0.000439809
-3.12528e-05
-0.000458424