/*--------------------------------*- C++ -*----------------------------------*\
  =========                 |
  \\      /  F ield         | OpenFOAM: The Open Source CFD Toolbox
   \\    /   O peration     | Website:  https://openfoam.org
    \\  /    A nd           | Version:  7
     \\/     M anipulation  |
\*---------------------------------------------------------------------------*/
FoamFile
{
    version     2.0;
    format      ascii;
    class       volScalarField;
    location    "0.28125";
    object      p;
}
// * * * * * * * * * * * * * * * * * * * * * * * * * * * * * * * * * * * * * //

dimensions      [0 2 -2 0 0 0 0];

internalField   nonuniform List<scalar> 
10000
(
-6.13359e-09
-1.86423e-05
-5.7222e-05
-0.000105281
-0.000156107
-0.000208551
-0.000260876
-0.000311383
-0.000358748
-0.000402035
-0.000440478
-0.000473386
-0.000500257
-0.000520802
-0.000534806
-0.000542067
-0.000542439
-0.00053589
-0.000522467
-0.000502205
-0.000475103
-0.000441176
-0.000400495
-0.000353178
-0.00029935
-0.000239098
-0.000172466
-9.94874e-05
-2.02284e-05
6.51983e-05
0.000156661
0.00025405
0.0003573
0.000466375
0.000581228
0.000701763
0.000827834
0.000959266
0.00109589
0.00123756
0.00138415
0.00153552
0.00169149
0.00185182
0.00201624
0.00218442
0.00235602
0.0025307
0.00270809
0.00288784
0.00306956
0.00325282
0.00343716
0.00362208
0.00380705
0.0039915
0.00417484
0.00435648
0.00453579
0.00471217
0.00488501
0.00505371
0.00521766
0.00537626
0.00552892
0.00567508
0.00581417
0.00594567
0.0060691
0.00618401
0.00628999
0.00638668
0.00647379
0.00655108
0.00661838
0.0066756
0.0067227
0.00675974
0.00678682
0.00680415
0.00681199
0.0068107
0.00680072
0.00678254
0.00675678
0.00672411
0.00668528
0.00664116
0.00659267
0.00654089
0.00648695
0.00643216
0.00637796
0.00632596
0.00627799
0.00623605
0.00620231
0.00617901
0.00616843
0.00616995
-1.16371e-05
-2.93155e-05
-6.08838e-05
-9.99851e-05
-0.000142509
-0.000186552
-0.000230717
-0.000273618
-0.000314026
-0.000350985
-0.000383708
-0.000411542
-0.000434011
-0.000450777
-0.000461549
-0.000466063
-0.000464159
-0.000455805
-0.00044101
-0.000419742
-0.000391943
-0.000357608
-0.00031681
-0.000269659
-0.00021625
-0.000156628
-9.08098e-05
-1.88236e-05
5.92539e-05
0.000143303
0.000233196
0.000328838
0.000430181
0.0005372
0.00064984
0.000767991
0.000891491
0.00102016
0.00115383
0.00129237
0.00143564
0.00158352
0.00173581
0.00189229
0.00205266
0.00221659
0.00238375
0.0025538
0.00272639
0.00290117
0.00307777
0.00325577
0.00343473
0.00361416
0.00379354
0.00397233
0.00414995
0.00432583
0.00449938
0.00467004
0.00483722
0.00500035
0.00515885
0.00531217
0.00545975
0.00560106
0.00573557
0.0058628
0.0059823
0.00609364
0.00619647
0.00629045
0.00637531
0.00645086
0.00651694
0.00657347
0.00662046
0.00665795
0.00668608
0.00670505
0.00671513
0.00671668
0.00671013
0.00669599
0.00667482
0.0066473
0.00661415
0.0065762
0.00653435
0.00648959
0.006443
0.00639579
0.00634924
0.00630479
0.00626397
0.00622841
0.00619974
0.00617955
0.00616987
0.0061714
-1.6946e-05
-3.24729e-05
-5.83838e-05
-9.16144e-05
-0.000128455
-0.000166828
-0.000205391
-0.000242914
-0.000278303
-0.000310592
-0.000338982
-0.000362902
-0.00038194
-0.000395711
-0.000403846
-0.000406075
-0.000402273
-0.000392407
-0.000376431
-0.00035425
-0.000325778
-0.000291021
-0.00025007
-0.00020302
-0.000149919
-9.07687e-05
-2.55686e-05
4.56385e-05
0.000122757
0.000205664
0.000294247
0.000388439
0.000488211
0.000593541
0.000704358
0.000820535
0.000941899
0.00106827
0.0011995
0.00133545
0.00147602
0.00162105
0.00177037
0.00192373
0.00208082
0.00224133
0.00240492
0.00257126
0.00274003
0.00291087
0.00308342
0.00325728
0.00343202
0.00360715
0.00378216
0.00395654
0.00412971
0.00430113
0.00447023
0.00463647
0.00479928
0.00495813
0.00511245
0.00526173
0.00540542
0.00554301
0.00567402
0.00579798
0.00591447
0.0060231
0.0061235
0.0062154
0.00629852
0.0063727
0.00643781
0.00649377
0.00654061
0.00657838
0.00660722
0.00662735
0.00663903
0.00664263
0.00663857
0.00662734
0.00660951
0.00658572
0.00655668
0.00652319
0.00648608
0.00644631
0.00640489
0.00636292
0.00632157
0.00628209
0.00624581
0.0062141
0.00618828
0.00616962
0.00616006
0.00616082
-9.2466e-06
-2.57966e-05
-4.99327e-05
-7.98705e-05
-0.000113247
-0.000148081
-0.000182924
-0.000216711
-0.000248457
-0.000277231
-0.000302309
-0.000323197
-0.000339492
-0.000350778
-0.000356681
-0.000356973
-0.000351559
-0.000340381
-0.000323334
-0.000300285
-0.000271156
-0.000235985
-0.000194871
-0.000147875
-9.4992e-05
-3.61926e-05
2.85156e-05
9.90671e-05
0.000175354
0.000257261
0.000344705
0.000437647
0.00053607
0.00063994
0.000749172
0.000863623
0.000983123
0.0011075
0.00123661
0.00137035
0.00150861
0.00165123
0.00179802
0.00194873
0.00210306
0.00226069
0.0024213
0.00258457
0.00275017
0.00291777
0.00308701
0.0032575
0.0034288
0.00360045
0.00377195
0.00394277
0.00411238
0.00428023
0.00444579
0.00460852
0.00476788
0.00492334
0.00507438
0.00522046
0.00536109
0.00549577
0.00562403
0.00574543
0.00585956
0.00596604
0.00606454
0.00615477
0.0062365
0.00630957
0.00637386
0.00642931
0.00647595
0.00651385
0.00654315
0.00656407
0.00657688
0.00658193
0.00657965
0.00657051
0.00655509
0.00653399
0.00650791
0.0064776
0.00644388
0.00640761
0.00636976
0.00633133
0.00629339
0.00625704
0.00622343
0.00619375
0.0061691
0.0061506
0.00613979
0.00613776
1.08293e-05
-1.07034e-05
-3.60439e-05
-6.48871e-05
-9.64483e-05
-0.000129056
-0.000161356
-0.000192373
-0.000221229
-0.000247138
-0.000269498
-0.000287847
-0.000301753
-0.0003108
-0.000314681
-0.000313234
-0.000306361
-0.00029395
-0.000275855
-0.000251942
-0.000222174
-0.000186615
-0.000145341
-9.83644e-05
-4.56379e-05
1.28705e-05
7.71316e-05
0.00014706
0.000222549
0.000303509
0.000389888
0.000481666
0.000578826
0.000681318
0.000789043
0.000901856
0.00101959
0.00114209
0.00126923
0.00140091
0.00153702
0.00167741
0.00182187
0.00197014
0.00212194
0.00227694
0.00243484
0.00259533
0.00275809
0.00292279
0.00308908
0.00325657
0.00342484
0.00359342
0.00376182
0.00392953
0.00409603
0.00426078
0.00442326
0.00458296
0.00473933
0.00489189
0.00504009
0.00518345
0.00532146
0.00545364
0.00557955
0.00569875
0.00581085
0.00591548
0.00601232
0.00610111
0.00618162
0.00625369
0.00631723
0.00637218
0.00641858
0.00645649
0.00648608
0.00650755
0.00652118
0.00652733
0.00652641
0.00651889
0.00650533
0.00648632
0.00646253
0.00643467
0.00640353
0.00636993
0.00633474
0.00629888
0.00626333
0.00622905
0.00619704
0.0061683
0.00614378
0.00612442
0.00611118
0.00610459
3.8495e-05
1.03653e-05
-1.80742e-05
-4.76242e-05
-7.87577e-05
-0.000110289
-0.000141073
-0.000170185
-0.000196884
-0.000220586
-0.000240799
-0.000257052
-0.000268903
-0.000275997
-0.000278126
-0.000275168
-0.000266987
-0.000253423
-0.000234322
-0.000209593
-0.000179244
-0.000143337
-0.000101904
-5.49098e-05
-2.29115e-06
5.59674e-05
0.000119811
0.000189145
0.000263878
0.000343953
0.000429346
0.000520047
0.00061603
0.000717231
0.000823541
0.000934813
0.0010509
0.00117165
0.00129697
0.00142676
0.00156091
0.00169926
0.00184159
0.00198766
0.00213717
0.00228981
0.0024453
0.00260331
0.00276356
0.00292571
0.00308943
0.00325431
0.00341995
0.00358589
0.00375163
0.00391668
0.00408052
0.00424264
0.00440253
0.00455966
0.00471354
0.00486365
0.00500949
0.00515057
0.0052864
0.00541651
0.00554045
0.00565782
0.00576822
0.00587131
0.00596676
0.00605431
0.00613376
0.00620496
0.0062678
0.00632227
0.00636837
0.00640619
0.0064359
0.0064577
0.00647187
0.00647877
0.0064788
0.00647244
0.00646021
0.00644271
0.00642056
0.00639447
0.00636517
0.00633343
0.00630007
0.00626592
0.00623184
0.00619871
0.00616738
0.00613867
0.00611341
0.00609236
0.00607581
0.00606363
7.02999e-05
3.49368e-05
2.32864e-06
-2.91545e-05
-6.1044e-05
-9.25062e-05
-0.000122596
-0.000150564
-0.000175847
-0.000197996
-0.00021657
-0.000231117
-0.000241255
-0.000246736
-0.000247416
-0.000243169
-0.000233819
-0.000219191
-0.000199168
-0.000173715
-0.000142862
-0.000106645
-6.50483e-05
-1.80076e-05
3.45333e-05
9.25645e-05
0.000156011
0.00022478
0.000298807
0.000378067
0.000462559
0.000552272
0.000647168
0.000747171
0.000852164
0.000962009
0.00107657
0.00119573
0.0013194
0.00144749
0.00157987
0.00171639
0.00185682
0.00200092
0.00214841
0.00229898
0.00245236
0.00260823
0.00276632
0.0029263
0.00308782
0.0032505
0.00341394
0.00357766
0.0037412
0.00390406
0.00406572
0.00422569
0.00438346
0.00453853
0.00469039
0.00483855
0.0049825
0.00512176
0.00525585
0.00538431
0.0055067
0.0056226
0.00573165
0.00583348
0.00592779
0.00601433
0.0060929
0.00616333
0.00622556
0.00627954
0.0063253
0.00636294
0.0063926
0.00641451
0.00642894
0.00643625
0.00643684
0.00643118
0.00641979
0.00640323
0.00638214
0.00635715
0.00632899
0.00629837
0.00626606
0.00623281
0.0061994
0.0061666
0.00613513
0.00610569
0.00607898
0.00605563
0.0060352
0.00601694
0.000103521
6.07786e-05
2.35164e-05
-1.06878e-05
-4.419e-05
-7.63322e-05
-0.000106397
-0.000133895
-0.000158413
-0.000179551
-0.0001969
-0.000210099
-0.000218885
-0.000223095
-0.000222601
-0.00021725
-0.000206856
-0.000191275
-0.000170451
-0.000144388
-0.000113108
-7.66091e-05
-3.4844e-05
1.22573e-05
6.47297e-05
0.000122537
0.000185596
0.000253828
0.000327201
0.000405717
0.000489386
0.000578193
0.000672086
0.000770978
0.000874752
0.000983283
0.00109646
0.00121418
0.00133637
0.00146292
0.00159374
0.00172863
0.00186739
0.00200977
0.00215549
0.00230428
0.00245584
0.00260991
0.00276617
0.00292434
0.00308405
0.00324493
0.00340657
0.00356851
0.00373028
0.00389139
0.00405133
0.00420962
0.00436575
0.00451922
0.00466953
0.0048162
0.00495872
0.0050966
0.00522938
0.0053566
0.00547781
0.00559261
0.00570062
0.00580149
0.00589491
0.00598064
0.00605848
0.00612827
0.00618994
0.00624345
0.00628883
0.00632618
0.00635565
0.00637746
0.00639191
0.00639932
0.00640011
0.00639473
0.00638371
0.0063676
0.00634699
0.00632253
0.00629488
0.00626474
0.00623279
0.00619976
0.00616632
0.00613316
0.00610091
0.00607014
0.00604145
0.00601536
0.00599078
0.00596633
0.000136087
8.60383e-05
4.39064e-05
6.57264e-06
-2.90527e-05
-6.24405e-05
-9.30756e-05
-0.000120678
-0.000144925
-0.000165455
-0.000181945
-0.000194162
-0.000201954
-0.000205197
-0.000203753
-0.000197457
-0.000186152
-0.000169758
-0.000148273
-0.000121714
-9.00757e-05
-5.33209e-05
-1.13909e-05
3.57683e-05
8.81631e-05
0.000145739
0.000208414
0.000276138
0.000348909
0.000426748
0.000509668
0.000597644
0.00069061
0.000788473
0.000891124
0.000998457
0.00111038
0.00122681
0.00134768
0.0014729
0.00160233
0.0017358
0.00187311
0.00201401
0.00215823
0.0023055
0.00245556
0.00260813
0.00276291
0.00291961
0.00307788
0.00323735
0.0033976
0.00355817
0.00371859
0.00387839
0.00403706
0.00419411
0.00434905
0.00450139
0.00465061
0.00479623
0.00493776
0.0050747
0.00520658
0.00533294
0.00545334
0.00556737
0.00567465
0.00577484
0.00586761
0.00595273
0.00603
0.00609926
0.00616043
0.00621348
0.00625844
0.00629542
0.00632456
0.00634609
0.0063603
0.00636753
0.00636818
0.00636272
0.00635165
0.00633552
0.00631492
0.00629045
0.00626277
0.00623251
0.00620035
0.00616693
0.00613289
0.00609882
0.00606527
0.0060327
0.00600165
0.00597256
0.00594373
0.00591325
0.000166404
0.000109222
6.21778e-05
2.15453e-05
-1.65127e-05
-5.15984e-05
-8.32952e-05
-0.000111425
-0.000135746
-0.000155997
-0.000171983
-0.00018358
-0.000190697
-0.000193219
-0.000191005
-0.000183915
-0.000171854
-0.000154808
-0.000132806
-0.000105852
-7.39098e-05
-3.69251e-05
5.15171e-06
5.23466e-05
0.000104639
0.000161966
0.000224265
0.000291514
0.000363734
0.000440959
0.000523197
0.000610408
0.000702519
0.000799434
0.000901059
0.00100731
0.00111812
0.00123342
0.00135314
0.00147718
0.00160542
0.00173769
0.00187376
0.00201341
0.00215639
0.00230243
0.00245127
0.00260265
0.00275629
0.00291188
0.00306907
0.0032275
0.00338675
0.00354635
0.00370585
0.00386477
0.0040226
0.00417886
0.00433306
0.0044847
0.00463328
0.0047783
0.00491926
0.00505566
0.00518704
0.00531293
0.00543288
0.00554648
0.00565334
0.0057531
0.00584546
0.00593016
0.006007
0.00607583
0.00613657
0.00618918
0.0062337
0.00627022
0.0062989
0.00631998
0.00633374
0.00634052
0.00634074
0.00633485
0.00632335
0.00630679
0.00628574
0.00626079
0.00623258
0.00620172
0.00616883
0.00613452
0.00609938
0.00606394
0.00602867
0.00599396
0.00596031
0.00592807
0.00589505
0.00585887
0.000193213
0.000129162
7.72638e-05
3.32259e-05
-7.49572e-06
-4.45962e-05
-7.76737e-05
-0.000106609
-0.000131275
-0.000151556
-0.000167374
-0.000178668
-0.000185363
-0.000187353
-0.000184526
-0.000176803
-0.000164164
-0.000146633
-0.000124244
-9.69764e-05
-6.47767e-05
-2.75943e-05
1.4595e-05
6.17861e-05
0.000113941
0.000171004
0.000232937
0.000299743
0.000371463
0.000448131
0.000529745
0.000616252
0.000707572
0.000803619
0.000904318
0.00100961
0.00111944
0.00123376
0.0013525
0.00147555
0.00160278
0.00173403
0.00186909
0.00200774
0.00214972
0.0022948
0.00244273
0.00259324
0.00274605
0.00290087
0.00305736
0.00321512
0.00337375
0.00353279
0.00369177
0.00385022
0.00400765
0.00416356
0.00431745
0.00446884
0.0046172
0.00476204
0.00490286
0.00503915
0.00517042
0.00529621
0.00541606
0.00552954
0.00563627
0.00573587
0.00582804
0.00591251
0.00598908
0.00605759
0.00611795
0.00617014
0.00621418
0.00625018
0.0062783
0.00629876
0.00631187
0.00631797
0.00631747
0.00631083
0.00629856
0.00628119
0.00625929
0.00623344
0.00620426
0.00617234
0.00613828
0.00610265
0.00606599
0.0060288
0.0059915
0.00595441
0.00591798
0.00588257
0.00584551
0.00580401
0.000215457
0.00014486
8.81915e-05
4.06582e-05
-2.87314e-06
-4.21404e-05
-7.67586e-05
-0.0001067
-0.000131973
-0.00015258
-0.000168516
-0.000179745
-0.000186203
-0.000187816
-0.000184535
-0.00017636
-0.000163321
-0.000145458
-0.000122786
-9.5273e-05
-6.28621e-05
-2.55264e-05
1.67245e-05
6.38604e-05
0.000115841
0.000172627
0.000234208
0.000300607
0.000371873
0.000448034
0.000529073
0.000614928
0.000705521
0.000800779
0.000900654
0.00100511
0.0011141
0.00122759
0.0013455
0.00146773
0.00159415
0.00172459
0.00185885
0.00199672
0.00213797
0.00228236
0.00242966
0.00257961
0.00273193
0.00288632
0.00304245
0.00319991
0.0033583
0.00351717
0.00367605
0.00383445
0.00399189
0.00414787
0.0043019
0.00445346
0.00460204
0.00474713
0.00488821
0.00502478
0.00515634
0.0052824
0.00540249
0.00551618
0.00562306
0.00572277
0.00581497
0.00589939
0.00597583
0.00604413
0.00610419
0.00615598
0.00619953
0.00623494
0.00626239
0.0062821
0.00629437
0.00629956
0.0062981
0.00629043
0.00627706
0.00625854
0.00623542
0.00620829
0.00617774
0.00614437
0.00610874
0.00607141
0.00603289
0.00599365
0.00595405
0.00591439
0.00587512
0.00583655
0.00579565
0.0057493
0.000232163
0.000155357
9.40404e-05
4.3003e-05
-3.36603e-06
-4.4837e-05
-8.10933e-05
-0.00011223
-0.000138356
-0.000159536
-0.000175794
-0.000187118
-0.000193479
-0.000194866
-0.000191309
-0.000182865
-0.000169589
-0.000151515
-0.000128645
-0.000100943
-6.83739e-05
-3.09455e-05
1.13023e-05
5.83274e-05
0.0001101
0.000166604
0.00022785
0.000293875
0.000364726
0.00044042
0.000520925
0.000606176
0.000696103
0.000790656
0.000889809
0.000993545
0.00110184
0.00121465
0.00133189
0.00145347
0.00157925
0.00170907
0.00184275
0.00198008
0.00212085
0.00226483
0.00241178
0.00256147
0.00271362
0.00286793
0.00302404
0.00318157
0.0033401
0.00349919
0.00365835
0.00381712
0.00397499
0.00413147
0.00428606
0.00443822
0.00458745
0.00473321
0.00487497
0.00501222
0.00514444
0.00527114
0.00539182
0.00550603
0.00561336
0.00571342
0.00580587
0.00589044
0.00596691
0.0060351
0.00609493
0.00614635
0.00618939
0.00622417
0.00625085
0.00626967
0.00628095
0.00628503
0.00628236
0.00627339
0.00625863
0.00623864
0.00621397
0.00618521
0.00615294
0.00611776
0.00608022
0.00604086
0.00600018
0.00595862
0.00591653
0.00587419
0.00583203
0.00579038
0.00574588
0.00569513
0.000242455
0.000159786
9.40222e-05
3.95894e-05
-9.56737e-06
-5.32649e-05
-9.12704e-05
-0.000123776
-0.000150942
-0.000172855
-0.000189562
-0.000201093
-0.000207489
-0.000208815
-0.000205162
-0.000196617
-0.000183235
-0.000165042
-0.000142039
-0.000114208
-8.15479e-05
-4.41013e-05
-1.92743e-06
4.49343e-05
9.64726e-05
0.000152695
0.000213626
0.000279308
0.000349774
0.000425029
0.000505033
0.000589724
0.000679048
0.00077298
0.000871516
0.000974657
0.00108238
0.00119465
0.00131138
0.00143247
0.00155779
0.00168719
0.0018205
0.00195753
0.00209806
0.00224189
0.00238879
0.00253853
0.00269082
0.00284536
0.00300181
0.00315977
0.00331881
0.0034785
0.00363835
0.00379789
0.00395662
0.00411402
0.00426958
0.00442278
0.00457307
0.00471992
0.00486278
0.00500111
0.00513438
0.00526207
0.00538368
0.00549874
0.0056068
0.00570748
0.00580041
0.00588532
0.00596196
0.00603017
0.00608984
0.00614092
0.00618346
0.00621756
0.00624339
0.00626121
0.00627133
0.00627412
0.00627002
0.00625951
0.00624309
0.00622133
0.0061948
0.00616408
0.00612977
0.00609245
0.00605268
0.006011
0.0059679
0.00592381
0.00587908
0.00583396
0.00578891
0.00574427
0.00569642
0.00564171
0.000245647
0.000157464
8.75077e-05
2.98349e-05
-2.20577e-05
-6.80338e-05
-0.000107899
-0.000141891
-0.000170195
-0.00019292
-0.000210156
-0.000222003
-0.000228581
-0.000230015
-0.000226428
-0.000217914
-0.000204522
-0.000186279
-0.000163205
-0.000135315
-0.000102646
-6.52641e-05
-2.32323e-05
2.34228e-05
7.47104e-05
0.000130656
0.000191291
0.000256649
0.00032675
0.000401585
0.000481115
0.000565288
0.000654074
0.000747471
0.000845496
0.000948158
0.00105544
0.00116731
0.00128367
0.00140443
0.00152947
0.00165864
0.00179179
0.00192873
0.00206928
0.00221323
0.00236036
0.00251043
0.00266318
0.00281829
0.00297541
0.00313415
0.00329408
0.00345475
0.00361569
0.00377641
0.0039364
0.00409515
0.00425212
0.00440678
0.00455856
0.00470692
0.00485129
0.0049911
0.0051258
0.00525486
0.00537774
0.00549396
0.00560306
0.00570461
0.00579826
0.00588369
0.00596067
0.00602902
0.00608861
0.00613941
0.00618144
0.00621483
0.00623975
0.00625646
0.00626528
0.00626661
0.00626087
0.00624857
0.00623024
0.00620644
0.00617775
0.00614477
0.00610811
0.00606835
0.00602607
0.00598181
0.00593605
0.00588925
0.00584173
0.00579378
0.00574585
0.00569832
0.00564736
0.00558912
0.000241225
0.000147858
7.3936e-05
1.31404e-05
-4.14646e-05
-8.97583e-05
-0.000131535
-0.000167048
-0.000196512
-0.000220089
-0.000237937
-0.000250229
-0.000257141
-0.000258833
-0.000255436
-0.000247044
-0.000233709
-0.000215478
-0.000192404
-0.00016454
-0.000131953
-9.47163e-05
-5.28861e-05
-6.46973e-06
4.45597e-05
0.000100236
0.000160585
0.000225628
0.00029537
0.000369797
0.000448877
0.000532578
0.000620892
0.000713841
0.000811454
0.00091375
0.00102072
0.0011323
0.00124844
0.00136903
0.00149395
0.00162308
0.00175627
0.00189335
0.00203415
0.00217848
0.00232612
0.00247683
0.00263034
0.00278634
0.00294447
0.00310434
0.00326552
0.00342756
0.00358998
0.00375229
0.00391396
0.00407448
0.00423328
0.00438983
0.00454353
0.00469382
0.00484011
0.00498181
0.00511835
0.00524914
0.00537365
0.00549136
0.00560178
0.00570449
0.00579909
0.00588526
0.00596275
0.00603135
0.00609096
0.00614153
0.00618308
0.00621574
0.00623968
0.00625519
0.00626258
0.00626227
0.00625471
0.00624041
0.00621991
0.00619379
0.00616266
0.00612714
0.00608783
0.00604535
0.00600029
0.00595319
0.00590457
0.00585488
0.00580447
0.00575362
0.00570284
0.00565252
0.00559867
0.00553729
0.000228731
0.000130461
5.27351e-05
-1.11111e-05
-6.83916e-05
-0.000118975
-0.000162634
-0.000199642
-0.000230272
-0.000254754
-0.000273317
-0.000286185
-0.000293563
-0.000295621
-0.000292495
-0.000284285
-0.000271065
-0.000252914
-0.000229925
-0.000202184
-0.000169768
-0.000132748
-9.11635e-05
-4.50064e-05
5.7605e-06
6.11687e-05
0.000121233
0.000185956
0.000255337
0.000329363
0.000408018
0.000491293
0.000579204
0.000671787
0.000769085
0.000871119
0.000977877
0.00108931
0.00120536
0.00132591
0.00145089
0.00158015
0.00171358
0.00185103
0.00199232
0.00213728
0.0022857
0.00243733
0.00259191
0.00274911
0.00290858
0.00306994
0.00323274
0.00339653
0.00356082
0.00372512
0.00388889
0.0040516
0.00421267
0.00437153
0.00452759
0.00468025
0.00482888
0.00497288
0.00511164
0.00524455
0.00537105
0.00549058
0.00560265
0.00570678
0.00580258
0.00588971
0.00596788
0.0060369
0.00609663
0.00614703
0.00618813
0.00622004
0.00624296
0.00625718
0.00626302
0.00626092
0.00625134
0.00623482
0.00621191
0.00618323
0.00614939
0.00611103
0.0060688
0.00602333
0.00597522
0.00592505
0.00587336
0.00582061
0.00576719
0.00571339
0.00565977
0.00560676
0.00555023
0.00548604
0.00020768
0.000104741
2.33474e-05
-4.34624e-05
-0.000103329
-0.000156107
-0.000201574
-0.000240052
-0.000271878
-0.000297346
-0.00031673
-0.000330281
-0.000338212
-0.000340701
-0.000337895
-0.000329917
-0.000316875
-0.000298889
-0.000276083
-0.000248559
-0.000216393
-0.000179644
-0.000138337
-9.24531e-05
-4.19551e-05
1.31767e-05
7.29408e-05
0.000137329
0.000206339
0.000279971
0.000358228
0.000441124
0.000528696
0.000620992
0.000718062
0.000819928
0.000926582
0.00103798
0.00115405
0.00127472
0.00139989
0.00152947
0.00166334
0.00180135
0.00194337
0.00208921
0.00223867
0.0023915
0.00254744
0.00270616
0.00286731
0.00303049
0.00319527
0.00336119
0.00352775
0.00369445
0.00386074
0.00402606
0.00418984
0.00435146
0.00451031
0.00466577
0.00481718
0.0049639
0.00510529
0.00524071
0.00536956
0.00549128
0.00560531
0.00571117
0.00580843
0.00589674
0.0059758
0.00604538
0.00610536
0.00615567
0.00619635
0.00622752
0.00624939
0.00626223
0.00626642
0.00626238
0.0062506
0.00623165
0.0062061
0.00617458
0.00613776
0.0060963
0.00605086
0.00600212
0.00595071
0.00589724
0.00584226
0.00578629
0.00572974
0.00567295
0.00561649
0.00556085
0.00550181
0.00543511
0.00017759
7.02068e-05
-1.46912e-05
-8.43285e-05
-0.000146652
-0.000201519
-0.000248739
-0.000288695
-0.000321776
-0.00034831
-0.000368594
-0.000382888
-0.000391416
-0.00039437
-0.000391923
-0.000384235
-0.000371453
-0.000353728
-0.000331203
-0.00030398
-0.000272127
-0.000235688
-0.00019468
-0.000149082
-9.88696e-05
-4.4038e-05
1.53982e-05
7.94277e-05
0.000148055
0.000221299
0.000299185
0.000381749
0.000469041
0.00056112
0.000658038
0.000759821
0.00086646
0.000977917
0.00109413
0.00121504
0.00134057
0.00147062
0.00160511
0.0017439
0.00188687
0.00203382
0.00218458
0.00233888
0.00249646
0.002657
0.00282015
0.0029855
0.00315262
0.00332105
0.00349028
0.00365979
0.00382901
0.00399739
0.0041643
0.00432913
0.00449123
0.00464993
0.00480455
0.00495443
0.00509886
0.00523721
0.00536881
0.00549306
0.0056094
0.0057173
0.00581632
0.00590606
0.00598621
0.00605654
0.0061169
0.00616722
0.00620754
0.00623799
0.00625877
0.00627018
0.00627259
0.00626647
0.00625232
0.00623072
0.00620229
0.00616769
0.00612762
0.00608277
0.00603384
0.00598156
0.00592658
0.00586957
0.00581111
0.00575175
0.00569194
0.00563206
0.00557275
0.00551453
0.00545311
0.00538416
0.000138066
2.647e-05
-6.17384e-05
-0.000134044
-0.000198704
-0.000255597
-0.000304562
-0.000346031
-0.000380417
-0.000408065
-0.00042928
-0.000444335
-0.000453477
-0.000456925
-0.000454889
-0.000447567
-0.000435139
-0.000417772
-0.000395613
-0.000368757
-0.00033726
-0.000301159
-0.000260469
-0.000215181
-0.000165285
-0.000110792
-5.17211e-05
1.19213e-05
8.01553e-05
0.000153019
0.000230561
0.000312833
0.000399898
0.000491818
0.000588649
0.000690418
0.000797122
0.000908729
0.00102519
0.00114646
0.00127247
0.00140316
0.00153844
0.00167821
0.00182233
0.00197063
0.00212292
0.00227895
0.00243846
0.00260112
0.00276658
0.00293444
0.00310426
0.00327557
0.00344786
0.00362058
0.00379317
0.00396503
0.00413553
0.00430401
0.00446981
0.00463221
0.00479051
0.00494398
0.00509191
0.00523359
0.00536835
0.00549553
0.00561454
0.00572482
0.00582589
0.00591734
0.00599882
0.00607009
0.00613099
0.00618144
0.00622148
0.00625123
0.00627091
0.00628083
0.00628137
0.00627303
0.00625633
0.00623188
0.00620033
0.0061624
0.00611879
0.00607027
0.00601757
0.00596146
0.00590266
0.00584184
0.00577967
0.00571673
0.00565353
0.00559047
0.00552826
0.00546748
0.00540378
0.00533276
8.8811e-05
-2.67731e-05
-0.000118108
-0.00019295
-0.000259874
-0.000318775
-0.000369499
-0.000412499
-0.000448203
-0.000476966
-0.000499107
-0.000514925
-0.000524697
-0.000528683
-0.00052713
-0.000520264
-0.000508283
-0.000491359
-0.000469631
-0.000443187
-0.000412078
-0.000376339
-0.000335995
-0.000291055
-0.000241524
-0.000187418
-0.000128755
-6.55287e-05
2.30137e-06
7.47943e-05
0.000152015
0.00023403
0.000320906
0.000412713
0.000509506
0.000611317
0.00071815
0.000829983
0.000946783
0.00106851
0.00119514
0.0013266
0.00146284
0.00160376
0.00174924
0.0018991
0.00205315
0.00221117
0.00237286
0.00253793
0.00270601
0.00287671
0.00304958
0.00322414
0.00339988
0.00357623
0.0037526
0.00392839
0.00410292
0.00427553
0.00444549
0.00461206
0.0047745
0.00493203
0.0050839
0.00522937
0.00536771
0.00549824
0.00562031
0.00573333
0.00583679
0.00593024
0.00601332
0.00608576
0.00614738
0.0061981
0.00623795
0.00626705
0.00628563
0.00629401
0.0062926
0.0062819
0.00626247
0.00623496
0.00620007
0.00615853
0.00611111
0.00605862
0.00600186
0.00594163
0.00587871
0.00581384
0.00574771
0.00568099
0.00561421
0.00554786
0.00548268
0.00541931
0.00535338
0.00528043
2.95673e-05
-8.98129e-05
-0.000184141
-0.000261442
-0.000330593
-0.000391488
-0.000443961
-0.000488472
-0.000525465
-0.000555313
-0.000578366
-0.000594955
-0.000605398
-0.000609989
-0.000609002
-0.00060268
-0.000591225
-0.000574806
-0.000553555
-0.000527556
-0.000496861
-0.000461518
-0.000421567
-0.000377031
-0.000327924
-0.000274262
-0.000216052
-0.000153268
-8.58522e-05
-1.37259e-05
6.31891e-05
0.000144967
0.00023168
0.0003234
0.000420188
0.00052208
0.00062909
0.000741209
0.000858422
0.000980712
0.00110806
0.00124043
0.00137778
0.00152002
0.00166702
0.00181864
0.00197467
0.00213489
0.00229903
0.00246678
0.00263779
0.00281164
0.00298791
0.00316609
0.00334566
0.00352604
0.00370663
0.00388678
0.00406581
0.00424301
0.00441761
0.00458884
0.00475589
0.00491797
0.00507427
0.00522399
0.00536638
0.00550069
0.00562624
0.00574239
0.00584861
0.0059444
0.00602937
0.00610324
0.0061658
0.00621695
0.00625673
0.00628525
0.00630275
0.00630956
0.00630611
0.00629292
0.0062706
0.00623983
0.00620133
0.00615592
0.00610441
0.00604765
0.00598651
0.00592185
0.00585451
0.00578529
0.00571496
0.00564422
0.00557368
0.00550387
0.0054356
0.00536959
0.00530143
0.00522662
-3.99557e-05
-0.000162982
-0.000260215
-0.000339928
-0.000411265
-0.000474109
-0.000528279
-0.000574246
-0.000612481
-0.00064339
-0.000667358
-0.000684755
-0.00069593
-0.000701202
-0.000700862
-0.000695155
-0.000684283
-0.000668411
-0.000647669
-0.000622145
-0.000591903
-0.000557007
-0.000517511
-0.000473448
-0.000424834
-0.000371676
-0.000313962
-0.000251649
-0.000184661
-0.000112905
-3.6294e-05
4.52511e-05
0.000131808
0.000223451
0.000320246
0.000422239
0.000529456
0.000641905
0.000759591
0.000882517
0.00101068
0.00114408
0.00128266
0.00142635
0.00157505
0.00172859
0.0018868
0.00204945
0.00221627
0.00238696
0.00256117
0.0027385
0.00291849
0.00310065
0.00328444
0.00346926
0.00365448
0.00383945
0.00402344
0.0042057
0.00438543
0.00456181
0.00473399
0.00490112
0.00506234
0.00521682
0.00536374
0.00550231
0.0056318
0.00575153
0.0058609
0.00595941
0.00604661
0.0061222
0.00618594
0.00623773
0.00627758
0.00630562
0.00632208
0.0063273
0.00632174
0.00630594
0.00628056
0.00624631
0.00620397
0.0061544
0.00609849
0.00603715
0.00597131
0.0059019
0.00582982
0.00575595
0.00568111
0.00560609
0.00553155
0.00545809
0.00538658
0.00531782
0.00524739
0.00517073
-0.000120084
-0.000246636
-0.000346699
-0.000428763
-0.000502215
-0.000566928
-0.000622719
-0.000670086
-0.000709534
-0.000741505
-0.00076642
-0.00078468
-0.000796656
-0.00080268
-0.000803047
-0.000798005
-0.000787753
-0.000772458
-0.000752256
-0.000727248
-0.000697515
-0.000663135
-0.000624173
-0.000580664
-0.000532614
-0.000480017
-0.000422842
-0.000361031
-0.00029449
-0.000223121
-0.00014683
-6.55315e-05
2.08546e-05
0.000112408
0.000209203
0.000311298
0.000418734
0.000531539
0.000649739
0.00077336
0.00090242
0.00103692
0.00117684
0.00132211
0.00147263
0.00162826
0.00178882
0.00195408
0.00212381
0.00229768
0.00247537
0.00265646
0.0028405
0.00302698
0.00321535
0.00340501
0.0035953
0.00378553
0.00397494
0.00416275
0.00434811
0.00453015
0.00470798
0.00488069
0.00504738
0.00520715
0.00535913
0.00550247
0.0056364
0.00576018
0.00587317
0.0059748
0.00606462
0.00614226
0.00620747
0.00626013
0.00630024
0.00632791
0.00634339
0.00634702
0.0063393
0.00632079
0.00629218
0.00625424
0.00620781
0.00615381
0.00609319
0.00602693
0.00595604
0.00588153
0.00580437
0.0057255
0.00564585
0.00556624
0.00548742
0.00541007
0.00533513
0.00526346
0.00519064
0.00511207
-0.000211127
-0.000341089
-0.000443888
-0.000528213
-0.000603687
-0.000670184
-0.000727535
-0.000776273
-0.000816936
-0.00085
-0.000875914
-0.000895096
-0.00090793
-0.000914756
-0.000915869
-0.000911521
-0.000901915
-0.000887229
-0.000867611
-0.000843179
-0.00081403
-0.000780253
-0.000741913
-0.000699038
-0.000651623
-0.000599643
-0.000543054
-0.000481781
-0.000415723
-0.000344775
-0.000268837
-0.000187821
-0.000101642
-1.02116e-05
8.65547e-05
0.000188731
0.000296377
0.000409544
0.00052828
0.000652631
0.000782635
0.000918311
0.00105964
0.00120658
0.00135904
0.00151687
0.00167992
0.00184797
0.00202079
0.00219807
0.00237948
0.0025646
0.00275299
0.00294413
0.00313746
0.00333234
0.00352811
0.00372404
0.00391934
0.00411319
0.00430469
0.00449293
0.00467696
0.0048558
0.00502852
0.00519414
0.00535175
0.00550043
0.00563935
0.0057677
0.0058848
0.00599004
0.0060829
0.00616298
0.00623
0.00628381
0.00632439
0.00635186
0.00636645
0.00636852
0.00635859
0.00633727
0.00630529
0.00626345
0.00621268
0.00615396
0.00608831
0.00601679
0.0059405
0.00586051
0.00577788
0.00569366
0.00560882
0.00552428
0.00544087
0.00535934
0.00528071
0.00520592
0.00513053
0.00504993
-0.000313332
-0.000446581
-0.000552001
-0.000638485
-0.000715898
-0.000784125
-0.000843012
-0.000893124
-0.000935031
-0.000969231
-0.00099619
-0.00101634
-0.00103007
-0.00103772
-0.0010396
-0.00103597
-0.00102704
-0.00101301
-0.000994043
-0.000970269
-0.000941798
-0.000908719
-0.000871091
-0.000828931
-0.00078222
-0.000730918
-0.000674966
-0.000614282
-0.000548759
-0.000478286
-0.00040276
-0.000322088
-0.000236177
-0.000144928
-4.8242e-05
5.39727e-05
0.000161799
0.00027531
0.000394578
0.000519668
0.000650636
0.000787517
0.000930308