/*--------------------------------*- C++ -*----------------------------------*\
  =========                 |
  \\      /  F ield         | OpenFOAM: The Open Source CFD Toolbox
   \\    /   O peration     | Website:  https://openfoam.org
    \\  /    A nd           | Version:  7
     \\/     M anipulation  |
\*---------------------------------------------------------------------------*/
FoamFile
{
    version     2.0;
    format      ascii;
    class       surfaceScalarField;
    location    "0.28125";
    object      phi;
}
// * * * * * * * * * * * * * * * * * * * * * * * * * * * * * * * * * * * * * //

dimensions      [0 3 -1 0 0 0 0];

internalField   nonuniform List<scalar> 
19800
(
6.40471e-11
-6.39909e-11
1.64203e-10
-1.00162e-10
2.1414e-10
-4.99311e-11
1.91227e-10
2.28966e-11
8.42447e-11
1.06981e-10
-1.07445e-10
1.91689e-10
-3.79648e-10
2.72197e-10
-7.26152e-10
3.46504e-10
-1.13967e-09
4.1351e-10
-1.61297e-09
4.73301e-10
-2.13911e-09
5.26138e-10
-2.71128e-09
5.72169e-10
-3.32299e-09
6.11708e-10
-3.96834e-09
6.45346e-10
-4.64204e-09
6.73699e-10
-5.33923e-09
6.97187e-10
-6.05539e-09
7.16148e-10
-6.78641e-09
7.31024e-10
-7.52871e-09
7.42296e-10
-8.27907e-09
7.50363e-10
-9.03457e-09
7.55511e-10
-9.79255e-09
7.57986e-10
-1.05506e-08
7.58031e-10
-1.13065e-08
7.55883e-10
-1.20582e-08
7.51763e-10
-1.28041e-08
7.45843e-10
-1.35423e-08
7.38233e-10
-1.42713e-08
7.29003e-10
-1.49895e-08
7.18206e-10
-1.56954e-08
7.05897e-10
-1.63875e-08
6.92136e-10
-1.70645e-08
6.76963e-10
-1.77249e-08
6.60371e-10
-1.83672e-08
6.42318e-10
-1.899e-08
6.22759e-10
-1.95916e-08
6.01663e-10
-2.01706e-08
5.79004e-10
-2.07254e-08
5.5476e-10
-2.12543e-08
5.28904e-10
-2.17557e-08
5.01396e-10
-2.22279e-08
4.72181e-10
-2.26691e-08
4.41203e-10
-2.30775e-08
4.08424e-10
-2.34513e-08
3.7383e-10
-2.37887e-08
3.37423e-10
-2.4088e-08
2.99221e-10
-2.43472e-08
2.59251e-10
-2.45648e-08
2.17547e-10
-2.47389e-08
1.74152e-10
-2.4868e-08
1.29122e-10
-2.49506e-08
8.2536e-11
-2.49851e-08
3.44959e-11
-2.49702e-08
-1.48734e-11
-2.49048e-08
-6.54213e-11
-2.47878e-08
-1.16971e-10
-2.46185e-08
-1.69325e-10
-2.43962e-08
-2.22263e-10
-2.41207e-08
-2.75543e-10
-2.37918e-08
-3.28909e-10
-2.34097e-08
-3.82088e-10
-2.29749e-08
-4.34787e-10
-2.24882e-08
-4.86701e-10
-2.19507e-08
-5.3751e-10
-2.13638e-08
-5.86879e-10
-2.07293e-08
-6.34463e-10
-2.00494e-08
-6.79909e-10
-1.93265e-08
-7.22867e-10
-1.85636e-08
-7.62982e-10
-1.77637e-08
-7.9991e-10
-1.69303e-08
-8.33313e-10
-1.60675e-08
-8.62867e-10
-1.51792e-08
-8.88259e-10
-1.427e-08
-9.09199e-10
-1.33446e-08
-9.25424e-10
-1.24079e-08
-9.36696e-10
-1.14651e-08
-9.42802e-10
-1.05215e-08
-9.43564e-10
-9.5827e-09
-9.38837e-10
-8.65419e-09
-9.28506e-10
-7.7417e-09
-9.12491e-10
-6.85095e-09
-8.90748e-10
-5.98768e-09
-8.63272e-10
-5.15759e-09
-8.30093e-10
-4.36632e-09
-7.91273e-10
-3.61941e-09
-7.46913e-10
-2.92226e-09
-6.97149e-10
-2.28011e-09
-6.42158e-10
-1.69795e-09
-5.82163e-10
-1.18051e-09
-5.17449e-10
-7.32135e-10
-4.48374e-10
-3.56728e-10
-3.75409e-10
-5.75307e-11
-2.99197e-10
1.6315e-10
-2.20678e-10
3.04407e-10
-1.4125e-10
3.67512e-10
-6.30967e-11
3.57338e-10
1.01798e-11
2.84788e-10
7.25481e-11
1.71003e-10
1.13771e-10
5.52868e-11
1.15684e-10
5.52531e-11
7.86254e-11
-1.42622e-10
1.55037e-10
-1.76586e-10
1.21095e-10
-1.59798e-11
-8.57509e-11
2.29745e-10
-4.91339e-10
5.12573e-10
-1.103e-09
8.03352e-10
-1.91688e-09
1.08609e-09
-2.92193e-09
1.35155e-09
-4.10355e-09
1.59514e-09
-5.44542e-09
1.81516e-09
-6.9305e-09
2.01123e-09
-8.54198e-09
2.18365e-09
-1.02637e-08
2.33342e-09
-1.20803e-08
2.462e-09
-1.39776e-08
2.57093e-09
-1.5942e-08
2.66168e-09
-1.79616e-08
2.73572e-09
-2.00251e-08
2.79453e-09
-2.21224e-08
2.83954e-09
-2.42441e-08
2.87208e-09
-2.63819e-08
2.89328e-09
-2.85281e-08
2.90415e-09
-3.06756e-08
2.90559e-09
-3.28182e-08
2.89845e-09
-3.49499e-08
2.88345e-09
-3.70652e-08
2.86119e-09
-3.91591e-08
2.83212e-09
-4.12267e-08
2.79661e-09
-4.32634e-08
2.75494e-09
-4.52649e-08
2.70732e-09
-4.72267e-08
2.65393e-09
-4.91446e-08
2.59486e-09
-5.10143e-08
2.5301e-09
-5.28316e-08
2.45962e-09
-5.45922e-08
2.38335e-09
-5.62917e-08
2.30118e-09
-5.79257e-08
2.21302e-09
-5.94897e-08
2.11875e-09
-6.09791e-08
2.01826e-09
-6.23891e-08
1.91139e-09
-6.37149e-08
1.79803e-09
-6.49518e-08
1.67804e-09
-6.60947e-08
1.55135e-09
-6.71388e-08
1.4179e-09
-6.8079e-08
1.27771e-09
-6.89106e-08
1.13082e-09
-6.96287e-08
9.7731e-10
-7.02285e-08
8.17335e-10
-7.07054e-08
6.51084e-10
-7.10551e-08
4.78818e-10
-7.12734e-08
3.00865e-10
-7.13566e-08
1.17638e-10
-7.13011e-08
-7.0372e-11
-7.11039e-08
-2.62596e-10
-7.07625e-08
-4.58378e-10
-7.02749e-08
-6.5698e-10
-6.96395e-08
-8.57591e-10
-6.88558e-08
-1.05932e-09
-6.79235e-08
-1.26121e-09
-6.68433e-08
-1.46222e-09
-6.56168e-08
-1.66128e-09
-6.42463e-08
-1.85722e-09
-6.2735e-08
-2.04884e-09
-6.10869e-08
-2.23492e-09
-5.93072e-08
-2.41416e-09
-5.74019e-08
-2.58528e-09
-5.53778e-08
-2.74697e-09
-5.32428e-08
-2.89793e-09
-5.10058e-08
-3.03689e-09
-4.86765e-08
-3.16261e-09
-4.62655e-08
-3.27387e-09
-4.37842e-08
-3.36955e-09
-4.12449e-08
-3.44858e-09
-3.86603e-08
-3.50997e-09
-3.60442e-08
-3.55284e-09
-3.34106e-08
-3.57641e-09
-3.07741e-08
-3.58002e-09
-2.81498e-08
-3.56313e-09
-2.5553e-08
-3.5253e-09
-2.29992e-08
-3.46627e-09
-2.05041e-08
-3.38589e-09
-1.80832e-08
-3.28415e-09
-1.57522e-08
-3.16117e-09
-1.35262e-08
-3.01726e-09
-1.14203e-08
-2.85284e-09
-9.44892e-09
-2.66851e-09
-7.62603e-09
-2.46506e-09
-5.96472e-09
-2.24348e-09
-4.47712e-09
-2.00506e-09
-3.17406e-09
-1.75143e-09
-2.06472e-09
-1.48475e-09
-1.15604e-09
-1.20788e-09
-4.51903e-10
-9.24804e-10
4.8071e-11
-6.41218e-10
3.50449e-10
-3.65479e-10
4.7058e-10
-1.09958e-10
4.36649e-10
1.06492e-10
2.94909e-10
2.55553e-10
1.15236e-10
2.95407e-10
1.70465e-10
4.64001e-11
-1.89016e-10
2.07942e-12
-1.32253e-10
-2.29657e-10
2.15762e-10
-7.15924e-10
7.16009e-10
-1.4896e-09
1.28626e-09
-2.56238e-09
1.87613e-09
-3.93106e-09
2.45476e-09
-5.58287e-09
3.00336e-09
-7.49924e-09
3.5115e-09
-9.65809e-09
3.97401e-09
-1.20358e-08
4.38892e-09
-1.46084e-08
4.75623e-09
-1.73523e-08
5.07734e-09
-2.02448e-08
5.35454e-09
-2.32644e-08
5.59054e-09
-2.63909e-08
5.78816e-09
-2.96055e-08
5.95029e-09
-3.28908e-08
6.07987e-09
-3.6231e-08
6.17971e-09
-3.96113e-08
6.25242e-09
-4.30184e-08
6.30035e-09
-4.64399e-08
6.32565e-09
-4.98646e-08
6.33026e-09
-5.3282e-08
6.31591e-09
-5.66826e-08
6.28407e-09
-6.00575e-08
6.23601e-09
-6.33981e-08
6.17276e-09
-6.66966e-08
6.09513e-09
-6.99454e-08
6.00376e-09
-7.31373e-08
5.89915e-09
-7.6265e-08
5.78165e-09
-7.93216e-08
5.65146e-09
-8.23002e-08
5.50866e-09
-8.51938e-08
5.35322e-09
-8.79954e-08
5.18503e-09
-9.06982e-08
5.00393e-09
-9.32949e-08
4.80972e-09
-9.57783e-08
4.60218e-09
-9.81411e-08
4.38106e-09
-1.00376e-07
4.14612e-09
-1.02475e-07
3.89713e-09
-1.04431e-07
3.6339e-09
-1.06236e-07
3.35628e-09
-1.07882e-07
3.06421e-09
-1.09362e-07
2.75772e-09
-1.10668e-07
2.43691e-09
-1.11793e-07
2.10201e-09
-1.12729e-07
1.75336e-09
-1.13469e-07
1.3914e-09
-1.14007e-07
1.01674e-09
-1.14336e-07
6.30134e-10
-1.14451e-07
2.32474e-10
-1.14346e-07
-1.75162e-10
-1.14017e-07
-5.91535e-10
-1.13461e-07
-1.01524e-09
-1.12673e-07
-1.44469e-09
-1.11652e-07
-1.87815e-09
-1.10398e-07
-2.31371e-09
-1.0891e-07
-2.74932e-09
-1.07189e-07
-3.18276e-09
-1.05239e-07
-3.61172e-09
-1.03062e-07
-4.03373e-09
-1.00665e-07
-4.44623e-09
-9.80533e-08
-4.84659e-09
-9.52354e-08
-5.23209e-09
-9.22207e-08
-5.6e-09
-8.90201e-08
-5.94754e-09
-8.5646e-08
-6.27198e-09
-8.21123e-08
-6.57061e-09
-7.84341e-08
-6.8408e-09
-7.4628e-08
-7.08001e-09
-7.07117e-08
-7.28583e-09
-6.67043e-08
-7.456e-09
-6.26258e-08
-7.58845e-09
-5.84973e-08
-7.68131e-09
-5.43408e-08
-7.73293e-09
-5.01789e-08
-7.74191e-09
-4.6035e-08
-7.70709e-09
-4.19327e-08
-7.62762e-09
-3.7896e-08
-7.50291e-09
-3.39492e-08
-7.33267e-09
-3.01164e-08
-7.11695e-09
-2.64215e-08
-6.85608e-09
-2.28881e-08
-6.55075e-09
-1.95389e-08
-6.202e-09
-1.63962e-08
-5.81125e-09
-1.34809e-08
-5.38038e-09
-1.08126e-08
-4.91177e-09
-8.40919e-09
-4.40845e-09
-6.28633e-09
-3.8743e-09
-4.45674e-09
-3.31433e-09
-2.92945e-09
-2.73516e-09
-1.70858e-09
-2.14567e-09
-7.91742e-10
-1.55805e-09
-1.67887e-10
-9.89337e-10
1.85773e-10
-4.63637e-10
3.07526e-10
-1.52957e-11
2.5555e-10
3.07498e-10
1.12977e-10
4.38e-10
2.83433e-10
-2.42975e-11
-1.64738e-10
-2.37795e-10
8.12437e-11
-7.27913e-10
7.05874e-10
-1.55203e-09
1.54012e-09
-2.74108e-09
2.47531e-09
-4.30589e-09
3.44095e-09
-6.24227e-09
4.39114e-09
-8.53572e-09
5.29681e-09
-1.11648e-08
6.14055e-09
-1.41035e-08
6.91277e-09
-1.73237e-08
7.60909e-09
-2.07961e-08
8.22865e-09
-2.44917e-08
8.77293e-09
-2.8382e-08
9.24488e-09
-3.24398e-08
9.64831e-09
-3.66391e-08
9.98751e-09
-4.09559e-08
1.0267e-08
-4.53674e-08
1.04914e-08
-4.98527e-08
1.06651e-08
-5.43925e-08
1.07922e-08
-5.89688e-08
1.08767e-08
-6.35652e-08
1.0922e-08
-6.81664e-08
1.09315e-08
-7.27584e-08
1.09079e-08
-7.7328e-08
1.08537e-08
-8.1863e-08
1.0771e-08
-8.63519e-08
1.06617e-08
-9.07837e-08
1.0527e-08
-9.51482e-08
1.03682e-08
-9.94351e-08
1.01861e-08
-1.03635e-07
9.98133e-09
-1.07738e-07
9.75429e-09
-1.11734e-07
9.50515e-09
-1.15615e-07
9.23394e-09
-1.1937e-07
8.94052e-09
-1.22991e-07
8.62469e-09
-1.26467e-07
8.28614e-09
-1.2979e-07
7.92455e-09
-1.32948e-07
7.53955e-09
-1.35933e-07
7.1308e-09
-1.38734e-07
6.69795e-09
-1.41341e-07
6.24076e-09
-1.43743e-07
5.75903e-09
-1.45932e-07
5.25271e-09
-1.47896e-07
4.72189e-09
-1.49626e-07
4.1668e-09
-1.51112e-07
3.58785e-09
-1.52344e-07
2.98568e-09
-1.53314e-07
2.3611e-09
-1.54012e-07
1.71518e-09
-1.54431e-07
1.04924e-09
-1.54564e-07
3.64867e-10
-1.54403e-07
-3.361e-10
-1.53943e-07
-1.05152e-09
-1.53179e-07
-1.77899e-09
-1.52108e-07
-2.5158e-09
-1.50727e-07
-3.25898e-09
-1.49036e-07
-4.00528e-09
-1.47034e-07
-4.75122e-09
-1.44723e-07
-5.49303e-09
-1.42108e-07
-6.22677e-09
-1.39194e-07
-6.94827e-09
-1.35987e-07
-7.6532e-09
-1.32496e-07
-8.3371e-09
-1.28733e-07
-8.99539e-09
-1.2471e-07
-9.62345e-09
-1.20441e-07
-1.02166e-08
-1.15942e-07
-1.07703e-08
-1.11233e-07
-1.12799e-08
-1.06333e-07
-1.17409e-08
-1.01264e-07
-1.21493e-08
-9.60487e-08
-1.25008e-08
-9.0713e-08
-1.27917e-08
-8.5283e-08
-1.30185e-08
-7.97863e-08
-1.3178e-08
-7.42516e-08
-1.32676e-08
-6.87087e-08
-1.32848e-08
-6.31881e-08
-1.32277e-08
-5.77207e-08
-1.3095e-08
-5.2338e-08
-1.28856e-08
-4.70714e-08
-1.25992e-08
-4.19525e-08
-1.22359e-08
-3.70122e-08
-1.17964e-08
-3.22811e-08
-1.12819e-08
-2.77886e-08
-1.06944e-08
-2.35633e-08
-1.00366e-08
-1.96318e-08
-9.31184e-09
-1.60191e-08
-8.52453e-09
-1.27473e-08
-7.6802e-09
-9.83577e-09
-6.78585e-09
-7.2997e-09
-5.85041e-09
-5.14943e-09
-4.88543e-09
-3.38904e-09
-3.90606e-09
-2.01465e-09
-2.93243e-09
-1.01232e-09
-1.99166e-09
-3.5531e-10
-1.12063e-09
-9.79044e-13
-3.69633e-10
1.13078e-10
1.93408e-10
7.30814e-11
4.77997e-10
3.56514e-10
-1.06585e-10
-5.8152e-11
-5.20595e-10
4.95253e-10
-1.30548e-09
1.49077e-09
-2.50375e-09
2.73838e-09
-4.13846e-09
4.11002e-09
-6.21573e-09
5.51821e-09
-8.72825e-09
6.90366e-09
-1.16589e-08
8.22749e-09
-1.49835e-08
9.4651e-09
-1.86729e-08
1.06022e-08
-2.26953e-08
1.16315e-08
-2.70177e-08
1.25511e-08
-3.16068e-08
1.33619e-08
-3.64295e-08
1.40676e-08
-4.1454e-08
1.46729e-08
-4.665e-08
1.51835e-08
-5.19886e-08
1.56057e-08
-5.74429e-08
1.59457e-08
-6.29877e-08
1.62098e-08
-6.85993e-08
1.64038e-08
-7.42561e-08
1.65334e-08
-7.99376e-08
1.66036e-08
-8.56253e-08
1.66191e-08
-9.13015e-08
1.65841e-08
-9.695e-08
1.65022e-08
-1.02556e-07
1.63765e-08
-1.08104e-07
1.62097e-08
-1.13581e-07
1.60039e-08
-1.18973e-07
1.57608e-08
-1.24269e-07
1.54819e-08
-1.29456e-07
1.51679e-08
-1.34521e-07
1.48197e-08
-1.39453e-07
1.44374e-08
-1.44241e-07
1.40213e-08
-1.48871e-07
1.35712e-08
-1.53333e-07
1.30868e-08
-1.57615e-07
1.25679e-08
-1.61704e-07
1.20139e-08
-1.65589e-07
1.14243e-08
-1.69257e-07
1.07989e-08
-1.72696e-07
1.0137e-08
-1.75894e-07
9.43846e-09
-1.78838e-07
8.70304e-09
-1.81516e-07
7.93071e-09
-1.83916e-07
7.12168e-09
-1.86025e-07
6.27636e-09
-1.87833e-07
5.39545e-09
-1.89327e-07
4.47994e-09
-1.90497e-07
3.53114e-09
-1.91333e-07
2.5507e-09
-1.91824e-07
1.54066e-09
-1.91963e-07
5.03424e-10
-1.91741e-07
-5.58173e-10
-1.91151e-07
-1.6409e-09
-1.90189e-07
-2.74112e-09
-1.8885e-07
-3.85476e-09
-1.87132e-07
-4.97733e-09
-1.85033e-07
-6.10399e-09
-1.82555e-07
-7.22947e-09
-1.797e-07
-8.34816e-09
-1.76472e-07
-9.45415e-09
-1.7288e-07
-1.05412e-08
-1.6893e-07
-1.16029e-08
-1.64634e-07
-1.26325e-08
-1.60007e-07
-1.36232e-08
-1.55062e-07
-1.45682e-08
-1.49818e-07
-1.54605e-08
-1.44295e-07
-1.62933e-08
-1.38515e-07
-1.70598e-08
-1.32503e-07
-1.77533e-08
-1.26284e-07
-1.83677e-08
-1.19888e-07
-1.88968e-08
-1.13345e-07
-1.9335e-08
-1.06686e-07
-1.96772e-08
-9.99454e-08
-1.99188e-08
-9.31575e-08
-2.00555e-08
-8.63582e-08
-2.00841e-08
-7.95842e-08
-2.00017e-08
-7.2873e-08
-1.98062e-08
-6.62622e-08
-1.94964e-08
-5.97898e-08
-1.90716e-08
-5.34934e-08
-1.85323e-08
-4.74102e-08
-1.78796e-08
-4.15766e-08
-1.71156e-08
-3.60276e-08
-1.62434e-08
-3.07969e-08
-1.52673e-08
-2.5916e-08
-1.41927e-08
-2.14139e-08
-1.30266e-08
-1.73164e-08
-1.17777e-08
-1.36455e-08
-1.04567e-08
-1.04184e-08
-9.07751e-09
-7.6465e-09
-7.65738e-09
-5.33395e-09
-6.21861e-09
-3.47632e-09
-4.79007e-09
-2.05854e-09
-3.40944e-09
-1.0528e-09
-2.12635e-09
-4.16081e-10
-1.00635e-09
-8.75354e-11
-1.35154e-10
1.47474e-11
3.7571e-10
3.71262e-10
-1.92568e-10
1.34419e-10
-8.1976e-10
1.12245e-09
-1.91696e-09
2.58797e-09
-3.50828e-09
4.3297e-09
-5.60492e-09
6.20666e-09
-8.20532e-09
8.11862e-09
-1.1297e-08
9.99537e-09
-1.4859e-08
1.17894e-08
-1.88636e-08
1.34698e-08
-2.32791e-08
1.50176e-08
-2.80704e-08
1.64229e-08
-3.32012e-08
1.76819e-08
-3.86347e-08
1.87954e-08
-4.43344e-08
1.97673e-08
-5.02649e-08
2.06033e-08
-5.63919e-08
2.13105e-08
-6.26829e-08
2.18967e-08
-6.91073e-08
2.23701e-08
-7.56362e-08
2.27386e-08
-8.22424e-08
2.30101e-08
-8.89008e-08
2.31918e-08
-9.55877e-08
2.32905e-08
-1.02281e-07
2.33127e-08
-1.08961e-07
2.32638e-08
-1.15608e-07
2.31488e-08
-1.22203e-07
2.29718e-08
-1.2873e-07
2.27367e-08
-1.35172e-07
2.24462e-08
-1.41514e-07
2.21029e-08
-1.47741e-07
2.17086e-08
-1.53838e-07
2.12648e-08
-1.5979e-07
2.07723e-08
-1.65585e-07
2.02316e-08
-1.71206e-07
1.96431e-08
-1.76642e-07
1.90066e-08
-1.81877e-07
1.83219e-08
-1.86898e-07
1.75886e-08
-1.9169e-07
1.68061e-08
-1.9624e-07
1.5974e-08
-2.00532e-07
1.50916e-08
-2.04554e-07
1.41585e-08
-2.0829e-07
1.31743e-08
-2.11725e-07
1.21389e-08
-2.14847e-07
1.10524e-08
-2.17641e-07
9.91515e-09
-2.20092e-07
8.72774e-09
-2.22188e-07
7.49125e-09
-2.23915e-07
6.20714e-09
-2.25261e-07
4.87728e-09
-2.26215e-07
3.50406e-09
-2.26764e-07
2.09035e-09
-2.269e-07
6.39568e-10
-2.26614e-07
-8.44337e-10
-2.25898e-07
-2.35683e-09
-2.24747e-07
-3.89283e-09
-2.23155e-07
-5.44668e-09
-2.2112e-07
-7.01214e-09
-2.18641e-07
-8.58248e-09
-2.1572e-07
-1.01504e-08
-2.1236e-07
-1.17082e-08
-2.08567e-07
-1.32476e-08
-2.04348e-07
-1.476e-08
-1.99714e-07
-1.62366e-08
-1.94679e-07
-1.76682e-08
-1.89257e-07
-1.90453e-08
-1.83466e-07
-2.03585e-08
-1.77329e-07
-2.15983e-08
-1.70867e-07
-2.27552e-08
-1.64106e-07
-2.382e-08
-1.57076e-07
-2.47835e-08
-1.49807e-07
-2.56372e-08
-1.42331e-07
-2.63728e-08
-1.34683e-07
-2.69825e-08
-1.26901e-07
-2.74594e-08
-1.19023e-07
-2.7797e-08
-1.11088e-07
-2.79898e-08
-1.03139e-07
-2.80332e-08
-9.52177e-08
-2.79233e-08
-8.73665e-08
-2.76574e-08
-7.9629e-08
-2.72339e-08
-7.20484e-08
-2.66521e-08
-6.4668e-08
-2.59127e-08
-5.753e-08
-2.50175e-08
-5.06758e-08
-2.39697e-08
-4.41453e-08
-2.27739e-08
-3.79764e-08
-2.14362e-08
-3.22046e-08
-1.99646e-08
-2.68622e-08
-1.8369e-08
-2.1978e-08
-1.66619e-08
-1.75762e-08
-1.48585e-08
-1.36757e-08
-1.2978e-08
-1.0289e-08
-1.10441e-08
-7.42085e-09
-9.08675e-09
-5.06722e-09
-7.1437e-09
-3.21354e-09
-5.26312e-09
-1.8332e-09
-3.5067e-09
-8.8587e-10
-1.95367e-09
-3.1599e-10
-7.05037e-10
-5.11567e-11
1.10874e-10
3.20106e-10
-2.77339e-10
4.1175e-10
-1.11915e-09
1.96426e-09
-2.53332e-09
4.00214e-09
-4.52388e-09
6.32025e-09
-7.08771e-09
8.77049e-09
-1.02134e-08
1.12443e-08
-1.38816e-08
1.36636e-08
-1.80662e-08
1.5974e-08
-2.27358e-08
1.81394e-08
-2.7855e-08
2.01368e-08
-3.3386e-08
2.19538e-08
-3.92894e-08
2.35853e-08
-4.55254e-08
2.50315e-08
-5.20546e-08
2.62965e-08
-5.88384e-08
2.73871e-08
-6.58396e-08
2.83117e-08
-7.30226e-08
2.90797e-08
-8.03534e-08
2.9701e-08
-8.78002e-08
3.01854e-08
-9.53328e-08
3.05426e-08
-1.02923e-07
3.07819e-08
-1.10544e-07
3.09119e-08
-1.18172e-07
3.09404e-08
-1.25783e-07
3.08746e-08
-1.33355e-07
3.07209e-08
-1.40868e-07
3.04846e-08
-1.48302e-07
3.01705e-08
-1.55638e-07
2.97825e-08
-1.62859e-07
2.93237e-08
-1.69947e-07
2.87966e-08
-1.76885e-07
2.82032e-08
-1.83657e-07
2.75446e-08
-1.90247e-07
2.68217e-08
-1.96639e-07
2.60349e-08
-2.02817e-07
2.51841e-08
-2.08764e-07
2.42691e-08
-2.14465e-07
2.32896e-08
-2.19903e-07
2.22448e-08
-2.25064e-07
2.11343e-08
-2.2993e-07
1.99574e-08
-2.34485e-07
1.87136e-08
-2.38713e-07
1.74026e-08
-2.42598e-07
1.60242e-08
-2.46125e-07
1.45787e-08
-2.49276e-07
1.30667e-08
-2.52037e-07
1.1489e-08
-2.54393e-07
9.84726e-09
-2.5633e-07
8.14337e-09
-2.57832e-07
6.37992e-09
-2.58888e-07
4.56012e-09
-2.59486e-07
2.68782e-09
-2.59614e-07
7.67553e-10
-2.59263e-07
-1.19541e-09
-2.58425e-07
-3.1951e-09
-2.57093e-07
-5.22477e-09
-2.55262e-07
-7.27697e-09
-2.52931e-07
-9.34352e-09
-2.50098e-07
-1.14155e-08
-2.46765e-07
-1.34835e-08
-2.42936e-07
-1.55372e-08
-2.38617e-07
-1.75659e-08
-2.33819e-07
-1.95584e-08
-2.28553e-07
-2.15031e-08
-2.22833e-07
-2.33878e-08
-2.16678e-07
-2.52005e-08
-2.10108e-07
-2.69287e-08
-2.03146e-07
-2.856e-08
-1.95819e-07
-3.00821e-08
-1.88156e-07
-3.1483e-08
-1.80189e-07
-3.27508e-08
-1.71952e-07
-3.38742e-08
-1.63482e-07
-3.48427e-08
-1.54818e-07
-3.56461e-08
-1.46002e-07
-3.62754e-08
-1.37077e-07
-3.67222e-08
-1.28087e-07
-3.69796e-08
-1.19079e-07
-3.70413e-08
-1.101e-07
-3.69028e-08
-1.01197e-07
-3.65604e-08
-9.24184e-08
-3.60122e-08
-8.38129e-08
-3.52576e-08
-7.5428e-08
-3.42977e-08
-6.73105e-08
-3.3135e-08
-5.95062e-08
-3.17741e-08
-5.20588e-08
-3.02213e-08
-4.50101e-08
-2.8485e-08
-3.83987e-08
-2.6576e-08
-3.226e-08
-2.45077e-08
-2.66252e-08
-2.22967e-08
-2.15205e-08
-1.99632e-08
-1.69665e-08
-1.7532e-08
-1.29769e-08
-1.50337e-08
-9.55771e-09
-1.25059e-08
-6.70615e-09
-9.99525e-09
-4.4095e-09
-7.55977e-09
-2.64407e-09
-5.27214e-09
-1.37437e-09
-3.22337e-09
-5.52544e-10
-1.52686e-09
-1.18343e-10
-3.23327e-10
2.01764e-10
-3.58384e-10
7.70132e-10
-1.41038e-09
3.01625e-09
-3.13775e-09
5.72952e-09
-5.52445e-09
8.70695e-09
-8.55214e-09
1.17982e-08
-1.21983e-08
1.48904e-08
-1.64353e-08
1.79006e-08
-2.1231e-08
2.07698e-08
-2.65493e-08
2.34576e-08
-3.23509e-08
2.59384e-08
-3.85948e-08
2.81977e-08
-4.52388e-08
3.02293e-08
-5.22404e-08
3.20331e-08
-5.95575e-08
3.36136e-08
-6.71488e-08
3.49784e-08
-7.49746e-08
3.61374e-08
-8.29964e-08
3.71015e-08
-9.11778e-08
3.78824e-08
-9.94841e-08
3.84918e-08
-1.07883e-07
3.89413e-08
-1.16343e-07
3.9242e-08
-1.24836e-07
3.94045e-08
-1.33333e-07
3.94384e-08
-1.41811e-07
3.93522e-08
-1.50244e-07
3.91539e-08
-1.5861e-07
3.88502e-08
-1.66886e-07
3.84468e-08
-1.75052e-07
3.79487e-08
-1.83088e-07
3.73598e-08
-1.90975e-07
3.66834e-08
-1.98694e-07
3.59218e-08
-2.06226e-07
3.50766e-08
-2.13553e-07
3.41489e-08
-2.20657e-07
3.31394e-08
-2.27521e-07
3.20481e-08
-2.34127e-07
3.08749e-08
-2.40457e-07
2.96193e-08
-2.46493e-07
2.82807e-08
-2.52217e-07
2.68584e-08
-2.57611e-07
2.53519e-08
-2.62658e-07
2.37606e-08
-2.6734e-07
2.20842e-08
-2.71638e-07
2.03227e-08
-2.75536e-07
1.84765e-08
-2.79016e-07
1.65465e-08
-2.82061e-07
1.45339e-08
-2.84654e-07
1.24407e-08
-2.86781e-07
1.02696e-08
-2.88425e-07
8.0239e-09
-2.89572e-07
5.70769e-09
-2.9021e-07
3.32595e-09
-2.90327e-07
8.84473e-10
-2.89913e-07
-1.61003e-09
-2.88958e-07
-4.14995e-09
-2.87456e-07
-6.72676e-09
-2.85402e-07
-9.33102e-09
-2.82793e-07
-1.19524e-08
-2.79629e-07
-1.45796e-08
-2.75912e-07
-1.72007e-08
-2.71646e-07
-1.98028e-08
-2.6684e-07
-2.23723e-08
-2.61503e-07
-2.48953e-08
-2.55649e-07
-2.7357e-08
-2.49294e-07
-2.97423e-08
-2.42459e-07
-3.20358e-08
-2.35166e-07
-3.42221e-08
-2.2744e-07
-3.62855e-08
-2.19312e-07
-3.82107e-08
-2.10812e-07
-3.99825e-08
-2.01977e-07
-4.15862e-08
-1.92843e-07
-4.30077e-08
-1.83452e-07
-4.42335e-08
-1.73847e-07
-4.52513e-08
-1.64073e-07
-4.60496e-08
-1.54177e-07
-4.66182e-08
-1.44208e-07
-4.69483e-08
-1.34217e-07
-4.70324e-08
-1.24255e-07
-4.68646e-08
-1.14375e-07
-4.64409e-08
-1.04628e-07
-4.57588e-08
-9.5068e-08
-4.48179e-08
-8.5746e-08
-4.36197e-08
-7.67129e-08
-4.2168e-08
-6.80184e-08
-4.04686e-08
-5.97097e-08
-3.853e-08
-5.18316e-08
-3.6363e-08
-4.4426e-08
-3.39816e-08
-3.75306e-08
-3.14031e-08
-3.11789e-08
-2.86484e-08
-2.5399e-08
-2.5743e-08
-2.02132e-08
-2.27178e-08
-1.56369e-08
-1.96101e-08
-1.16777e-08
-1.64651e-08
-8.33491e-09
-1.3338e-08
-5.5987e-09
-1.0296e-08
-3.44947e-09
-7.42138e-09
-1.85782e-09
-4.81503e-09
-7.84845e-10
-2.59983e-09
-1.83224e-10
-9.24946e-10
1.85424e-11
-4.35145e-10
1.20527e-09
-1.68923e-09
4.27034e-09
-3.72066e-09
7.76094e-09
-6.49426e-09
1.14806e-08
-9.97645e-09
1.52804e-08
-1.41328e-08
1.90468e-08
-1.89267e-08
2.26945e-08
-2.4319e-08
2.61621e-08
-3.02682e-08
2.94068e-08
-3.6731e-08
3.24012e-08
-4.36626e-08
3.51294e-08
-5.1018e-08
3.75847e-08
-5.8752e-08
3.9767e-08
-6.68198e-08
4.16814e-08
-7.5178e-08
4.33366e-08
-8.37843e-08
4.47437e-08
-9.25981e-08
4.59153e-08
-1.01581e-07
4.68649e-08
-1.10695e-07
4.76061e-08
-1.19906e-07
4.81526e-08
-1.29181e-07
4.85172e-08
-1.38489e-07
4.87125e-08
-1.47801e-07
4.87497e-08
-1.57088e-07
4.86392e-08
-1.66324e-07
4.83902e-08
-1.75485e-07
4.80109e-08
-1.84546e-07
4.75082e-08
-1.93485e-07
4.6888e-08
-2.02281e-07
4.61552e-08
-2.10911e-07
4.53136e-08
-2.19355e-07
4.43661e-08
-2.27594e-07
4.3315e-08
-2.35606e-07
4.21615e-08
-2.43373e-07
4.09065e-08
-2.50875e-07
3.95501e-08
-2.58093e-07
3.80924e-08
-2.65006e-07
3.65328e-08
-2.71597e-07
3.48708e-08
-2.77844e-07
3.31057e-08
-2.83729e-07
3.12369e-08
-2.89232e-07
2.92638e-08
-2.94334e-07
2.71863e-08
-2.99016e-07
2.50044e-08
-3.03258e-07
2.27188e-08
-3.07042e-07
2.03305e-08
-3.1035e-07
1.78414e-08
-3.13163e-07
1.5254e-08
-3.15465e-07
1.25716e-08
-3.17239e-07
9.79833e-09
-3.18471e-07
6.93943e-09
-3.19146e-07
4.00101e-09
-3.19252e-07
9.90255e-10
-3.18777e-07
-2.08455e-09
-3.17713e-07
-5.21403e-09
-3.16052e-07
-8.38768e-09
-3.1379e-07
-1.15939e-08
-3.10922e-07
-1.482e-08
-3.07449e-07
-1.80523e-08
-3.03374e-07
-2.12759e-08
-2.98702e-07
-2.44752e-08
-2.9344e-07
-2.76337e-08
-2.87601e-07
-3.07341e-08
-2.812e-07
-3.37584e-08
-2.74254e-07
-3.66884e-08
-2.66784e-07
-3.95051e-08
-2.58817e-07
-4.21898e-08
-2.50379e-07
-4.47234e-08
-2.41503e-07
-4.70871e-08
-2.32222e-07
-4.92626e-08
-2.22577e-07
-5.12319e-08
-2.12607e-07
-5.29778e-08
-2.02356e-07
-5.44842e-08
-1.91871e-07
-5.57359e-08
-1.81202e-07
-5.67191e-08
-1.70399e-07
-5.74215e-08
-1.59515e-07
-5.78324e-08
-1.48604e-07
-5.79429e-08
-1.37723e-07
-5.77461e-08
-1.26926e-07
-5.72371e-08
-1.16272e-07
-5.64133e-08
-1.05815e-07
-5.52744e-08
-9.56123e-08
-5.38227e-08
-8.57173e-08
-5.2063e-08
-7.61832e-08
-5.00027e-08
-6.70605e-08
-4.76527e-08
-5.83969e-08
-4.50266e-08
-5.02367e-08
-4.21418e-08
-4.26202e-08
-3.90196e-08
-3.5583e-08
-3.56856e-08
-2.91552e-08
-3.21709e-08
-2.33608e-08
-2.85122e-08
-1.82171e-08
-2.47538e-08
-1.3734e-08
-2.09482e-08
-9.91334e-09
-1.71586e-08
-6.74881e-09
-1.34605e-08
-4.22563e-09
-9.94455e-09
-2.32108e-09
-6.71957e-09
-1.00545e-09
-3.91547e-09
-2.43817e-10
-1.68657e-09
-2.25271e-10
-5.07189e-10
1.71246e-09
-1.95358e-09
5.71673e-09
-4.27704e-09
1.00844e-08
-7.42448e-09
1.4628e-08
-1.13476e-08
1.92035e-08
-1.59999e-08
2.36991e-08
-2.13354e-08
2.803e-08
-2.73074e-08
3.21341e-08
-3.38686e-08
3.5968e-08
-4.09709e-08
3.95035e-08
-4.85658e-08
4.27244e-08
-5.66051e-08
4.5624e-08
-6.50408e-08
4.82027e-08
-7.38259e-08
5.04665e-08
-8.29144e-08
5.24252e-08
-9.2262e-08
5.40914e-08
-1.01826e-07
5.54794e-08
-1.11566e-07
5.66047e-08
-1.21443e-07
5.74827e-08
-1.31419e-07
5.81291e-08
-1.41461e-07
5.85588e-08
-1.51534e-07
5.87861e-08
-1.61608e-07
5.8824e-08
-1.71654e-07
5.86846e-08
-1.81642e-07
5.83786e-08
-1.91547e-07
5.79156e-08
-2.01343e-07
5.73037e-08
-2.11004e-07
5.65499e-08
-2.20509e-07
5.56599e-08
-2.29834e-07
5.46382e-08
-2.38956e-07
5.34884e-08
-2.47854e-07
5.22132e-08
-2.56507e-07
5.08141e-08
-2.64893e-07
4.92922e-08
-2.7299e-07
4.76479e-08
-2.80779e-07
4.58813e-08
-2.88238e-07
4.39919e-08
-2.95346e-07
4.1979e-08
-3.02083e-07
3.98422e-08
-3.08426e-07
3.75806e-08
-3.14357e-07
3.51939e-08
-3.19852e-07
3.26819e-08
-3.24893e-07
3.00449e-08
-3.29458e-07
2.72838e-08
-3.33527e-07
2.44e-08
-3.37081e-07
2.13957e-08
-3.40102e-07
1.82742e-08
-3.42569e-07
1.50394e-08
-3.44468e-07
1.16965e-08
-3.4578e-07
8.25173e-09
-3.46491e-07
4.71256e-09
-3.46589e-07
1.08766e-09
-3.4606e-07
-2.61301e-09
-3.44896e-07
-6.37817e-09
-3.43089e-07
-1.01952e-08
-3.40632e-07
-1.40502e-08
-3.37525e-07
-1.7928e-08
-3.33765e-07
-2.1812e-08
-3.29356e-07
-2.56846e-08
-3.24304e-07
-2.95272e-08
-3.18618e-07
-3.33198e-08
-3.1231e-07
-3.70419e-08
-3.05396e-07
-4.06722e-08
-2.97896e-07
-4.41885e-08
-2.89833e-07
-4.75686e-08
-2.81233e-07
-5.07898e-08
-2.72127e-07
-5.38296e-08
-2.62548e-07
-5.66657e-08
-2.52535e-07
-5.92759e-08
-2.42127e-07
-6.16392e-08
-2.3137e-07
-6.3735e-08
-2.2031e-07
-6.55441e-08
-2.08998e-07
-6.70486e-08
-1.97485e-07
-6.82321e-08
-1.85826e-07
-6.90801e-08
-1.74079e-07
-6.95799e-08
-1.623e-07
-6.97213e-08
-1.5055e-07
-6.94961e-08
-1.38889e-07
-6.88988e-08
-1.27375e-07
-6.79266e-08
-1.1607e-07
-6.65794e-08
-1.05033e-07
-6.48603e-08
-9.43202e-08
-6.27754e-08
-8.39888e-08
-6.03341e-08
-7.4092e-08
-5.75495e-08
-6.46802e-08
-5.44384e-08
-5.58001e-08
-5.10218e-08
-4.74945e-08
-4.73252e-08
-3.98009e-08
-4.33792e-08
-3.27516e-08
-3.92203e-08
-2.63725e-08
-3.48913e-08
-2.0683e-08
-3.04432e-08
-1.56956e-08
-2.59357e-08
-1.14151e-08
-2.14391e-08
-7.83905e-09
-1.70366e-08
-4.95773e-09
-1.28259e-08
-2.75511e-09
-8.92219e-09
-1.21018e-09
-5.46039e-09
-2.99218e-10
-2.59753e-09
-5.24486e-10
-5.74454e-10
2.28691e-09
-2.20282e-09
7.34511e-09
-4.80474e-09
1.26863e-08
-8.31077e-09
1.8134e-08
-1.26586e-08
2.35513e-08
-1.779e-08
2.88306e-08
-2.36494e-08
3.38894e-08
-3.01823e-08
3.8667e-08
-3.73352e-08
4.31209e-08
-4.50551e-08
4.72233e-08
-5.32894e-08
5.09587e-08
-6.19865e-08
5.4321e-08
-7.10954e-08
5.73117e-08
-8.05668e-08
5.99378e-08
-9.03525e-08
6.22109e-08
-1.00406e-07
6.4145e-08
-1.10683e-07
6.57565e-08
-1.21141e-07
6.70625e-08
-1.31739e-07
6.80807e-08
-1.42439e-07
6.88287e-08
-1.53203e-07
6.93235e-08
-1.63998e-07
6.95811e-08
-1.74791e-07
6.96164e-08
-1.8555e-07
6.94433e-08
-1.96245e-07
6.90739e-08
-2.06848e-07
6.85192e-08
-2.17333e-07
6.77886e-08
-2.27673e-07
6.689e-08
-2.37844e-07
6.58302e-08
-2.4782e-07
6.46144e-08
-2.57578e-07
6.32468e-08
-2.67096e-07
6.17304e-08
-2.76349e-07
6.00673e-08
-2.85315e-07
5.82588e-08
-2.93973e-07
5.63054e-08
-3.02299e-07
5.42072e-08
-3.10271e-07
5.19638e-08
-3.17866e-07
4.95748e-08
-3.25064e-07
4.70393e-08
-3.3184e-07
4.43568e-08
-3.38173e-07
4.1527e-08
-3.44041e-07
3.85497e-08
-3.49421e-07
3.54254e-08
-3.54293e-07
3.21553e-08
-3.58634e-07
2.87412e-08
-3.62424e-07
2.51858e-08
-3.65643e-07
2.1493e-08
-3.68271e-07
1.76675e-08
-3.7029e-07
1.37156e-08
-3.71683e-07
9.64467e-09
-3.72434e-07
5.46348e-09
-3.72529e-07
1.18231e-09
-3.71955e-07
-3.18706e-09
-3.70702e-07
-7.63132e-09
-3.68761e-07
-1.21356e-08
-3.66128e-07
-1.66836e-08
-3.62798e-07
-2.12574e-08
-3.58773e-07
-2.58376e-08
-3.54054e-07
-3.04035e-08
-3.48648e-07
-3.4933e-08
-3.42565e-07
-3.9403e-08
-3.35817e-07
-4.37893e-08
-3.28423e-07
-4.80667e-08
-3.20402e-07
-5.22095e-08
-3.11779e-07
-5.61914e-08
-3.02583e-07
-5.99861e-08
-2.92845e-07
-6.3567e-08
-2.82603e-07
-6.6908e-08
-2.71896e-07
-6.99833e-08
-2.60767e-07
-7.27681e-08
-2.49263e-07
-7.52385e-08
-2.37435e-07
-7.73721e-08
-2.25336e-07
-7.91479e-08
-2.13021e-07
-8.05469e-08
-2.00549e-07
-8.15523e-08
-1.87979e-07
-8.21494e-08
-1.75374e-07
-8.23264e-08
-1.62796e-07
-8.20739e-08
-1.50309e-07
-8.1386e-08
-1.37976e-07
-8.02594e-08
-1.25861e-07
-7.86946e-08
-1.14026e-07
-7.66954e-08
-1.02532e-07
-7.42695e-08
-9.1438e-08
-7.14283e-08
-8.08002e-08
-6.81874e-08
-7.06716e-08
-6.4567e-08
-6.11016e-08
-6.05918e-08
-5.21351e-08
-5.62917e-08
-4.38118e-08
-5.17025e-08
-3.61662e-08
-4.68659e-08
-2.92262e-08
-4.18313e-08
-2.30138e-08
-3.66556e-08
-1.75439e-08
-3.14056e-08
-1.28246e-08
-2.61585e-08
-8.85731e-09
-2.10039e-08
-5.63738e-09
-1.60458e-08
-3.15502e-09
-1.14045e-08
-1.39699e-09
-7.21842e-09
-3.49012e-10
-3.6455e-09
-8.73495e-10
-6.37265e-10
2.92417e-09
-2.43725e-09
9.14509e-09
-5.30343e-09
1.55525e-08
-9.15161e-09
2.19822e-08
-1.39064e-08
2.8306e-08
-1.94983e-08
3.44225e-08
-2.58623e-08
4.02533e-08
-3.29362e-08
4.57409e-08
-4.06599e-08
5.08446e-08
-4.89752e-08
5.55387e-08
-5.78253e-08
5.98088e-08
-6.71549e-08
6.36506e-08
-7.69103e-08
6.7067e-08
-8.70393e-08
7.00669e-08
-9.74918e-08
7.26633e-08
-1.08219e-07
7.48725e-08
-1.19176e-07
7.67127e-08
-1.30316e-07
7.82032e-08
-1.41599e-07
7.93638e-08
-1.52985e-07
8.0214e-08
-1.64434e-07
8.07728e-08
-1.75911e-07
8.10584e-08
-1.87382e-07
8.10875e-08
-1.98814e-07
8.08754e-08
-2.10177e-07
8.04361e-08
-2.21439e-07
7.97818e-08
-2.32574e-07
7.89233e-08
-2.43553e-07
7.78695e-08
-2.54351e-07
7.66281e-08
-2.64942e-07
7.5205e-08
-2.753e-07
7.36051e-08
-2.85402e-07
7.18318e-08
-2.95222e-07
6.98877e-08
-3.04737e-07
6.77741e-08
-3.13924e-07
6.5492e-08
-3.22758e-07
6.30413e-08
-3.31216e-07
6.04219e-08
-3.39275e-07
5.76332e-08
-3.4691e-07
5.46744e-08
-3.54098e-07
5.1545e-08
-3.60816e-07
4.82448e-08
-3.6704e-07
4.47736e-08
-3.72747e-07
4.11323e-08
-3.77913e-07
3.73222e-08
-3.82518e-07
3.33455e-08
-3.86537e-07
2.92055e-08
-3.89951e-07
2.49067e-08
-3.92738e-07
2.04548e-08
-3.9488e-07
1.5857e-08
-3.96357e-07
1.1122e-08
-3.97153e-07
6.25987e-09
-3.97254e-07
1.28271e-09
-3.96645e-07
-3.79587e-09
-3.95316e-07
-8.96044e-09
-3.93258e-07
-1.41938e-08
-3.90464e-07
-1.94769e-08
-3.86933e-07
-2.47892e-08
-3.82662e-07
-3.01081e-08
-3.77656e-07
-3.54097e-08
-3.71921e-07
-4.06684e-08
-3.65466e-07
-4.58576e-08
-3.58306e-07
-5.0949e-08
-3.50459e-07
-5.59138e-08
-3.41947e-07
-6.07221e-08
-3.32794e-07
-6.53436e-08
-3.23033e-07
-6.97478e-08
-3.12696e-07
-7.39041e-08
-3.01821e-07
-7.77822e-08