/*--------------------------------*- C++ -*----------------------------------*\
  =========                 |
  \\      /  F ield         | OpenFOAM: The Open Source CFD Toolbox
   \\    /   O peration     | Website:  https://openfoam.org
    \\  /    A nd           | Version:  7
     \\/     M anipulation  |
\*---------------------------------------------------------------------------*/
FoamFile
{
    version     2.0;
    format      ascii;
    class       volVectorField;
    location    "0.28125";
    object      U;
}
// * * * * * * * * * * * * * * * * * * * * * * * * * * * * * * * * * * * * * //

dimensions      [0 1 -1 0 0 0 0];

internalField   nonuniform List<vector> 
10000
(
(2.0409e-06 -4.60126e-06 0)
(1.17686e-05 -6.74026e-06 0)
(1.94863e-05 -4.36528e-06 0)
(2.21709e-05 -1.50553e-06 0)
(1.57416e-05 1.58423e-06 0)
(7.21186e-07 4.57209e-06 0)
(-2.25744e-05 7.31382e-06 0)
(-5.3642e-05 9.75543e-06 0)
(-9.17942e-05 1.18841e-05 0)
(-0.000136303 1.3746e-05 0)
(-0.000186434 1.53726e-05 0)
(-0.000241493 1.67691e-05 0)
(-0.000300828 1.79442e-05 0)
(-0.000363817 1.8924e-05 0)
(-0.000429893 1.97413e-05 0)
(-0.000498546 2.04156e-05 0)
(-0.00056931 2.09536e-05 0)
(-0.00064176 2.13648e-05 0)
(-0.000715514 2.16665e-05 0)
(-0.000790226 2.18753e-05 0)
(-0.000865586 2.20031e-05 0)
(-0.000941318 2.2058e-05 0)
(-0.00101717 2.20453e-05 0)
(-0.00109292 2.19698e-05 0)
(-0.00116835 2.1838e-05 0)
(-0.00124328 2.16572e-05 0)
(-0.00131752 2.1433e-05 0)
(-0.00139092 2.11675e-05 0)
(-0.00146332 2.08601e-05 0)
(-0.00153456 2.05101e-05 0)
(-0.0016045 2.01186e-05 0)
(-0.00167299 1.96876e-05 0)
(-0.0017399 1.92181e-05 0)
(-0.00180507 1.87091e-05 0)
(-0.00186835 1.81588e-05 0)
(-0.00192961 1.75649e-05 0)
(-0.00198868 1.69252e-05 0)
(-0.00204541 1.62385e-05 0)
(-0.00209964 1.55042e-05 0)
(-0.00215119 1.47214e-05 0)
(-0.00219991 1.38885e-05 0)
(-0.00224562 1.30035e-05 0)
(-0.00228815 1.20648e-05 0)
(-0.0023273 1.10711e-05 0)
(-0.0023629 1.00222e-05 0)
(-0.00239478 8.9183e-06 0)
(-0.00242274 7.75978e-06 0)
(-0.00244663 6.54756e-06 0)
(-0.00246625 5.28296e-06 0)
(-0.00248145 3.9676e-06 0)
(-0.00249207 2.6037e-06 0)
(-0.00249795 1.19406e-06 0)
(-0.00249896 -2.57944e-07 0)
(-0.00249497 -1.74805e-06 0)
(-0.00248587 -3.27102e-06 0)
(-0.00247157 -4.82098e-06 0)
(-0.002452 -6.39123e-06 0)
(-0.00242712 -7.97433e-06 0)
(-0.00239689 -9.56239e-06 0)
(-0.00236134 -1.11471e-05 0)
(-0.00232048 -1.27196e-05 0)
(-0.00227438 -1.42705e-05 0)
(-0.00222314 -1.57903e-05 0)
(-0.00216688 -1.72686e-05 0)
(-0.00210576 -1.86946e-05 0)
(-0.00203999 -2.00573e-05 0)
(-0.00196979 -2.1346e-05 0)
(-0.00189542 -2.25497e-05 0)
(-0.0018172 -2.36577e-05 0)
(-0.00173545 -2.46597e-05 0)
(-0.00165055 -2.55454e-05 0)
(-0.00156289 -2.63051e-05 0)
(-0.00147291 -2.69297e-05 0)
(-0.00138106 -2.74112e-05 0)
(-0.00128784 -2.77423e-05 0)
(-0.00119374 -2.79165e-05 0)
(-0.00109929 -2.79283e-05 0)
(-0.00100504 -2.77731e-05 0)
(-0.000911539 -2.74474e-05 0)
(-0.000819354 -2.69486e-05 0)
(-0.000729057 -2.62754e-05 0)
(-0.00064122 -2.54274e-05 0)
(-0.000556418 -2.44052e-05 0)
(-0.000475218 -2.32101e-05 0)
(-0.00039818 -2.18443e-05 0)
(-0.000325853 -2.03107e-05 0)
(-0.000258769 -1.86131e-05 0)
(-0.000197442 -1.67562e-05 0)
(-0.000142358 -1.47457e-05 0)
(-9.39753e-05 -1.25883e-05 0)
(-5.27097e-05 -1.02924e-05 0)
(-1.89239e-05 -7.87156e-06 0)
(7.09542e-06 -5.34793e-06 0)
(2.51734e-05 -2.75731e-06 0)
(3.5306e-05 -1.6262e-07 0)
(3.77633e-05 2.31272e-06 0)
(3.32519e-05 4.4389e-06 0)
(2.32545e-05 5.76575e-06 0)
(1.10648e-05 5.46283e-06 0)
(2.4986e-06 2.49289e-06 0)
(3.34136e-06 -1.10249e-05 0)
(1.27434e-05 -1.65785e-05 0)
(1.70427e-05 -7.37111e-06 0)
(6.26956e-06 6.56643e-06 0)
(-2.39222e-05 2.24967e-05 0)
(-7.47439e-05 3.87048e-05 0)
(-0.00014623 5.42485e-05 0)
(-0.000237472 6.86802e-05 0)
(-0.00034717 8.17746e-05 0)
(-0.000473751 9.35023e-05 0)
(-0.000615506 0.00010389 0)
(-0.000770723 0.000112968 0)
(-0.000937763 0.000120795 0)
(-0.00111505 0.000127471 0)
(-0.00130109 0.000133102 0)
(-0.00149447 0.000137773 0)
(-0.00169395 0.000141562 0)
(-0.00189837 0.000144549 0)
(-0.00210666 0.000146817 0)
(-0.00231783 0.000148442 0)
(-0.002531 0.000149487 0)
(-0.00274537 0.000150003 0)
(-0.00296022 0.000150038 0)
(-0.00317488 0.000149636 0)
(-0.00338874 0.000148836 0)
(-0.00360123 0.000147671 0)
(-0.00381181 0.000146166 0)
(-0.00402 0.000144339 0)
(-0.00422532 0.000142201 0)
(-0.00442734 0.000139762 0)
(-0.00462561 0.000137032 0)
(-0.00481971 0.000134015 0)
(-0.0050092 0.000130712 0)
(-0.00519365 0.000127118 0)
(-0.00537265 0.000123229 0)
(-0.00554576 0.000119036 0)
(-0.00571254 0.000114535 0)
(-0.00587256 0.000109719 0)
(-0.00602535 0.000104581 0)
(-0.00617043 9.9114e-05 0)
(-0.00630734 9.33089e-05 0)
(-0.00643559 8.71577e-05 0)
(-0.0065547 8.06547e-05 0)
(-0.00666417 7.37967e-05 0)
(-0.00676351 6.65833e-05 0)
(-0.00685222 5.90169e-05 0)
(-0.00692982 5.11019e-05 0)
(-0.00699583 4.2845e-05 0)
(-0.00704978 3.42554e-05 0)
(-0.00709121 2.53456e-05 0)
(-0.00711971 1.61321e-05 0)
(-0.00713487 6.63577e-06 0)
(-0.00713633 -3.11829e-06 0)
(-0.00712376 -1.31005e-05 0)
(-0.00709689 -2.32766e-05 0)
(-0.00705548 -3.36079e-05 0)
(-0.00699935 -4.40517e-05 0)
(-0.00692841 -5.45612e-05 0)
(-0.0068426 -6.50857e-05 0)
(-0.00674195 -7.5571e-05 0)
(-0.00662657 -8.596e-05 0)
(-0.00649665 -9.61921e-05 0)
(-0.00635247 -0.000106204 0)
(-0.00619439 -0.00011593 0)
(-0.00602287 -0.000125303 0)
(-0.00583845 -0.000134254 0)
(-0.0056418 -0.000142714 0)
(-0.00543364 -0.000150613 0)
(-0.00521482 -0.000157885 0)
(-0.00498625 -0.000164463 0)
(-0.00474897 -0.000170282 0)
(-0.00450407 -0.000175284 0)
(-0.00425273 -0.00017941 0)
(-0.00399621 -0.000182609 0)
(-0.00373584 -0.000184834 0)
(-0.003473 -0.000186044 0)
(-0.00320913 -0.000186203 0)
(-0.00294572 -0.000185283 0)
(-0.00268429 -0.000183261 0)
(-0.00242638 -0.000180122 0)
(-0.00217355 -0.000175857 0)
(-0.00192737 -0.000170466 0)
(-0.0016894 -0.000163954 0)
(-0.00146118 -0.000156334 0)
(-0.00124422 -0.000147628 0)
(-0.00104001 -0.000137862 0)
(-0.000849974 -0.000127074 0)
(-0.000675458 -0.00011531 0)
(-0.000517735 -0.00010263 0)
(-0.000377961 -8.91102e-05 0)
(-0.000257149 -7.48498e-05 0)
(-0.000156121 -5.99859e-05 0)
(-7.54425e-05 -4.47144e-05 0)
(-1.53206e-05 -2.9325e-05 0)
(2.45363e-05 -1.42626e-05 0)
(4.51521e-05 -2.28741e-07 0)
(4.85609e-05 1.16511e-05 0)
(3.82585e-05 1.95523e-05 0)
(2.05486e-05 2.05991e-05 0)
(5.43884e-06 1.10378e-05 0)
(3.19865e-06 -1.83452e-05 0)
(5.85391e-06 -1.89765e-05 0)
(-6.05211e-06 4.21505e-06 0)
(-4.06653e-05 3.93973e-05 0)
(-0.000103019 7.98865e-05 0)
(-0.000195258 0.000121663 0)
(-0.000317542 0.000162487 0)
(-0.000468951 0.000200996 0)
(-0.000647869 0.00023648 0)
(-0.000852188 0.000268631 0)
(-0.00107959 0.000297361 0)
(-0.00132768 0.000322696 0)
(-0.00159409 0.000344754 0)
(-0.00187646 0.000363727 0)
(-0.00217258 0.000379832 0)
(-0.00248035 0.000393281 0)
(-0.00279785 0.000404277 0)
(-0.00312326 0.00041303 0)
(-0.00345492 0.000419747 0)
(-0.00379129 0.000424617 0)
(-0.00413097 0.000427808 0)
(-0.00447269 0.000429468 0)
(-0.00481527 0.000429728 0)
(-0.00515763 0.000428709 0)
(-0.00549877 0.000426516 0)
(-0.00583776 0.000423238 0)
(-0.00617373 0.000418946 0)
(-0.00650587 0.000413692 0)
(-0.00683342 0.000407519 0)
(-0.00715564 0.000400458 0)
(-0.0074718 0.000392534 0)
(-0.00778119 0.00038376 0)
(-0.00808312 0.000374141 0)
(-0.0083769 0.000363672 0)
(-0.00866183 0.000352344 0)
(-0.00893722 0.000340142 0)
(-0.00920237 0.000327052 0)
(-0.00945657 0.000313057 0)
(-0.00969906 0.00029814 0)
(-0.00992913 0.000282283 0)
(-0.010146 0.000265467 0)
(-0.0103489 0.000247676 0)
(-0.0105372 0.0002289 0)
(-0.0107099 0.000209132 0)
(-0.0108664 0.000188373 0)
(-0.0110059 0.000166629 0)
(-0.0111276 0.000143914 0)
(-0.0112308 0.000120251 0)
(-0.0113148 9.56684e-05 0)
(-0.0113789 7.0206e-05 0)
(-0.0114224 4.39136e-05 0)
(-0.0114448 1.68523e-05 0)
(-0.0114454 -1.09053e-05 0)
(-0.0114238 -3.92748e-05 0)
(-0.0113796 -6.81599e-05 0)
(-0.0113124 -9.74525e-05 0)
(-0.011222 -0.000127033 0)
(-0.0111083 -0.000156771 0)
(-0.0109712 -0.000186526 0)
(-0.0108107 -0.000216145 0)
(-0.0106271 -0.000245469 0)
(-0.0104206 -0.000274328 0)
(-0.0101917 -0.000302546 0)
(-0.00994112 -0.000329942 0)
(-0.00966942 -0.000356328 0)
(-0.00937754 -0.000381515 0)
(-0.00906648 -0.000405312 0)
(-0.00873743 -0.000427529 0)
(-0.00839168 -0.000447979 0)
(-0.00803069 -0.00046648 0)
(-0.00765606 -0.000482857 0)
(-0.00726948 -0.000496942 0)
(-0.00687282 -0.00050858 0)
(-0.00646801 -0.000517627 0)
(-0.00605713 -0.000523953 0)
(-0.00564233 -0.000527445 0)
(-0.00522585 -0.000528004 0)
(-0.00480997 -0.000525552 0)
(-0.00439707 -0.000520027 0)
(-0.00398953 -0.000511389 0)
(-0.00358976 -0.000499616 0)
(-0.00320019 -0.000484708 0)
(-0.00282322 -0.000466687 0)
(-0.00246123 -0.000445596 0)
(-0.00211654 -0.000421501 0)
(-0.00179142 -0.000394494 0)
(-0.00148801 -0.000364696 0)
(-0.00120837 -0.000332259 0)
(-0.000954377 -0.000297381 0)
(-0.000727716 -0.000260314 0)
(-0.000529825 -0.000221385 0)
(-0.000361818 -0.000181034 0)
(-0.000224386 -0.000139862 0)
(-0.000117661 -9.87162e-05 0)
(-4.10296e-05 -5.88121e-05 0)
(7.12553e-06 -2.19178e-05 0)
(2.97086e-05 9.35946e-06 0)
(3.13158e-05 3.12253e-05 0)
(1.94826e-05 3.82815e-05 0)
(5.69784e-06 2.31397e-05 0)
(1.03727e-06 -1.9158e-05 0)
(-7.20508e-06 -7.01267e-06 0)
(-4.07123e-05 3.91844e-05 0)
(-0.000105363 0.000103917 0)
(-0.00020549 0.000177308 0)
(-0.00034308 0.000253286 0)
(-0.000518371 0.000327999 0)
(-0.000730329 0.000399031 0)
(-0.000977045 0.000465016 0)
(-0.00125609 0.000525237 0)
(-0.00156474 0.00057938 0)
(-0.0019001 0.000627411 0)
(-0.00225922 0.000669491 0)
(-0.00263921 0.000705889 0)
(-0.00303726 0.000736932 0)
(-0.00345073 0.00076297 0)
(-0.00387712 0.00078437 0)
(-0.00431408 0.000801504 0)
(-0.00475943 0.000814733 0)
(-0.00521114 0.000824393 0)
(-0.00566736 0.000830788 0)
(-0.00612639 0.000834192 0)
(-0.00658664 0.000834858 0)
(-0.00704664 0.000833009 0)
(-0.00750504 0.000828843 0)
(-0.00796056 0.000822524 0)
(-0.00841203 0.000814185 0)
(-0.00885833 0.000803935 0)
(-0.0092984 0.000791858 0)
(-0.00973122 0.00077802 0)
(-0.0101558 0.00076247 0)
(-0.0105712 0.000745234 0)
(-0.0109764 0.000726326 0)
(-0.0113704 0.000705743 0)
(-0.0117525 0.000683473 0)
(-0.0121215 0.000659496 0)
(-0.0124766 0.000633787 0)
(-0.0128168 0.000606318 0)
(-0.0131411 0.000577061 0)
(-0.0134485 0.000545984 0)
(-0.013738 0.000513059 0)
(-0.0140087 0.000478263 0)
(-0.0142594 0.000441579 0)
(-0.0144892 0.000403001 0)
(-0.0146971 0.000362533 0)
(-0.014882 0.00032019 0)
(-0.0150431 0.000276003 0)
(-0.0151792 0.000230018 0)
(-0.0152895 0.000182296 0)
(-0.0153731 0.000132917 0)
(-0.0154292 8.198e-05 0)
(-0.015457 2.96058e-05 0)
(-0.0154557 -2.40647e-05 0)
(-0.0154248 -7.88682e-05 0)
(-0.0153637 -0.000134619 0)
(-0.015272 -0.000191111 0)
(-0.0151495 -0.000248115 0)
(-0.0149958 -0.00030538 0)
(-0.0148111 -0.000362638 0)
(-0.0145955 -0.000419599 0)
(-0.0143491 -0.000475958 0)
(-0.0140725 -0.000531394 0)
(-0.0137662 -0.000585571 0)
(-0.0134311 -0.000638144 0)
(-0.0130681 -0.00068876 0)
(-0.0126784 -0.00073706 0)
(-0.0122634 -0.000782682 0)
(-0.0118246 -0.00082527 0)
(-0.0113638 -0.000864468 0)
(-0.0108828 -0.000899934 0)
(-0.0103837 -0.000931337 0)
(-0.00986893 -0.000958362 0)
(-0.00934076 -0.000980715 0)
(-0.00880181 -0.000998124 0)
(-0.00825477 -0.00101035 0)
(-0.00770248 -0.00101717 0)
(-0.00714786 -0.0010184 0)
(-0.00659392 -0.0010139 0)
(-0.00604374 -0.00100355 0)
(-0.00550046 -0.000987279 0)
(-0.00496722 -0.000965052 0)
(-0.00444717 -0.000936873 0)
(-0.00394345 -0.000902791 0)
(-0.00345913 -0.0008629 0)
(-0.00299723 -0.000817341 0)
(-0.00256066 -0.000766307 0)
(-0.00215218 -0.000710051 0)
(-0.00177439 -0.000648898 0)
(-0.00142965 -0.000583257 0)
(-0.00112005 -0.000513652 0)
(-0.000847352 -0.000440758 0)
(-0.000612852 -0.000365457 0)
(-0.000417311 -0.00028892 0)
(-0.000260785 -0.00021274 0)
(-0.000142439 -0.000139103 0)
(-6.0305e-05 -7.10456e-05 0)
(-1.103e-05 -1.28025e-05 0)
(1.04593e-05 2.97887e-05 0)
(1.18893e-05 4.87973e-05 0)
(4.38366e-06 3.30736e-05 0)
(-1.73424e-06 -1.2929e-05 0)
(-2.28312e-05 2.38508e-05 0)
(-8.13319e-05 0.000102355 0)
(-0.000179907 0.000204382 0)
(-0.000321213 0.000317962 0)
(-0.000506796 0.000435066 0)
(-0.000736588 0.000550351 0)
(-0.00100928 0.000660421 0)
(-0.0013227 0.00076317 0)
(-0.00167415 0.000857391 0)
(-0.00206055 0.000942506 0)
(-0.00247863 0.00101837 0)
(-0.00292503 0.00108514 0)
(-0.00339641 0.00114314 0)
(-0.00388953 0.0011928 0)
(-0.00440129 0.00123461 0)
(-0.00492873 0.00126911 0)
(-0.00546903 0.00129685 0)
(-0.00601959 0.00131836 0)
(-0.00657796 0.00133414 0)
(-0.0071419 0.00134465 0)
(-0.0077093 0.00135032 0)
(-0.00827822 0.00135154 0)
(-0.00884684 0.00134867 0)
(-0.00941347 0.001342 0)
(-0.00997654 0.00133179 0)
(-0.0105346 0.00131826 0)
(-0.0110861 0.00130158 0)
(-0.0116299 0.0012819 0)
(-0.0121647 0.00125931 0)
(-0.0126891 0.00123391 0)
(-0.013202 0.00120574 0)
(-0.0137022 0.00117482 0)
(-0.0141884 0.00114115 0)
(-0.0146596 0.00110474 0)
(-0.0151146 0.00106555 0)
(-0.0155521 0.00102354 0)
(-0.0159709 0.000978688 0)
(-0.0163699 0.000930943 0)
(-0.0167479 0.000880265 0)
(-0.0171035 0.000826618 0)
(-0.0174357 0.000769971 0)
(-0.0177431 0.000710305 0)
(-0.0180245 0.000647616 0)
(-0.0182787 0.000581916 0)
(-0.0185044 0.000513236 0)
(-0.0187006 0.00044163 0)
(-0.0188659 0.000367176 0)
(-0.0189994 0.000289979 0)
(-0.0191 0.000210172 0)
(-0.0191665 0.000127918 0)
(-0.0191982 4.34134e-05 0)
(-0.0191942 -4.31125e-05 0)
(-0.0191538 -0.000131397 0)
(-0.0190763 -0.000221141 0)
(-0.0189614 -0.000312013 0)
(-0.0188086 -0.000403648 0)
(-0.0186177 -0.000495645 0)
(-0.0183888 -0.000587576 0)
(-0.0181221 -0.000678979 0)
(-0.0178178 -0.000769368 0)
(-0.0174766 -0.000858234 0)
(-0.0170992 -0.000945043 0)
(-0.0166866 -0.00102925 0)
(-0.0162401 -0.00111029 0)
(-0.0157611 -0.0011876 0)
(-0.0152512 -0.00126061 0)
(-0.0147123 -0.00132876 0)
(-0.0141466 -0.00139148 0)
(-0.0135563 -0.00144823 0)
(-0.0129441 -0.00149849 0)
(-0.0123127 -0.00154177 0)
(-0.0116649 -0.00157759 0)
(-0.011004 -0.00160554 0)
(-0.0103332 -0.00162523 0)
(-0.00965589 -0.00163633 0)
(-0.00897563 -0.00163853 0)
(-0.00829604 -0.00163162 0)
(-0.00762085 -0.00161543 0)
(-0.00695381 -0.00158982 0)
(-0.00629872 -0.00155477 0)
(-0.00565935 -0.00151029 0)
(-0.00503946 -0.00145647 0)
(-0.00444273 -0.00139347 0)
(-0.00387274 -0.00132154 0)
(-0.00333295 -0.00124101 0)
(-0.00282661 -0.00115233 0)
(-0.00235678 -0.00105603 0)
(-0.00192621 -0.000952815 0)
(-0.0015373 -0.000843563 0)
(-0.00119204 -0.000729388 0)
(-0.000891888 -0.000611717 0)
(-0.000637657 -0.000492406 0)
(-0.000429381 -0.000373892 0)
(-0.000266131 -0.000259412 0)
(-0.000145818 -0.000153306 0)
(-6.49743e-05 -6.13961e-05 0)
(-1.84793e-05 8.57826e-06 0)
(8.34935e-07 4.64045e-05 0)
(2.36955e-06 3.77719e-05 0)
(-4.62756e-06 1.93378e-06 0)
(-3.92933e-05 7.57757e-05 0)
(-0.000124443 0.000196208 0)
(-0.000258805 0.00034358 0)
(-0.000443116 0.000504275 0)
(-0.000678127 0.000668776 0)
(-0.000963152 0.00083053 0)
(-0.00129644 0.000985196 0)
(-0.0016755 0.00112996 0)
(-0.00209735 0.00126315 0)
(-0.00255858 0.0013839 0)
(-0.0030556 0.00149192 0)
(-0.00358473 0.00158732 0)
(-0.00414227 0.00167046 0)
(-0.00472465 0.00174187 0)
(-0.00532836 0.00180219 0)
(-0.00595005 0.00185212 0)
(-0.00658657 0.00189239 0)
(-0.00723492 0.00192371 0)
(-0.00789232 0.00194675 0)
(-0.00855615 0.00196216 0)
(-0.00922399 0.00197053 0)
(-0.00989355 0.0019724 0)
(-0.0105627 0.00196828 0)
(-0.0112295 0.00195857 0)
(-0.011892 0.00194365 0)
(-0.0125485 0.00192382 0)
(-0.0131974 0.00189933 0)
(-0.013837 0.0018704 0)
(-0.0144658 0.00183719 0)
(-0.0150824 0.00179981 0)
(-0.0156852 0.00175833 0)
(-0.0162729 0.0017128 0)
(-0.016844 0.00166323 0)
(-0.0173972 0.00160962 0)
(-0.0179311 0.00155194 0)
(-0.0184442 0.00149015 0)
(-0.0189353 0.0014242 0)
(-0.0194027 0.00135404 0)
(-0.0198452 0.00127961 0)
(-0.0202612 0.00120089 0)
(-0.0206494 0.00111782 0)
(-0.0210084 0.0010304 0)
(-0.0213366 0.000938615 0)
(-0.0216327 0.000842504 0)
(-0.0218953 0.000742117 0)
(-0.022123 0.000637536 0)
(-0.0223145 0.000528883 0)
(-0.0224684 0.000416315 0)
(-0.0225837 0.000300031 0)
(-0.0226591 0.000180272 0)
(-0.0226936 5.73258e-05 0)
(-0.0226863 -6.84717e-05 0)
(-0.0226364 -0.000196738 0)
(-0.0225431 -0.00032704 0)
(-0.022406 -0.000458898 0)
(-0.0222248 -0.000591783 0)
(-0.0219991 -0.00072512 0)
(-0.0217291 -0.000858288 0)
(-0.0214149 -0.000990626 0)
(-0.0210571 -0.00112144 0)
(-0.0206562 -0.00124998 0)
(-0.0202133 -0.00137551 0)
(-0.0197295 -0.00149723 0)
(-0.0192062 -0.00161434 0)
(-0.0186451 -0.00172603 0)
(-0.0180481 -0.00183148 0)
(-0.0174175 -0.00192989 0)
(-0.0167557 -0.00202047 0)
(-0.0160655 -0.00210243 0)
(-0.0153497 -0.00217503 0)
(-0.0146116 -0.00223758 0)
(-0.0138545 -0.0022894 0)
(-0.0130821 -0.00232989 0)
(-0.0122981 -0.00235851 0)
(-0.0115065 -0.00237478 0)
(-0.0107112 -0.00237828 0)
(-0.00991666 -0.00236871 0)
(-0.00912694 -0.00234582 0)
(-0.00834643 -0.00230945 0)
(-0.00757945 -0.00225955 0)
(-0.00683034 -0.00219617 0)
(-0.00610338 -0.00211945 0)
(-0.00540276 -0.00202965 0)
(-0.00473255 -0.00192715 0)
(-0.00409667 -0.00181247 0)
(-0.00349879 -0.00168625 0)
(-0.00294231 -0.00154933 0)
(-0.00243032 -0.00140277 0)
(-0.00196548 -0.00124784 0)
(-0.00154997 -0.00108619 0)
(-0.00118539 -0.00091985 0)
(-0.000872626 -0.000751432 0)
(-0.000611757 -0.000584263 0)
(-0.000401893 -0.000422647 0)
(-0.000241021 -0.000272172 0)
(-0.000125813 -0.000140123 0)
(-5.14257e-05 -3.59095e-05 0)
(-1.17453e-05 2.83581e-05 0)
(1.23316e-07 3.60644e-05 0)
(-7.396e-06 2.54506e-05 0)
(-5.56479e-05 0.000149231 0)
(-0.000167761 0.000321783 0)
(-0.000338507 0.000522667 0)
(-0.000566459 0.00073729 0)
(-0.000851297 0.000955117 0)
(-0.00119155 0.00116867 0)
(-0.00158491 0.00137279 0)
(-0.00202845 0.00156407 0)
(-0.00251882 0.00174042 0)
(-0.0030523 0.0019007 0)
(-0.003625 0.00204447 0)
(-0.00423294 0.00217178 0)
(-0.00487217 0.00228302 0)
(-0.00553878 0.0023788 0)
(-0.00622894 0.00245992 0)
(-0.00693902 0.00252723 0)
(-0.00766553 0.00258164 0)
(-0.00840517 0.00262403 0)
(-0.00915486 0.00265528 0)
(-0.00991168 0.00267622 0)
(-0.0106729 0.0026876 0)
(-0.011436 0.00269015 0)
(-0.0121984 0.0026845 0)
(-0.0129581 0.00267121 0)
(-0.0137129 0.00265075 0)
(-0.0144607 0.00262355 0)
(-0.0151996 0.00258995 0)
(-0.0159279 0.00255021 0)
(-0.0166438 0.00250457 0)
(-0.0173455 0.00245319 0)
(-0.0180315 0.00239616 0)
(-0.0187 0.00233357 0)
(-0.0193495 0.00226543 0)
(-0.0199783 0.00219174 0)
(-0.020585 0.00211248 0)
(-0.0211678 0.00202761 0)
(-0.0217252 0.00193706 0)
(-0.0222555 0.00184079 0)
(-0.0227572 0.00173874 0)
(-0.0232287 0.00163084 0)
(-0.0236682 0.00151708 0)
(-0.0240743 0.00139743 0)
(-0.0244453 0.00127192 0)
(-0.0247796 0.00114057 0)
(-0.0250756 0.00100348 0)
(-0.0253318 0.000860759 0)
(-0.0255468 0.00071259 0)
(-0.0257191 0.000559189 0)
(-0.0258473 0.000400832 0)
(-0.0259303 0.000237852 0)
(-0.0259668 7.06426e-05 0)
(-0.0259559 -0.000100338 0)
(-0.0258966 -0.000274568 0)
(-0.0257882 -0.000451462 0)
(-0.0256302 -0.000630369 0)
(-0.0254221 -0.000810574 0)
(-0.0251639 -0.0009913 0)
(-0.0248555 -0.00117171 0)
(-0.0244973 -0.00135092 0)
(-0.0240897 -0.00152799 0)
(-0.0236336 -0.00170193 0)
(-0.0231301 -0.00187172 0)
(-0.0225803 -0.0020363 0)
(-0.0219861 -0.00219462 0)
(-0.0213493 -0.00234557 0)
(-0.0206721 -0.00248807 0)
(-0.019957 -0.00262103 0)
(-0.0192067 -0.00274341 0)
(-0.0184244 -0.00285415 0)
(-0.0176133 -0.00295228 0)
(-0.016777 -0.00303685 0)
(-0.0159193 -0.00310697 0)
(-0.0150443 -0.00316185 0)
(-0.0141561 -0.00320075 0)
(-0.0132593 -0.00322305 0)
(-0.0123582 -0.00322822 0)
(-0.0114576 -0.00321582 0)
(-0.0105623 -0.00318554 0)
(-0.00967707 -0.00313721 0)
(-0.00880669 -0.00307075 0)
(-0.00795599 -0.00298626 0)
(-0.00712972 -0.00288395 0)
(-0.00633252 -0.0027642 0)
(-0.00556886 -0.00262754 0)
(-0.00484305 -0.0024747 0)
(-0.00415912 -0.00230661 0)
(-0.00352079 -0.00212442 0)
(-0.00293139 -0.00192958 0)
(-0.00239383 -0.00172386 0)
(-0.00191047 -0.00150943 0)
(-0.00148303 -0.00128902 0)
(-0.00111254 -0.001066 0)
(-0.000799184 -0.00084459 0)
(-0.000542217 -0.000630129 0)
(-0.000339858 -0.00042936 0)
(-0.000189116 -0.000250847 0)
(-8.56478e-05 -0.000105384 0)
(-2.46697e-05 -6.53419e-06 0)
(-2.11457e-06 2.75974e-05 0)
(-9.9727e-06 5.72883e-05 0)
(-7.13932e-05 0.000244055 0)
(-0.000210067 0.000479022 0)
(-0.00041688 0.000741683 0)
(-0.000688161 0.00101703 0)
(-0.00102244 0.00129392 0)
(-0.00141733 0.0015642 0)
(-0.00186983 0.00182215 0)
(-0.00237647 0.00206389 0)
(-0.00293348 0.002287 0)
(-0.00353679 0.0024901 0)
(-0.00418224 0.00267262 0)
(-0.00486557 0.00283455 0)
(-0.00558255 0.00297632 0)
(-0.00632899 0.00309864 0)
(-0.00710082 0.00320244 0)
(-0.00789413 0.00328873 0)
(-0.00870517 0.00335858 0)
(-0.00953039 0.00341307 0)
(-0.0103664 0.00345327 0)
(-0.0112101 0.00348019 0)
(-0.0120585 0.0034948 0)
(-0.0129087 0.00349795 0)
(-0.013758 0.00349046 0)
(-0.0146042 0.003473 0)
(-0.0154446 0.00344621 0)
(-0.0162773 0.00341059 0)
(-0.0170999 0.00336659 0)
(-0.0179105 0.00331456 0)
(-0.0187071 0.00325479 0)
(-0.0194879 0.00318749 0)
(-0.0202509 0.0031128 0)
(-0.0209943 0.00303082 0)
(-0.0217163 0.00294159 0)
(-0.0224152 0.00284512 0)
(-0.0230891 0.00274139 0)
(-0.0237363 0.00263035 0)
(-0.024355 0.00251195 0)
(-0.0249435 0.00238611 0)
(-0.0254998 0.00225279 0)
(-0.0260224 0.00211192 0)
(-0.0265092 0.00196348 0)
(-0.0269587 0.00180746 0)
(-0.0273689 0.00164388 0)
(-0.0277382 0.00147281 0)
(-0.0280649 0.00129438 0)
(-0.0283472 0.00110874 0)
(-0.0285836 0.000916135 0)
(-0.0287725 0.000716849 0)
(-0.0289124 0.000511248 0)
(-0.029002 0.00029977 0)
(-0.02904 8.29279e-05 0)
(-0.0290253 -0.000138683 0)
(-0.0289571 -0.000364386 0)
(-0.0288344 -0.000593423 0)
(-0.0286567 -0.000824953 0)
(-0.0284236 -0.00105806 0)
(-0.0281349 -0.00129173 0)
(-0.0277907 -0.0015249 0)
(-0.0273915 -0.00175643 0)
(-0.0269376 -0.0019851 0)
(-0.0264302 -0.00220966 0)
(-0.0258703 -0.0024288 0)
(-0.0252594 -0.00264116 0)
(-0.0245994 -0.00284538 0)
(-0.0238923 -0.00304007 0)
(-0.0231407 -0.00322382 0)
(-0.0223472 -0.00339528 0)
(-0.021515 -0.00355307 0)
(-0.0206473 -0.00369588 0)
(-0.0197479 -0.00382244 0)
(-0.0188207 -0.00393156 0)
(-0.0178698 -0.00402212 0)
(-0.0168996 -0.0040931 0)
(-0.0159149 -0.00414357 0)
(-0.0149205 -0.00417273 0)
(-0.0139212 -0.00417992 0)
(-0.0129223 -0.00416461 0)
(-0.0119288 -0.00412642 0)
(-0.0109462 -0.00406511 0)
(-0.00997955 -0.00398066 0)
(-0.00903416 -0.00387316 0)
(-0.00811515 -0.00374295 0)
(-0.00722757 -0.00359053 0)
(-0.00637625 -0.00341663 0)
(-0.00556583 -0.00322222 0)
(-0.00480065 -0.00300853 0)
(-0.00408471 -0.00277707 0)
(-0.00342158 -0.00252973 0)
(-0.00281437 -0.00226878 0)
(-0.00226561 -0.00199699 0)
(-0.00177721 -0.00171777 0)
(-0.00135033 -0.00143526 0)
(-0.000985358 -0.00115456 0)
(-0.000681768 -0.000881962 0)
(-0.000438123 -0.000625239 0)
(-0.0002519 -0.000394038 0)
(-0.000119388 -0.000200239 0)
(-3.72376e-05 -5.84312e-05 0)
(-4.22175e-06 1.24659e-05 0)
(-1.23893e-05 9.70462e-05 0)
(-8.63554e-05 0.000359553 0)
(-0.000250703 0.0006672 0)
(-0.000492644 0.000999972 0)
(-0.000806331 0.00134282 0)
(-0.00118908 0.00168436 0)
(-0.00163754 0.00201609 0)
(-0.00214787 0.00233194 0)
(-0.00271601 0.00262772 0)
(-0.00333771 0.00290076 0)
(-0.00400854 0.00314951 0)
(-0.00472402 0.00337331 0)
(-0.00547961 0.00357212 0)
(-0.00627081 0.00374644 0)
(-0.00709319 0.00389708 0)
(-0.00794245 0.00402508 0)
(-0.00881443 0.00413162 0)
(-0.00970519 0.00421794 0)
(-0.0106109 0.00428532 0)
(-0.0115281 0.00433502 0)
(-0.0124532 0.00436825 0)
(-0.0133831 0.00438615 0)
(-0.0143148 0.00438976 0)
(-0.0152454 0.00438004 0)
(-0.0161722 0.00435783 0)
(-0.0170926 0.00432388 0)
(-0.0180043 0.00427882 0)
(-0.0189049 0.0042232 0)
(-0.0197922 0.00415746 0)
(-0.020664 0.00408194 0)
(-0.0215182 0.00399692 0)
(-0.0223528 0.00390257 0)
(-0.0231659 0.00379902 0)
(-0.0239553 0.00368635 0)
(-0.0247193 0.00356456 0)
(-0.0254557 0.00343364 0)
(-0.0261628 0.00329356 0)
(-0.0268385 0.00314424 0)
(-0.0274808 0.00298562 0)
(-0.0280879 0.00281764 0)
(-0.0286578 0.00264025 0)
(-0.0291886 0.00245341 0)
(-0.0296782 0.00225714 0)
(-0.0301249 0.00205149 0)
(-0.0305267 0.00183654 0)
(-0.0308817 0.00161246 0)
(-0.0311882 0.00137946 0)
(-0.0314444 0.00113785 0)
(-0.0316486 0.000887991 0)
(-0.0317992 0.000630352 0)
(-0.0318949 0.000365483 0)
(-0.0319342 9.40313e-05 0)
(-0.031916 -0.000183257 0)
(-0.0318393 -0.000465537 0)
(-0.0317032 -0.00075186 0)
(-0.0315071 -0.00104118 0)
(-0.0312506 -0.00133234 0)
(-0.0309336 -0.00162411 0)
(-0.0305561 -0.00191515 0)
(-0.0301186 -0.00220404 0)
(-0.0296216 -0.00248928 0)
(-0.0290663 -0.00276931 0)
(-0.0284539 -0.0030425 0)
(-0.027786 -0.0033072 0)
(-0.0270647 -0.00356168 0)
(-0.0262921 -0.00380425 0)
(-0.0254711 -0.00403318 0)
(-0.0246046 -0.00424677 0)
(-0.0236958 -0.00444334 0)
(-0.0227486 -0.00462126 0)
(-0.0217667 -0.00477898 0)
(-0.0207546 -0.00491503 0)
(-0.0197166 -0.00502803 0)
(-0.0186577 -0.00511672 0)
(-0.0175827 -0.00517997 0)
(-0.016497 -0.00521682 0)
(-0.0154059 -0.00522644 0)
(-0.0143149 -0.0052082 0)
(-0.0132296 -0.00516165 0)
(-0.0121557 -0.00508654 0)
(-0.0110987 -0.00498282 0)
(-0.0100644 -0.0048507 0)
(-0.00905817 -0.00469057 0)
(-0.00808543 -0.00450312 0)
(-0.00715136 -0.0042893 0)
(-0.00626089 -0.00405032 0)
(-0.00541864 -0.00378775 0)
(-0.00462886 -0.00350351 0)
(-0.00389535 -0.00319994 0)
(-0.00322142 -0.00287983 0)
(-0.00260978 -0.00254659 0)
(-0.00206253 -0.00220429 0)
(-0.00158104 -0.00185783 0)
(-0.00116589 -0.00151313 0)
(-0.000816893 -0.00117735 0)
(-0.000533002 -0.000859182 0)
(-0.000312233 -0.000569145 0)
(-0.000151561 -0.000319937 0)
(-4.905e-05 -0.000126803 0)
(-6.14006e-06 -8.97857e-06 0)
(-1.46409e-05 0.000144256 0)
(-0.000100448 0.000494801 0)
(-0.000289334 0.000885248 0)
(-0.000565107 0.00129638 0)
(-0.000919881 0.00171347 0)
(-0.00134974 0.00212519 0)
(-0.00185029 0.00252297 0)
(-0.00241685 0.0029006 0)
(-0.0030447 0.00325374 0)
(-0.00372907 0.00357957 0)
(-0.00446514 0.00387646 0)
(-0.00524805 0.00414371 0)
(-0.006073 0.00438134 0)
(-0.0069352 0.00458989 0)
(-0.00783001 0.00477029 0)
(-0.0087529 0.00492371 0)
(-0.00969952 0.0050515 0)
(-0.0106657 0.00515509 0)
(-0.0116475 0.00523595 0)
(-0.012641 0.00529553 0)
(-0.0136428 0.00533524 0)
(-0.0146493 0.0053564 0)
(-0.0156575 0.00536023 0)
(-0.0166642 0.00534785 0)
(-0.0176666 0.00532027 0)
(-0.0186619 0.00527835 0)
(-0.0196475 0.00522286 0)
(-0.020621 0.00515445 0)
(-0.0215799 0.00507363 0)
(-0.0225219 0.00498083 0)
(-0.0234448 0.00487637 0)
(-0.0243464 0.00476049 0)
(-0.0252244 0.00463334 0)
(-0.0260769 0.004495 0)
(-0.0269016 0.00434553 0)
(-0.0276965 0.0041849 0)
(-0.0284594 0.00401307 0)
(-0.0291883 0.00382999 0)
(-0.029881 0.00363559 0)
(-0.0305355 0.0034298 0)
(-0.0311497 0.00321258 0)
(-0.0317215 0.0029839 0)
(-0.0322488 0.00274379 0)
(-0.0327296 0.00249232 0)
(-0.0331619 0.00222962 0)
(-0.0335435 0.00195589 0)
(-0.0338727 0.0016714 0)
(-0.0341475 0.00137653 0)
(-0.0343663 0.00107174 0)
(-0.0345272 0.000757599 0)
(-0.0346287 0.000434785 0)
(-0.0346695 0.000104088 0)
(-0.0346482 -0.000233583 0)
(-0.0345638 -0.000577197 0)
(-0.0344154 -0.000925604 0)
(-0.0342023 -0.00127753 0)
(-0.0339241 -0.00163159 0)
(-0.0335807 -0.00198626 0)
(-0.0331722 -0.00233995 0)
(-0.0326989 -0.00269092 0)
(-0.0321618 -0.00303737 0)
(-0.0315617 -0.00337742 0)
(-0.0309002 -0.00370909 0)
(-0.030179 -0.00403039 0)
(-0.0294002 -0.00433925 0)
(-0.0285663 -0.00463361 0)
(-0.0276802 -0.0049114 0)
(-0.026745 -0.00517056 0)
(-0.0257645 -0.00540908 0)
(-0.0247424 -0.00562501 0)
(-0.023683 -0.00581648 0)
(-0.022591 -0.0059817 0)
(-0.0214711 -0.00611905 0)
(-0.0203284 -0.006227 0)
(-0.0191685 -0.00630423 0)
(-0.0179968 -0.00634956 0)
(-0.016819 -0.00636204 0)
(-0.0156411 -0.00634092 0)
(-0.014469 -0.00628567 0)
(-0.0133088 -0.00619603 0)
(-0.0121664 -0.00607198 0)
(-0.0110478 -0.00591377 0)
(-0.00995886 -0.00572194 0)
(-0.0089053 -0.00549736 0)
(-0.00789259 -0.00524118 0)
(-0.00692595 -0.00495495 0)
(-0.00601024 -0.00464057 0)
(-0.00514995 -0.00430037 0)
(-0.00434911 -0.00393718 0)
(-0.00361123 -0.00355434 0)
(-0.00293923 -0.00315587 0)
(-0.0023354 -0.0027465 0)
(-0.00180134 -0.00233187 0)
(-0.0013379 -0.00191867 0)
(-0.000945222 -0.00151485 0)
(-0.000622709 -0.00112985 0)
(-0.00036893 -0.000774912 0)
(-0.000181537 -0.000463324 0)
(-5.99033e-05 -0.000210702 0)
(-7.85146e-06 -3.62441e-05 0)
(-1.6715e-05 0.000198441 0)
(-0.000113655 0.000648788 0)
(-0.000325839 0.00113187 0)
(-0.000633972 0.00162945 0)
(-0.00102825 0.00212744 0)
(-0.00150356 0.00261481 0)
(-0.00205447 0.00308317 0)
(-0.00267543 0.00352634 0)
(-0.00336105 0.00393997 0)
(-0.00410601 0.00432123 0)
(-0.00490502 0.00466852 0)
(-0.00575288 0.00498117 0)
(-0.00664444 0.00525926 0)
(-0.00757468 0.00550346 0)
(-0.00853871 0.0057148 0)
(-0.0095318 0.00589462 0)
(-0.0105494 0.00604445 0)
(-0.0115872 0.0061659 0)
(-0.012641 0.00626064 0)
(-0.0137068 0.00633034 0)
(-0.0147809 0.00637657 0)
(-0.0158598 0.00640086 0)
(-0.0169399 0.00640462 0)
(-0.0180182 0.00638912 0)
(-0.0190917 0.00635552 0)
(-0.0201573 0.00630483 0)
(-0.0212124 0.00623794 0)
(-0.0222543 0.00615559 0)
(-0.0232804 0.0060584 0)
(-0.0242883 0.00594687 0)
(-0.0252756 0.00582138 0)
(-0.02624 0.0056822 0)
(-0.0271791 0.00552954 0)
(-0.0280906 0.00536349 0)
(-0.0289724 0.00518412 0)
(-0.0298221 0.00499142 0)
(-0.0306376 0.00478536 0)
(-0.0314165 0.00456588 0)
(-0.0321567 0.0043329 0)
(-0.032856 0.00408638 0)
(-0.033512 0.00382626 0)
(-0.0341226 0.00355254 0)
(-0.0346855 0.00326525 0)
(-0.0351987 0.0029645 0)
(-0.0356598 0.00265044 0)
(-0.0360669 0.00232332 0)
(-0.0364179 0.0019835 0)
(-0.0367107 0.00163141 0)
(-0.0369435 0.00126763 0)
(-0.0371145 0.000892817 0)
(-0.0372221 0.000507799 0)
(-0.0372647 0.000113517 0)
(-0.037241 -0.000288945 0)
(-0.0371499 -0.000698361 0)
(-0.0369904 -0.00111336 0)
(-0.0367618 -0.00153243 0)
(-0.0364637 -0.00195393 0)
(-0.0360959 -0.00237605 0)
(-0.0356585 -0.0027969 0)
(-0.0351521 -0.00321443 0)
(-0.0345774 -0.00362651 0)
(-0.0339355 -0.00403088 0)
(-0.0332279 -0.00442525 0)
(-0.0324566 -0.00480722 0)
(-0.0316237 -0.00517437 0)
(-0.030732 -0.00552426 0)
(-0.0297845 -0.00585444 0)