# Probe 0 (1 1 1)
#       Probe             0
#        Time
       0.0033 -1.79769e+307
       0.0066 -1.79769e+307
       0.0099 -1.79769e+307
       0.0132 -1.79769e+307
       0.0165 -1.79769e+307
       0.0198 -1.79769e+307
       0.0231 -1.79769e+307
       0.0264 -1.79769e+307
       0.0297 -1.79769e+307
        0.033 -1.79769e+307
       0.0363 -1.79769e+307
       0.0396 -1.79769e+307
       0.0429 -1.79769e+307
       0.0462 -1.79769e+307
       0.0495 -1.79769e+307
       0.0528 -1.79769e+307
       0.0561 -1.79769e+307
       0.0594 -1.79769e+307
       0.0627 -1.79769e+307
        0.066 -1.79769e+307
       0.0693 -1.79769e+307
       0.0726 -1.79769e+307
       0.0759 -1.79769e+307
       0.0792 -1.79769e+307
       0.0825 -1.79769e+307
       0.0858 -1.79769e+307
       0.0891 -1.79769e+307
       0.0924 -1.79769e+307
       0.0957 -1.79769e+307
        0.099 -1.79769e+307
       0.1023 -1.79769e+307
       0.1056 -1.79769e+307
       0.1089 -1.79769e+307
       0.1122 -1.79769e+307
       0.1155 -1.79769e+307
       0.1188 -1.79769e+307
       0.1221 -1.79769e+307
       0.1254 -1.79769e+307
       0.1287 -1.79769e+307
        0.132 -1.79769e+307
       0.1353 -1.79769e+307
       0.1386 -1.79769e+307
       0.1419 -1.79769e+307
       0.1452 -1.79769e+307
       0.1485 -1.79769e+307
       0.1518 -1.79769e+307
       0.1551 -1.79769e+307
       0.1584 -1.79769e+307
       0.1617 -1.79769e+307
        0.165 -1.79769e+307
       0.1683 -1.79769e+307
       0.1716 -1.79769e+307
       0.1749 -1.79769e+307
       0.1782 -1.79769e+307
       0.1815 -1.79769e+307
       0.1848 -1.79769e+307
       0.1881 -1.79769e+307
       0.1914 -1.79769e+307
       0.1947 -1.79769e+307
        0.198 -1.79769e+307
       0.2013 -1.79769e+307
       0.2046 -1.79769e+307
       0.2079 -1.79769e+307
       0.2112 -1.79769e+307
       0.2145 -1.79769e+307
       0.2178 -1.79769e+307
       0.2211 -1.79769e+307
       0.2244 -1.79769e+307
       0.2277 -1.79769e+307
        0.231 -1.79769e+307
       0.2343 -1.79769e+307
       0.2376 -1.79769e+307
       0.2409 -1.79769e+307
       0.2442 -1.79769e+307
       0.2475 -1.79769e+307
       0.2508 -1.79769e+307
       0.2541 -1.79769e+307
       0.2574 -1.79769e+307
       0.2607 -1.79769e+307
        0.264 -1.79769e+307
       0.2673 -1.79769e+307
       0.2706 -1.79769e+307
       0.2739 -1.79769e+307
       0.2772 -1.79769e+307
       0.2805 -1.79769e+307
       0.2838 -1.79769e+307
       0.2871 -1.79769e+307
       0.2904 -1.79769e+307
       0.2937 -1.79769e+307
        0.297 -1.79769e+307
       0.3003 -1.79769e+307
       0.3036 -1.79769e+307
       0.3069 -1.79769e+307
       0.3102 -1.79769e+307
       0.3135 -1.79769e+307
       0.3168 -1.79769e+307
       0.3201 -1.79769e+307
       0.3234 -1.79769e+307
       0.3267 -1.79769e+307
         0.33 -1.79769e+307
       0.3333 -1.79769e+307
       0.3366 -1.79769e+307
       0.3399 -1.79769e+307
       0.3432 -1.79769e+307
       0.3465 -1.79769e+307
       0.3498 -1.79769e+307
       0.3531 -1.79769e+307
       0.3564 -1.79769e+307
       0.3597 -1.79769e+307
        0.363 -1.79769e+307
       0.3663 -1.79769e+307
       0.3696 -1.79769e+307
       0.3729 -1.79769e+307
       0.3762 -1.79769e+307
       0.3795 -1.79769e+307
       0.3828 -1.79769e+307
       0.3861 -1.79769e+307
       0.3894 -1.79769e+307
       0.3927 -1.79769e+307
        0.396 -1.79769e+307
       0.3993 -1.79769e+307
       0.4026 -1.79769e+307
       0.4059 -1.79769e+307
       0.4092 -1.79769e+307
       0.4125 -1.79769e+307
       0.4158 -1.79769e+307
       0.4191 -1.79769e+307
       0.4224 -1.79769e+307
       0.4257 -1.79769e+307
        0.429 -1.79769e+307
       0.4323 -1.79769e+307
       0.4356 -1.79769e+307
       0.4389 -1.79769e+307
       0.4422 -1.79769e+307
       0.4455 -1.79769e+307
       0.4488 -1.79769e+307
       0.4521 -1.79769e+307
       0.4554 -1.79769e+307
       0.4587 -1.79769e+307
        0.462 -1.79769e+307
       0.4653 -1.79769e+307
       0.4686 -1.79769e+307
       0.4719 -1.79769e+307
       0.4752 -1.79769e+307
       0.4785 -1.79769e+307
       0.4818 -1.79769e+307
       0.4851 -1.79769e+307
       0.4884 -1.79769e+307
       0.4917 -1.79769e+307
        0.495 -1.79769e+307
       0.4983 -1.79769e+307
       0.5016 -1.79769e+307
       0.5049 -1.79769e+307
       0.5082 -1.79769e+307
       0.5115 -1.79769e+307
       0.5148 -1.79769e+307
       0.5181 -1.79769e+307
       0.5214 -1.79769e+307
       0.5247 -1.79769e+307
        0.528 -1.79769e+307
       0.5313 -1.79769e+307
       0.5346 -1.79769e+307
       0.5379 -1.79769e+307
       0.5412 -1.79769e+307
       0.5445 -1.79769e+307
       0.5478 -1.79769e+307
       0.5511 -1.79769e+307
       0.5544 -1.79769e+307
       0.5577 -1.79769e+307
        0.561 -1.79769e+307
       0.5643 -1.79769e+307
       0.5676 -1.79769e+307
       0.5709 -1.79769e+307
       0.5742 -1.79769e+307
       0.5775 -1.79769e+307
       0.5808 -1.79769e+307
       0.5841 -1.79769e+307
       0.5874 -1.79769e+307
       0.5907 -1.79769e+307
        0.594 -1.79769e+307
       0.5973 -1.79769e+307
       0.6006 -1.79769e+307
       0.6039 -1.79769e+307
       0.6072 -1.79769e+307
       0.6105 -1.79769e+307
       0.6138 -1.79769e+307
       0.6171 -1.79769e+307
       0.6204 -1.79769e+307
       0.6237 -1.79769e+307
        0.627 -1.79769e+307
       0.6303 -1.79769e+307
       0.6336 -1.79769e+307
       0.6369 -1.79769e+307
       0.6402 -1.79769e+307
       0.6435 -1.79769e+307
       0.6468 -1.79769e+307
       0.6501 -1.79769e+307
       0.6534 -1.79769e+307
       0.6567 -1.79769e+307
         0.66 -1.79769e+307
       0.6633 -1.79769e+307
       0.6666 -1.79769e+307
       0.6699 -1.79769e+307
       0.6732 -1.79769e+307
       0.6765 -1.79769e+307
       0.6798 -1.79769e+307
       0.6831 -1.79769e+307
       0.6864 -1.79769e+307
       0.6897 -1.79769e+307
        0.693 -1.79769e+307
       0.6963 -1.79769e+307
       0.6996 -1.79769e+307
       0.7029 -1.79769e+307
       0.7062 -1.79769e+307
       0.7095 -1.79769e+307
       0.7128 -1.79769e+307
       0.7161 -1.79769e+307
       0.7194 -1.79769e+307
       0.7227 -1.79769e+307
        0.726 -1.79769e+307
       0.7293 -1.79769e+307
       0.7326 -1.79769e+307
       0.7359 -1.79769e+307
       0.7392 -1.79769e+307
       0.7425 -1.79769e+307
       0.7458 -1.79769e+307
       0.7491 -1.79769e+307
       0.7524 -1.79769e+307
       0.7557 -1.79769e+307
        0.759 -1.79769e+307
       0.7623 -1.79769e+307
       0.7656 -1.79769e+307
       0.7689 -1.79769e+307
       0.7722 -1.79769e+307
       0.7755 -1.79769e+307
       0.7788 -1.79769e+307
       0.7821 -1.79769e+307
       0.7854 -1.79769e+307
       0.7887 -1.79769e+307
        0.792 -1.79769e+307
       0.7953 -1.79769e+307
       0.7986 -1.79769e+307
       0.8019 -1.79769e+307
       0.8052 -1.79769e+307
       0.8085 -1.79769e+307
       0.8118 -1.79769e+307
       0.8151 -1.79769e+307
       0.8184 -1.79769e+307
       0.8217 -1.79769e+307
        0.825 -1.79769e+307
       0.8283 -1.79769e+307
       0.8316 -1.79769e+307
       0.8349 -1.79769e+307
       0.8382 -1.79769e+307
       0.8415 -1.79769e+307
       0.8448 -1.79769e+307
       0.8481 -1.79769e+307
       0.8514 -1.79769e+307
       0.8547 -1.79769e+307
        0.858 -1.79769e+307
       0.8613 -1.79769e+307
       0.8646 -1.79769e+307
       0.8679 -1.79769e+307
       0.8712 -1.79769e+307
       0.8745 -1.79769e+307
       0.8778 -1.79769e+307
       0.8811 -1.79769e+307
       0.8844 -1.79769e+307
       0.8877 -1.79769e+307
        0.891 -1.79769e+307
       0.8943 -1.79769e+307
       0.8976 -1.79769e+307
       0.9009 -1.79769e+307
       0.9042 -1.79769e+307
       0.9075 -1.79769e+307
       0.9108 -1.79769e+307
       0.9141 -1.79769e+307
       0.9174 -1.79769e+307
       0.9207 -1.79769e+307
        0.924 -1.79769e+307
       0.9273 -1.79769e+307
       0.9306 -1.79769e+307
       0.9339 -1.79769e+307
       0.9372 -1.79769e+307
       0.9405 -1.79769e+307
       0.9438 -1.79769e+307
       0.9471 -1.79769e+307
       0.9504 -1.79769e+307
       0.9537 -1.79769e+307
        0.957 -1.79769e+307
       0.9603 -1.79769e+307
       0.9636 -1.79769e+307
       0.9669 -1.79769e+307
       0.9702 -1.79769e+307
       0.9735 -1.79769e+307
       0.9768 -1.79769e+307
       0.9801 -1.79769e+307
       0.9834 -1.79769e+307
       0.9867 -1.79769e+307
         0.99 -1.79769e+307
       0.9933 -1.79769e+307
       0.9966 -1.79769e+307
       0.9999 -1.79769e+307
       1.0032 -1.79769e+307
       1.0065 -1.79769e+307
       1.0098 -1.79769e+307
       1.0131 -1.79769e+307
       1.0164 -1.79769e+307
       1.0197 -1.79769e+307
        1.023 -1.79769e+307
       1.0263 -1.79769e+307
       1.0296 -1.79769e+307
       1.0329 -1.79769e+307
       1.0362 -1.79769e+307
       1.0395 -1.79769e+307
       1.0428 -1.79769e+307
       1.0461 -1.79769e+307
       1.0494 -1.79769e+307
       1.0527 -1.79769e+307
        1.056 -1.79769e+307
       1.0593 -1.79769e+307
       1.0626 -1.79769e+307
       1.0659 -1.79769e+307
       1.0692 -1.79769e+307
       1.0725 -1.79769e+307
       1.0758 -1.79769e+307
       1.0791 -1.79769e+307
       1.0824 -1.79769e+307
       1.0857 -1.79769e+307
        1.089 -1.79769e+307
       1.0923 -1.79769e+307
       1.0956 -1.79769e+307
       1.0989 -1.79769e+307
       1.1022 -1.79769e+307
       1.1055 -1.79769e+307
       1.1088 -1.79769e+307
       1.1121 -1.79769e+307
       1.1154 -1.79769e+307
       1.1187 -1.79769e+307
        1.122 -1.79769e+307
       1.1253 -1.79769e+307
       1.1286 -1.79769e+307
       1.1319 -1.79769e+307
       1.1352 -1.79769e+307
       1.1385 -1.79769e+307
       1.1418 -1.79769e+307
       1.1451 -1.79769e+307
       1.1484 -1.79769e+307
       1.1517 -1.79769e+307
        1.155 -1.79769e+307
       1.1583 -1.79769e+307
       1.1616 -1.79769e+307
       1.1649 -1.79769e+307
       1.1682 -1.79769e+307
       1.1715 -1.79769e+307
       1.1748 -1.79769e+307
       1.1781 -1.79769e+307
       1.1814 -1.79769e+307
       1.1847 -1.79769e+307
        1.188 -1.79769e+307
       1.1913 -1.79769e+307
       1.1946 -1.79769e+307
       1.1979 -1.79769e+307
       1.2012 -1.79769e+307
       1.2045 -1.79769e+307
       1.2078 -1.79769e+307
       1.2111 -1.79769e+307
       1.2144 -1.79769e+307
       1.2177 -1.79769e+307
        1.221 -1.79769e+307
       1.2243 -1.79769e+307
       1.2276 -1.79769e+307
       1.2309 -1.79769e+307
       1.2342 -1.79769e+307
       1.2375 -1.79769e+307
       1.2408 -1.79769e+307
       1.2441 -1.79769e+307
       1.2474 -1.79769e+307
       1.2507 -1.79769e+307
        1.254 -1.79769e+307
       1.2573 -1.79769e+307
       1.2606 -1.79769e+307
       1.2639 -1.79769e+307
       1.2672 -1.79769e+307
       1.2705 -1.79769e+307
       1.2738 -1.79769e+307
       1.2771 -1.79769e+307
       1.2804 -1.79769e+307
       1.2837 -1.79769e+307
        1.287 -1.79769e+307
       1.2903 -1.79769e+307
       1.2936 -1.79769e+307
       1.2969 -1.79769e+307
       1.3002 -1.79769e+307
       1.3035 -1.79769e+307
       1.3068 -1.79769e+307
       1.3101 -1.79769e+307
       1.3134 -1.79769e+307
       1.3167 -1.79769e+307
         1.32 -1.79769e+307
       1.3233 -1.79769e+307
       1.3266 -1.79769e+307
       1.3299 -1.79769e+307
       1.3332 -1.79769e+307
       1.3365 -1.79769e+307
       1.3398 -1.79769e+307
       1.3431 -1.79769e+307
       1.3464 -1.79769e+307
       1.3497 -1.79769e+307
        1.353 -1.79769e+307
       1.3563 -1.79769e+307
       1.3596 -1.79769e+307
       1.3629 -1.79769e+307
       1.3662 -1.79769e+307
       1.3695 -1.79769e+307
       1.3728 -1.79769e+307
       1.3761 -1.79769e+307
       1.3794 -1.79769e+307
       1.3827 -1.79769e+307
        1.386 -1.79769e+307
       1.3893 -1.79769e+307
       1.3926 -1.79769e+307
       1.3959 -1.79769e+307
       1.3992 -1.79769e+307
       1.4025 -1.79769e+307
       1.4058 -1.79769e+307
       1.4091 -1.79769e+307
       1.4124 -1.79769e+307
       1.4157 -1.79769e+307
        1.419 -1.79769e+307
       1.4223 -1.79769e+307
       1.4256 -1.79769e+307
       1.4289 -1.79769e+307
       1.4322 -1.79769e+307
       1.4355 -1.79769e+307
       1.4388 -1.79769e+307
       1.4421 -1.79769e+307
       1.4454 -1.79769e+307
       1.4487 -1.79769e+307
        1.452 -1.79769e+307
       1.4553 -1.79769e+307
       1.4586 -1.79769e+307
       1.4619 -1.79769e+307
       1.4652 -1.79769e+307
       1.4685 -1.79769e+307
       1.4718 -1.79769e+307
       1.4751 -1.79769e+307
       1.4784 -1.79769e+307
       1.4817 -1.79769e+307
        1.485 -1.79769e+307
       1.4883 -1.79769e+307
       1.4916 -1.79769e+307
       1.4949 -1.79769e+307
       1.4982 -1.79769e+307
       1.5015 -1.79769e+307
       1.5048 -1.79769e+307
       1.5081 -1.79769e+307
       1.5114 -1.79769e+307
       1.5147 -1.79769e+307
        1.518 -1.79769e+307
       1.5213 -1.79769e+307
       1.5246 -1.79769e+307
       1.5279 -1.79769e+307
       1.5312 -1.79769e+307
       1.5345 -1.79769e+307
       1.5378 -1.79769e+307
       1.5411 -1.79769e+307
       1.5444 -1.79769e+307
       1.5477 -1.79769e+307
        1.551 -1.79769e+307
       1.5543 -1.79769e+307
       1.5576 -1.79769e+307
       1.5609 -1.79769e+307
       1.5642 -1.79769e+307
       1.5675 -1.79769e+307
       1.5708 -1.79769e+307
       1.5741 -1.79769e+307
       1.5774 -1.79769e+307
       1.5807 -1.79769e+307
        1.584 -1.79769e+307
       1.5873 -1.79769e+307
       1.5906 -1.79769e+307
       1.5939 -1.79769e+307
       1.5972 -1.79769e+307
       1.6005 -1.79769e+307
       1.6038 -1.79769e+307
       1.6071 -1.79769e+307
       1.6104 -1.79769e+307
       1.6137 -1.79769e+307
        1.617 -1.79769e+307
       1.6203 -1.79769e+307
       1.6236 -1.79769e+307
       1.6269 -1.79769e+307
       1.6302 -1.79769e+307
       1.6335 -1.79769e+307
       1.6368 -1.79769e+307
       1.6401 -1.79769e+307
       1.6434 -1.79769e+307
       1.6467 -1.79769e+307
         1.65 -1.79769e+307
       1.6533 -1.79769e+307
       1.6566 -1.79769e+307
       1.6599 -1.79769e+307
       1.6632 -1.79769e+307
       1.6665 -1.79769e+307
       1.6698 -1.79769e+307
       1.6731 -1.79769e+307
       1.6764 -1.79769e+307
       1.6797 -1.79769e+307
        1.683 -1.79769e+307
       1.6863 -1.79769e+307
       1.6896 -1.79769e+307
       1.6929 -1.79769e+307
       1.6962 -1.79769e+307
       1.6995 -1.79769e+307
       1.7028 -1.79769e+307
       1.7061 -1.79769e+307
       1.7094 -1.79769e+307
       1.7127 -1.79769e+307
        1.716 -1.79769e+307
       1.7193 -1.79769e+307
       1.7226 -1.79769e+307
       1.7259 -1.79769e+307
       1.7292 -1.79769e+307
       1.7325 -1.79769e+307
       1.7358 -1.79769e+307
       1.7391 -1.79769e+307
       1.7424 -1.79769e+307
       1.7457 -1.79769e+307
        1.749 -1.79769e+307
       1.7523 -1.79769e+307
       1.7556 -1.79769e+307
       1.7589 -1.79769e+307
       1.7622 -1.79769e+307
       1.7655 -1.79769e+307
       1.7688 -1.79769e+307
       1.7721 -1.79769e+307
       1.7754 -1.79769e+307
       1.7787 -1.79769e+307
        1.782 -1.79769e+307
       1.7853 -1.79769e+307
       1.7886 -1.79769e+307
       1.7919 -1.79769e+307
       1.7952 -1.79769e+307
       1.7985 -1.79769e+307
       1.8018 -1.79769e+307
       1.8051 -1.79769e+307
       1.8084 -1.79769e+307
       1.8117 -1.79769e+307
        1.815 -1.79769e+307
       1.8183 -1.79769e+307
       1.8216 -1.79769e+307
       1.8249 -1.79769e+307
       1.8282 -1.79769e+307
       1.8315 -1.79769e+307
       1.8348 -1.79769e+307
       1.8381 -1.79769e+307
       1.8414 -1.79769e+307
       1.8447 -1.79769e+307
        1.848 -1.79769e+307
       1.8513 -1.79769e+307
       1.8546 -1.79769e+307
       1.8579 -1.79769e+307
       1.8612 -1.79769e+307
       1.8645 -1.79769e+307
       1.8678 -1.79769e+307
       1.8711 -1.79769e+307
       1.8744 -1.79769e+307
       1.8777 -1.79769e+307
        1.881 -1.79769e+307
       1.8843 -1.79769e+307
       1.8876 -1.79769e+307
       1.8909 -1.79769e+307
       1.8942 -1.79769e+307
       1.8975 -1.79769e+307
       1.9008 -1.79769e+307
       1.9041 -1.79769e+307
       1.9074 -1.79769e+307
       1.9107 -1.79769e+307
        1.914 -1.79769e+307
       1.9173 -1.79769e+307
       1.9206 -1.79769e+307
       1.9239 -1.79769e+307
       1.9272 -1.79769e+307
       1.9305 -1.79769e+307
       1.9338 -1.79769e+307
       1.9371 -1.79769e+307
       1.9404 -1.79769e+307
       1.9437 -1.79769e+307
        1.947 -1.79769e+307
       1.9503 -1.79769e+307
       1.9536 -1.79769e+307
       1.9569 -1.79769e+307
       1.9602 -1.79769e+307
       1.9635 -1.79769e+307
       1.9668 -1.79769e+307
       1.9701 -1.79769e+307
       1.9734 -1.79769e+307
       1.9767 -1.79769e+307
         1.98 -1.79769e+307
       1.9833 -1.79769e+307
       1.9866 -1.79769e+307
       1.9899 -1.79769e+307
       1.9932 -1.79769e+307
       1.9965 -1.79769e+307
       1.9998 -1.79769e+307
       2.0031 -1.79769e+307
       2.0064 -1.79769e+307
       2.0097 -1.79769e+307
        2.013 -1.79769e+307
       2.0163 -1.79769e+307
       2.0196 -1.79769e+307
       2.0229 -1.79769e+307
       2.0262 -1.79769e+307
       2.0295 -1.79769e+307
       2.0328 -1.79769e+307
       2.0361 -1.79769e+307
       2.0394 -1.79769e+307
       2.0427 -1.79769e+307
        2.046 -1.79769e+307
       2.0493 -1.79769e+307
       2.0526 -1.79769e+307
       2.0559 -1.79769e+307
       2.0592 -1.79769e+307
       2.0625 -1.79769e+307
       2.0658 -1.79769e+307
       2.0691 -1.79769e+307
       2.0724 -1.79769e+307
       2.0757 -1.79769e+307
        2.079 -1.79769e+307
       2.0823 -1.79769e+307
       2.0856 -1.79769e+307
       2.0889 -1.79769e+307
       2.0922 -1.79769e+307
       2.0955 -1.79769e+307
       2.0988 -1.79769e+307
       2.1021 -1.79769e+307
       2.1054 -1.79769e+307
       2.1087 -1.79769e+307
        2.112 -1.79769e+307
       2.1153 -1.79769e+307
       2.1186 -1.79769e+307
       2.1219 -1.79769e+307
       2.1252 -1.79769e+307
       2.1285 -1.79769e+307
       2.1318 -1.79769e+307
       2.1351 -1.79769e+307
       2.1384 -1.79769e+307
       2.1417 -1.79769e+307
        2.145 -1.79769e+307
       2.1483 -1.79769e+307
       2.1516 -1.79769e+307
       2.1549 -1.79769e+307
       2.1582 -1.79769e+307
       2.1615 -1.79769e+307
       2.1648 -1.79769e+307
       2.1681 -1.79769e+307
       2.1714 -1.79769e+307
       2.1747 -1.79769e+307
        2.178 -1.79769e+307
       2.1813 -1.79769e+307
       2.1846 -1.79769e+307
       2.1879 -1.79769e+307
       2.1912 -1.79769e+307
       2.1945 -1.79769e+307
       2.1978 -1.79769e+307
       2.2011 -1.79769e+307
       2.2044 -1.79769e+307
       2.2077 -1.79769e+307
        2.211 -1.79769e+307
       2.2143 -1.79769e+307
       2.2176 -1.79769e+307
       2.2209 -1.79769e+307
       2.2242 -1.79769e+307
       2.2275 -1.79769e+307
       2.2308 -1.79769e+307
       2.2341 -1.79769e+307
       2.2374 -1.79769e+307
       2.2407 -1.79769e+307
        2.244 -1.79769e+307
       2.2473 -1.79769e+307
       2.2506 -1.79769e+307
       2.2539 -1.79769e+307
       2.2572 -1.79769e+307
       2.2605 -1.79769e+307
       2.2638 -1.79769e+307
       2.2671 -1.79769e+307
       2.2704 -1.79769e+307
       2.2737 -1.79769e+307
        2.277 -1.79769e+307
       2.2803 -1.79769e+307
       2.2836 -1.79769e+307
       2.2869 -1.79769e+307
       2.2902 -1.79769e+307
       2.2935 -1.79769e+307
       2.2968 -1.79769e+307
       2.3001 -1.79769e+307
       2.3034 -1.79769e+307
       2.3067 -1.79769e+307
         2.31 -1.79769e+307
       2.3133 -1.79769e+307
       2.3166 -1.79769e+307
       2.3199 -1.79769e+307
       2.3232 -1.79769e+307
       2.3265 -1.79769e+307
       2.3298 -1.79769e+307
       2.3331 -1.79769e+307
       2.3364 -1.79769e+307
       2.3397 -1.79769e+307
        2.343 -1.79769e+307
       2.3463 -1.79769e+307
       2.3496 -1.79769e+307
       2.3529 -1.79769e+307
       2.3562 -1.79769e+307
       2.3595 -1.79769e+307
       2.3628 -1.79769e+307
       2.3661 -1.79769e+307
       2.3694 -1.79769e+307
       2.3727 -1.79769e+307
        2.376 -1.79769e+307
       2.3793 -1.79769e+307
       2.3826 -1.79769e+307
       2.3859 -1.79769e+307
       2.3892 -1.79769e+307
       2.3925 -1.79769e+307
       2.3958 -1.79769e+307
       2.3991 -1.79769e+307
       2.4024 -1.79769e+307
       2.4057 -1.79769e+307
        2.409 -1.79769e+307
       2.4123 -1.79769e+307
       2.4156 -1.79769e+307
       2.4189 -1.79769e+307
       2.4222 -1.79769e+307
       2.4255 -1.79769e+307
       2.4288 -1.79769e+307
       2.4321 -1.79769e+307
       2.4354 -1.79769e+307
       2.4387 -1.79769e+307
        2.442 -1.79769e+307
       2.4453 -1.79769e+307
       2.4486 -1.79769e+307
       2.4519 -1.79769e+307
       2.4552 -1.79769e+307
       2.4585 -1.79769e+307
       2.4618 -1.79769e+307
       2.4651 -1.79769e+307
       2.4684 -1.79769e+307
       2.4717 -1.79769e+307
        2.475 -1.79769e+307
       2.4783 -1.79769e+307
       2.4816 -1.79769e+307
       2.4849 -1.79769e+307
       2.4882 -1.79769e+307
       2.4915 -1.79769e+307
       2.4948 -1.79769e+307
       2.4981 -1.79769e+307
       2.5014 -1.79769e+307
       2.5047 -1.79769e+307
        2.508 -1.79769e+307
       2.5113 -1.79769e+307
       2.5146 -1.79769e+307
       2.5179 -1.79769e+307
       2.5212 -1.79769e+307
       2.5245 -1.79769e+307
       2.5278 -1.79769e+307
       2.5311 -1.79769e+307
       2.5344 -1.79769e+307
       2.5377 -1.79769e+307
        2.541 -1.79769e+307
       2.5443 -1.79769e+307
       2.5476 -1.79769e+307
       2.5509 -1.79769e+307
       2.5542 -1.79769e+307
       2.5575 -1.79769e+307
       2.5608 -1.79769e+307
       2.5641 -1.79769e+307
       2.5674 -1.79769e+307
       2.5707 -1.79769e+307
        2.574 -1.79769e+307
       2.5773 -1.79769e+307
       2.5806 -1.79769e+307
       2.5839 -1.79769e+307
       2.5872 -1.79769e+307
       2.5905 -1.79769e+307
       2.5938 -1.79769e+307
       2.5971 -1.79769e+307
       2.6004 -1.79769e+307
       2.6037 -1.79769e+307
        2.607 -1.79769e+307
       2.6103 -1.79769e+307
       2.6136 -1.79769e+307
       2.6169 -1.79769e+307
       2.6202 -1.79769e+307
       2.6235 -1.79769e+307
       2.6268 -1.79769e+307
       2.6301 -1.79769e+307
       2.6334 -1.79769e+307
       2.6367 -1.79769e+307
         2.64 -1.79769e+307
       2.6433 -1.79769e+307
       2.6466 -1.79769e+307
       2.6499 -1.79769e+307
       2.6532 -1.79769e+307
       2.6565 -1.79769e+307
       2.6598 -1.79769e+307
       2.6631 -1.79769e+307
       2.6664 -1.79769e+307
       2.6697 -1.79769e+307
        2.673 -1.79769e+307
       2.6763 -1.79769e+307
       2.6796 -1.79769e+307
       2.6829 -1.79769e+307
       2.6862 -1.79769e+307
       2.6895 -1.79769e+307
       2.6928 -1.79769e+307
       2.6961 -1.79769e+307
       2.6994 -1.79769e+307
       2.7027 -1.79769e+307
        2.706 -1.79769e+307
       2.7093 -1.79769e+307
       2.7126 -1.79769e+307
       2.7159 -1.79769e+307
       2.7192 -1.79769e+307
       2.7225 -1.79769e+307
       2.7258 -1.79769e+307
       2.7291 -1.79769e+307
       2.7324 -1.79769e+307
       2.7357 -1.79769e+307
        2.739 -1.79769e+307
       2.7423 -1.79769e+307
       2.7456 -1.79769e+307
       2.7489 -1.79769e+307
       2.7522 -1.79769e+307
       2.7555 -1.79769e+307
       2.7588 -1.79769e+307
       2.7621 -1.79769e+307
       2.7654 -1.79769e+307
       2.7687 -1.79769e+307
        2.772 -1.79769e+307
       2.7753 -1.79769e+307
       2.7786 -1.79769e+307
       2.7819 -1.79769e+307
       2.7852 -1.79769e+307
       2.7885 -1.79769e+307
       2.7918 -1.79769e+307
       2.7951 -1.79769e+307
       2.7984 -1.79769e+307
       2.8017 -1.79769e+307
        2.805 -1.79769e+307
       2.8083 -1.79769e+307
       2.8116 -1.79769e+307
       2.8149 -1.79769e+307
       2.8182 -1.79769e+307
       2.8215 -1.79769e+307
       2.8248 -1.79769e+307
       2.8281 -1.79769e+307
       2.8314 -1.79769e+307
       2.8347 -1.79769e+307
        2.838 -1.79769e+307
       2.8413 -1.79769e+307
       2.8446 -1.79769e+307
       2.8479 -1.79769e+307
       2.8512 -1.79769e+307
       2.8545 -1.79769e+307
       2.8578 -1.79769e+307
       2.8611 -1.79769e+307
       2.8644 -1.79769e+307
       2.8677 -1.79769e+307
        2.871 -1.79769e+307
       2.8743 -1.79769e+307
       2.8776 -1.79769e+307
       2.8809 -1.79769e+307
       2.8842 -1.79769e+307
       2.8875 -1.79769e+307
       2.8908 -1.79769e+307
       2.8941 -1.79769e+307
       2.8974 -1.79769e+307
       2.9007 -1.79769e+307
        2.904 -1.79769e+307
       2.9073 -1.79769e+307
       2.9106 -1.79769e+307
       2.9139 -1.79769e+307
       2.9172 -1.79769e+307
       2.9205 -1.79769e+307
       2.9238 -1.79769e+307
       2.9271 -1.79769e+307
       2.9304 -1.79769e+307
       2.9337 -1.79769e+307
        2.937 -1.79769e+307
       2.9403 -1.79769e+307
       2.9436 -1.79769e+307
       2.9469 -1.79769e+307
       2.9502 -1.79769e+307
       2.9535 -1.79769e+307
       2.9568 -1.79769e+307
       2.9601 -1.79769e+307
       2.9634 -1.79769e+307
       2.9667 -1.79769e+307
         2.97 -1.79769e+307
       2.9733 -1.79769e+307
       2.9766 -1.79769e+307
       2.9799 -1.79769e+307
       2.9832 -1.79769e+307
       2.9865 -1.79769e+307
       2.9898 -1.79769e+307
       2.9931 -1.79769e+307
       2.9964 -1.79769e+307
       2.9997 -1.79769e+307
        3.003 -1.79769e+307
       3.0063 -1.79769e+307
       3.0096 -1.79769e+307
       3.0129 -1.79769e+307
       3.0162 -1.79769e+307
       3.0195 -1.79769e+307
       3.0228 -1.79769e+307
       3.0261 -1.79769e+307
       3.0294 -1.79769e+307
       3.0327 -1.79769e+307
        3.036 -1.79769e+307
       3.0393 -1.79769e+307
       3.0426 -1.79769e+307
       3.0459 -1.79769e+307
       3.0492 -1.79769e+307
       3.0525 -1.79769e+307
       3.0558 -1.79769e+307
       3.0591 -1.79769e+307
       3.0624 -1.79769e+307
       3.0657 -1.79769e+307
        3.069 -1.79769e+307
       3.0723 -1.79769e+307
       3.0756 -1.79769e+307
       3.0789 -1.79769e+307
       3.0822 -1.79769e+307
       3.0855 -1.79769e+307
       3.0888 -1.79769e+307
       3.0921 -1.79769e+307
       3.0954 -1.79769e+307
       3.0987 -1.79769e+307
        3.102 -1.79769e+307
       3.1053 -1.79769e+307
       3.1086 -1.79769e+307
       3.1119 -1.79769e+307
       3.1152 -1.79769e+307
       3.1185 -1.79769e+307
       3.1218 -1.79769e+307
       3.1251 -1.79769e+307
       3.1284 -1.79769e+307
       3.1317 -1.79769e+307
        3.135 -1.79769e+307
       3.1383 -1.79769e+307
       3.1416 -1.79769e+307
       3.1449 -1.79769e+307
       3.1482 -1.79769e+307
       3.1515 -1.79769e+307
       3.1548 -1.79769e+307
       3.1581 -1.79769e+307
       3.1614 -1.79769e+307
       3.1647 -1.79769e+307
        3.168 -1.79769e+307
       3.1713 -1.79769e+307
       3.1746 -1.79769e+307
       3.1779 -1.79769e+307
       3.1812 -1.79769e+307
       3.1845 -1.79769e+307
       3.1878 -1.79769e+307
       3.1911 -1.79769e+307
       3.1944 -1.79769e+307
       3.1977 -1.79769e+307
        3.201 -1.79769e+307
       3.2043 -1.79769e+307
       3.2076 -1.79769e+307
       3.2109 -1.79769e+307
       3.2142 -1.79769e+307
       3.2175 -1.79769e+307
       3.2208 -1.79769e+307
       3.2241 -1.79769e+307
       3.2274 -1.79769e+307
       3.2307 -1.79769e+307
        3.234 -1.79769e+307
       3.2373 -1.79769e+307
       3.2406 -1.79769e+307
       3.2439 -1.79769e+307
       3.2472 -1.79769e+307
       3.2505 -1.79769e+307
       3.2538 -1.79769e+307
       3.2571 -1.79769e+307
       3.2604 -1.79769e+307
       3.2637 -1.79769e+307
        3.267 -1.79769e+307
       3.2703 -1.79769e+307
       3.2736 -1.79769e+307
       3.2769 -1.79769e+307
       3.2802 -1.79769e+307
       3.2835 -1.79769e+307
       3.2868 -1.79769e+307
       3.2901 -1.79769e+307
       3.2934 -1.79769e+307
       3.2967 -1.79769e+307
          3.3 -1.79769e+307
       3.3033 -1.79769e+307
       3.3066 -1.79769e+307
       3.3099 -1.79769e+307
       3.3132 -1.79769e+307
       3.3165 -1.79769e+307
       3.3198 -1.79769e+307
       3.3231 -1.79769e+307
       3.3264 -1.79769e+307
       3.3297 -1.79769e+307
        3.333 -1.79769e+307
       3.3363 -1.79769e+307
       3.3396 -1.79769e+307
       3.3429 -1.79769e+307
       3.3462 -1.79769e+307
       3.3495 -1.79769e+307
       3.3528 -1.79769e+307
       3.3561 -1.79769e+307
       3.3594 -1.79769e+307
       3.3627 -1.79769e+307
        3.366 -1.79769e+307
       3.3693 -1.79769e+307
       3.3726 -1.79769e+307
       3.3759 -1.79769e+307
       3.3792 -1.79769e+307
       3.3825 -1.79769e+307
       3.3858 -1.79769e+307
       3.3891 -1.79769e+307
       3.3924 -1.79769e+307
       3.3957 -1.79769e+307
        3.399 -1.79769e+307
       3.4023 -1.79769e+307
       3.4056 -1.79769e+307
       3.4089 -1.79769e+307
       3.4122 -1.79769e+307
       3.4155 -1.79769e+307
       3.4188 -1.79769e+307
       3.4221 -1.79769e+307
       3.4254 -1.79769e+307
       3.4287 -1.79769e+307
        3.432 -1.79769e+307
       3.4353 -1.79769e+307
       3.4386 -1.79769e+307
       3.4419 -1.79769e+307
       3.4452 -1.79769e+307
       3.4485 -1.79769e+307
       3.4518 -1.79769e+307
       3.4551 -1.79769e+307
       3.4584 -1.79769e+307
       3.4617 -1.79769e+307
        3.465 -1.79769e+307
       3.4683 -1.79769e+307
       3.4716 -1.79769e+307
       3.4749 -1.79769e+307
       3.4782 -1.79769e+307
       3.4815 -1.79769e+307
       3.4848 -1.79769e+307
       3.4881 -1.79769e+307
       3.4914 -1.79769e+307
       3.4947 -1.79769e+307
        3.498 -1.79769e+307
       3.5013 -1.79769e+307
       3.5046 -1.79769e+307
       3.5079 -1.79769e+307
       3.5112 -1.79769e+307
       3.5145 -1.79769e+307
       3.5178 -1.79769e+307
       3.5211 -1.79769e+307
       3.5244 -1.79769e+307
       3.5277 -1.79769e+307