/*--------------------------------*- C++ -*----------------------------------*\
  =========                 |
  \\      /  F ield         | OpenFOAM: The Open Source CFD Toolbox
   \\    /   O peration     | Website:  https://openfoam.org
    \\  /    A nd           | Version:  7
     \\/     M anipulation  |
\*---------------------------------------------------------------------------*/
FoamFile
{
    version     2.0;
    format      ascii;
    class       volScalarField;
    location    "19.0014";
    object      p;
}
// * * * * * * * * * * * * * * * * * * * * * * * * * * * * * * * * * * * * * //

dimensions      [0 2 -2 0 0 0 0];

internalField   nonuniform List<scalar> 
18750
(
-0.0248533
-0.0362445
-0.0563234
-0.0856463
-0.12225
-0.165078
-0.212791
-0.264325
-0.318677
-0.37507
-0.432799
-0.49122
-0.549644
-0.607368
-0.663736
-0.0292181
-0.0403042
-0.0601006
-0.0891747
-0.125566
-0.168214
-0.21577
-0.26716
-0.32137
-0.377623
-0.435228
-0.49355
-0.551882
-0.609469
-0.665627
-0.0377464
-0.0482399
-0.0674813
-0.0960645
-0.132035
-0.174322
-0.221563
-0.27266
-0.32658
-0.382543
-0.439884
-0.497991
-0.55613
-0.613456
-0.669227
-0.0500849
-0.0597303
-0.0781623
-0.106027
-0.141377
-0.183124
-0.229888
-0.280539
-0.334015
-0.38953
-0.446449
-0.504197
-0.562026
-0.618986
-0.674249
-0.0657328
-0.0743151
-0.0917101
-0.118655
-0.1532
-0.194237
-0.240363
-0.290413
-0.343288
-0.39819
-0.454514
-0.51174
-0.569129
-0.62564
-0.680329
-0.0840755
-0.0914104
-0.107584
-0.133449
-0.16703
-0.2072
-0.252534
-0.301831
-0.353954
-0.408084
-0.463641
-0.520171
-0.576984
-0.632979
-0.687081
-0.104435
-0.110324
-0.12517
-0.149846
-0.182339
-0.221509
-0.265911
-0.314316
-0.36555
-0.418766
-0.4734
-0.529068
-0.585166
-0.64059
-0.694133
-0.126048
-0.130332
-0.143822
-0.167258
-0.19858
-0.236645
-0.279999
-0.327393
-0.377622
-0.429809
-0.483391
-0.538053
-0.593307
-0.64811
-0.701148
-0.148094
-0.150708
-0.162902
-0.185101
-0.215207
-0.2521
-0.29432
-0.340609
-0.389744
-0.440818
-0.493259
-0.546803
-0.601097
-0.655226
-0.707821
-0.169755
-0.170748
-0.181807
-0.202816
-0.231703
-0.267393
-0.308429
-0.35355
-0.40153
-0.451442
-0.502693
-0.555047
-0.608278
-0.661668
-0.713875
-0.190261
-0.189812
-0.199986
-0.219885
-0.247591
-0.282088
-0.321925
-0.365846
-0.412637
-0.461365
-0.511414
-0.562548
-0.61464
-0.667204
-0.719051
-0.20891
-0.207376
-0.216949
-0.235845
-0.262451
-0.295803
-0.334455
-0.377174
-0.422767
-0.470311
-0.519174
-0.569098
-0.620003
-0.671629
-0.7231
-0.225123
-0.223094
-0.232264
-0.250296
-0.275925
-0.30821
-0.345719
-0.38726
-0.431667
-0.478038
-0.525743
-0.574498
-0.624212
-0.67478
-0.725767
-0.238477
-0.236726
-0.245553
-0.262921
-0.287726
-0.31904
-0.355466
-0.395868
-0.439117
-0.484337
-0.530911
-0.578551
-0.627125
-0.676542
-0.72678
-0.248991
-0.247883
-0.256527
-0.273493
-0.29764
-0.328082
-0.363491
-0.402806
-0.444935
-0.48903
-0.534492
-0.581052
-0.628578
-0.676864
-0.725869
-0.256725
-0.256368
-0.265153
-0.281881
-0.305522
-0.33518
-0.369641
-0.407918
-0.448963
-0.491961
-0.53633
-0.581813
-0.628353
-0.675676
-0.723044
-0.261851
-0.262277
-0.271437
-0.288108
-0.311296
-0.340235
-0.373813
-0.411098
-0.451061
-0.492989
-0.536292
-0.580689
-0.626221
-0.672753
-0.718575
-0.264753
-0.265931
-0.275467
-0.292145
-0.314967
-0.343236
-0.375962
-0.412244
-0.451139
-0.492
-0.534259
-0.577581
-0.622049
-0.667841
-0.71242
-0.266018
-0.267751
-0.277429
-0.294047
-0.316537
-0.344165
-0.376035
-0.411312
-0.449136
-0.488904
-0.530134
-0.572405
-0.615693
-0.660881
-0.704216
-0.266322
-0.268166
-0.277551
-0.293946
-0.316074
-0.34305
-0.37403
-0.40827
-0.444999
-0.483625
-0.523802
-0.565093
-0.607046
-0.651782
-0.693763
-0.266252
-0.267498
-0.276053
-0.292033
-0.313718
-0.339974
-0.369997
-0.403131
-0.4387
-0.476106
-0.515122
-0.555579
-0.596018
-0.640413
-0.681003
-0.266076
-0.265838
-0.273153
-0.288546
-0.309646
-0.335065
-0.364025
-0.395937
-0.430239
-0.466339
-0.503967
-0.543781
-0.582553
-0.62667
-0.665904
-0.265601
-0.263041
-0.26912
-0.283768
-0.304059
-0.328478
-0.356243
-0.38677
-0.419632
-0.45438
-0.490257
-0.529594
-0.56662
-0.610508
-0.648511
-0.264318
-0.259035
-0.264365
-0.278005
-0.297177
-0.320406
-0.346823
-0.375766
-0.406901
-0.440311
-0.474007
-0.512914
-0.548191
-0.591839
-0.629017
-0.261863
-0.254361
-0.259405
-0.271566
-0.289266
-0.311099
-0.33597
-0.363136
-0.392095
-0.424185
-0.455344
-0.493682
-0.527328
-0.570465
-0.607497
-0.258246
-0.250221
-0.254641
-0.264768
-0.280678
-0.300888
-0.323928
-0.349143
-0.375355
-0.406012
-0.434473
-0.471881
-0.504321
-0.546397
-0.583858
-0.254052
-0.247441
-0.250184
-0.257998
-0.27189
-0.290204
-0.310974
-0.334062
-0.35696
-0.385792
-0.411653
-0.447407
-0.479597
-0.519985
-0.55821
-0.250048
-0.245762
-0.24608
-0.251798
-0.263463
-0.279568
-0.297478
-0.318124
-0.337354
-0.363571
-0.387323
-0.420118
-0.453286
-0.491636
-0.530939
-0.246777
-0.244363
-0.242729
-0.246793
-0.255964
-0.269549
-0.283942
-0.301578
-0.317044
-0.339471
-0.362037
-0.390302
-0.425269
-0.46136
-0.503846
-0.244331
-0.242854
-0.240696
-0.243313
-0.249852
-0.26071
-0.271042
-0.284725
-0.296667
-0.313741
-0.336189
-0.358501
-0.3964
-0.427307
-0.476954
-0.242556
-0.241373
-0.239848
-0.241217
-0.245462
-0.253482
-0.25959
-0.268108
-0.276708
-0.287133
-0.309911
-0.326424
-0.366741
-0.393035
-0.444624
-0.241212
-0.240207
-0.239453
-0.240216
-0.242942
-0.24815
-0.250226
-0.252647
-0.257614
-0.260999
-0.283335
-0.29622
-0.33746
-0.362487
-0.413673
-0.240095
-0.239323
-0.23916
-0.240038
-0.242105
-0.244742
-0.243351
-0.239192
-0.239943
-0.237138
-0.256485
-0.269079
-0.309459
-0.336798
-0.389351
-0.239026
-0.238556
-0.238943
-0.240323
-0.24232
-0.242985
-0.238741
-0.229003
-0.223931
-0.217757
-0.229765
-0.246616
-0.281148
-0.316794
-0.367711
-0.237838
-0.23773
-0.238702
-0.240656
-0.242766
-0.242317
-0.235715
-0.222473
-0.210782
-0.202973
-0.209351
-0.228764
-0.259775
-0.302761
-0.346129
-0.236393
-0.236687
-0.238205
-0.240654
-0.242829
-0.241951
-0.233665
-0.21887
-0.201869
-0.192415
-0.196998
-0.217141
-0.246689
-0.290612
-0.329705
-0.234598
-0.235288
-0.237213
-0.239977
-0.24212
-0.241106
-0.232032
-0.216863
-0.197258
-0.186631
-0.190861
-0.211994
-0.239603
-0.279474
-0.317505
-0.23243
-0.233455
-0.235573
-0.238418
-0.240371
-0.239218
-0.230235
-0.215446
-0.196253
-0.186014
-0.189794
-0.210155
-0.236207
-0.270942
-0.30737
-0.22996
-0.231206
-0.233267
-0.235904
-0.237458
-0.235999
-0.227974
-0.214245
-0.198003
-0.189565
-0.19313
-0.21033
-0.234678
-0.264756
-0.298169
-0.227374
-0.228695
-0.230463
-0.232569
-0.233501
-0.231949
-0.225997
-0.214979
-0.201177
-0.195444
-0.198474
-0.212312
-0.233768
-0.259859
-0.28986
-0.224952
-0.226223
-0.227565
-0.228989
-0.229298
-0.22796
-0.225264
-0.217964
-0.206096
-0.201672
-0.204082
-0.214861
-0.233073
-0.25573
-0.282144
-0.222982
-0.224131
-0.225042
-0.225914
-0.225739
-0.224637
-0.225575
-0.220426
-0.211524
-0.207
-0.208662
-0.217185
-0.232429
-0.251824
-0.274881
-0.221651
-0.222651
-0.223239
-0.223671
-0.223139
-0.222144
-0.224808
-0.221764
-0.21547
-0.211125
-0.212166
-0.218933
-0.231549
-0.247997
-0.26802
-0.221006
-0.221835
-0.222181
-0.222257
-0.221296
-0.220481
-0.220382
-0.221735
-0.217684
-0.214115
-0.214675
-0.21995
-0.23036
-0.244157
-0.261404
-0.220941
-0.221598
-0.221733
-0.221454
-0.219894
-0.219049
-0.216172
-0.220011
-0.218425
-0.216015
-0.21627
-0.220318
-0.228794
-0.240217
-0.25503
-0.22132
-0.221795
-0.221705
-0.221029
-0.219229
-0.215956
-0.214437
-0.217848
-0.218079
-0.216894
-0.217031
-0.220059
-0.226842
-0.236185
-0.248816
-0.222004
-0.222303
-0.221966
-0.220911
-0.219646
-0.212701
-0.213988
-0.216281
-0.217165
-0.216889
-0.216993
-0.21923
-0.224532
-0.23203
-0.242731
-0.222893
-0.223038
-0.222444
-0.221489
-0.219688
-0.21282
-0.213789
-0.21519
-0.216045
-0.21619
-0.216254
-0.217862
-0.221867
-0.227763
-0.236745
-0.223931
-0.223962
-0.223047
-0.223304
-0.217477
-0.215014
-0.214157
-0.214442
-0.21486
-0.214994
-0.214913
-0.215989
-0.218877
-0.223385
-0.230817
-0.2251
-0.225005
-0.223946
-0.225709
-0.216978
-0.21648
-0.214743
-0.213901
-0.213631
-0.213434
-0.213082
-0.213664
-0.21557
-0.218892
-0.224924
-0.226412
-0.226059
-0.225839
-0.225818
-0.220187
-0.21776
-0.215182
-0.213404
-0.212339
-0.211605
-0.21086
-0.210935
-0.211973
-0.214281
-0.219033
-0.227898
-0.227054
-0.228967
-0.223415
-0.223242
-0.219275
-0.215513
-0.21281
-0.210931
-0.209549
-0.208318
-0.207861
-0.20811
-0.209542
-0.213118
-0.229495
-0.228159
-0.232045
-0.222242
-0.22408
-0.220226
-0.215689
-0.21209
-0.20938
-0.207292
-0.20551
-0.204488
-0.204008
-0.204669
-0.207153
-0.231114
-0.230036
-0.233011
-0.225555
-0.224633
-0.220611
-0.215587
-0.211187
-0.207658
-0.204841
-0.202466
-0.200858
-0.199697
-0.19966
-0.201117
-0.232758
-0.233253
-0.231418
-0.230639
-0.226215
-0.220775
-0.215139
-0.210044
-0.205747
-0.202201
-0.19921
-0.196999
-0.195195
-0.194511
-0.195007
-0.234408
-0.237555
-0.228184
-0.233075
-0.227724
-0.220939
-0.214482
-0.20867
-0.203633
-0.199368
-0.195748
-0.192929
-0.190517
-0.189222
-0.188823
-0.236252
-0.24158
-0.227253
-0.232651
-0.228288
-0.220961
-0.213686
-0.207099
-0.201317
-0.196341
-0.192088
-0.188658
-0.185666
-0.183793
-0.182579
-0.238674
-0.244057
-0.231239
-0.232178
-0.228011
-0.220611
-0.21271
-0.205348
-0.198803
-0.193113
-0.188224
-0.184189
-0.180643
-0.178226
-0.176286
-0.242066
-0.244419
-0.238637
-0.233704
-0.227696
-0.219894
-0.211461
-0.203381
-0.196082
-0.189679
-0.184153
-0.179521
-0.175448
-0.172521
-0.169954
-0.246825
-0.243452
-0.245459
-0.236971
-0.228038
-0.219034
-0.209921
-0.201151
-0.193123
-0.18602
-0.179864
-0.174648
-0.170075
-0.166679
-0.163581
-0.253449
-0.24241
-0.250189
-0.240589
-0.229024
-0.218259
-0.208147
-0.198625
-0.18989
-0.18211
-0.175341
-0.169561
-0.164517
-0.160695
-0.157145
-0.261767
-0.244947
-0.253058
-0.243633
-0.230199
-0.217575
-0.206197
-0.195804
-0.186352
-0.177921
-0.170563
-0.164246
-0.158765
-0.154558
-0.150619
-0.271303
-0.252596
-0.255485
-0.245715
-0.231048
-0.216795
-0.20406
-0.19269
-0.18249
-0.173427
-0.165508
-0.158688
-0.152804
-0.148246
-0.143962
-0.281003
-0.264286
-0.25878
-0.246941
-0.231219
-0.215658
-0.201652
-0.189268
-0.178294
-0.168606
-0.160154
-0.152865
-0.146612
-0.141738
-0.137148
-0.289385
-0.276594
-0.263126
-0.247666
-0.2306
-0.213956
-0.198852
-0.185498
-0.173747
-0.163444
-0.154481
-0.146756
-0.140167
-0.135011
-0.130163
-0.295281
-0.286387
-0.267466
-0.248087
-0.229271
-0.211598
-0.195558
-0.181325
-0.16883
-0.157926
-0.148473
-0.140338
-0.133439
-0.12804
-0.122996
-0.29817
-0.292527
-0.270563
-0.248048
-0.227349
-0.208596
-0.191711
-0.176698
-0.163513
-0.152038
-0.142116
-0.133592
-0.126405
-0.120796
-0.115618
-0.298804
-0.295374
-0.271993
-0.247301
-0.224878
-0.205
-0.187297
-0.17158
-0.157769
-0.145761
-0.135397
-0.126505
-0.119046
-0.113246
-0.107974
-0.29844
-0.295908
-0.271831
-0.245692
-0.221826
-0.200839
-0.182324
-0.165949
-0.15157
-0.139076
-0.128301
-0.119071
-0.111358
-0.105371
-0.0999635
-0.298019
-0.295084
-0.270347
-0.243179
-0.218137
-0.196112
-0.176796
-0.159794
-0.144896
-0.131962
-0.120816
-0.111283
-0.103351
-0.0971829
-0.0914648
-0.298019
-0.293544
-0.267825
-0.239786
-0.21376
-0.190791
-0.170705
-0.153105
-0.137731
-0.124403
-0.112925
-0.103134
-0.0950406
-0.0887359
-0.0823815
-0.298514
-0.29161
-0.26448
-0.235562
-0.208662
-0.184841
-0.164029
-0.145867
-0.130059
-0.116384
-0.104621
-0.0946205
-0.0864319
-0.0800878
-0.0727398
-0.299296
-0.289406
-0.260448
-0.230543
-0.202813
-0.178217
-0.156739
-0.138059
-0.121866
-0.107898
-0.0959034
-0.0857507
-0.077529
-0.0712116
-0.0627778
-0.29999
-0.286929
-0.255782
-0.22474
-0.196181
-0.170875
-0.148798
-0.12966
-0.113144
-0.0989453
-0.0867851
-0.0765545
-0.0683633
-0.0619347
-0.0528648
-0.300159
-0.284033
-0.250447
-0.218128
-0.188726
-0.162769
-0.140172
-0.120657
-0.103891
-0.0895331
-0.0772835
-0.0670663
-0.0589905
-0.0521265
-0.043059
-0.299446
-0.280354
-0.244326
-0.210654
-0.180408
-0.153864
-0.130841
-0.111046
-0.0941172
-0.0796705
-0.0674124
-0.0572897
-0.0492906
-0.041948
-0.0332669
-0.297514
-0.275535
-0.237257
-0.202246
-0.171185
-0.144134
-0.120802
-0.100841
-0.0838304
-0.0693603
-0.0571604
-0.0471896
-0.0392076
-0.0315453
-0.0234041
-0.294085
-0.269327
-0.229074
-0.192825
-0.161023
-0.133579
-0.110075
-0.0900511
-0.0730122
-0.0585862
-0.0465262
-0.0367389
-0.0287508
-0.0209874
-0.0134293
-0.288933
-0.261555
-0.219636
-0.182323
-0.149907
-0.122226
-0.0986803
-0.0786329
-0.0616472
-0.0473534
-0.0355073
-0.0259303
-0.0179698
-0.0102784
-0.00333486
-0.2819
-0.252113
-0.208827
-0.170695
-0.137856
-0.110107
-0.086545
-0.066576
-0.0497402
-0.0356706
-0.0241062
-0.0147738
-0.00690949
0.000598405
0.00687738
-0.272888
-0.240963
-0.196552
-0.157927
-0.124918
-0.097135
-0.0736658
-0.0538854
-0.0373031
-0.0235497
-0.0123329
-0.0032858
0.00441276
0.0116549
0.017206
-0.261855
-0.228142
-0.182744
-0.144023
-0.111021
-0.0833095
-0.0600537
-0.0405742
-0.0243512
-0.011006
-0.000202238
0.00851693
0.0159915
0.0228983
0.0276395
-0.248797
-0.213725
-0.167415
-0.128925
-0.0961238
-0.0686463
-0.0457282
-0.0266621
-0.0109039
0.00194329
0.0122705
0.0206203
0.0278165
0.0343146
0.0381423
-0.233744
-0.197729
-0.150719
-0.112547
-0.0802169
-0.0531661
-0.030716
-0.0121744
0.00301675
0.0152812
0.0250749
0.0330137
0.0398603
0.0458401
0.0486618
-0.216765
-0.18
-0.132781
-0.0949863
-0.0633263
-0.0368936
-0.0150482
0.00285854
0.0173861
0.0289933
0.0382073
0.0456898
0.0520771
0.0573523
0.0590995
-0.197982
-0.16026
-0.113784
-0.0763891
-0.0455123
-0.0198627
0.00124082
0.0184029
0.0321779
0.0430668
0.0516667
0.0586376
0.06441
0.0686939
0.0691755
-0.177538
-0.138594
-0.0936543
-0.0568729
-0.026857
-0.0021204
0.0181115
0.0344225
0.0473651
0.0574881
0.0654445
0.0718277
0.0767895
0.0796964
0.0783922
-0.155508
-0.115356
-0.072315
-0.0365018
-0.0074457
0.0162735
0.0355181
0.0508791
0.0629195
0.0722371
0.079511
0.0851966
0.0891162
0.0902209
0.0865803
-0.131834
-0.0910378
-0.0498348
-0.0153072
0.0126483
0.0352521
0.0534088
0.0677319
0.07881
0.087282
0.0938066
0.0986427
0.101277
0.100361
0.0947313
-0.106529
-0.0659657
-0.0263767
0.00666778
0.0333603
0.0547468
0.0717266
0.0849368
0.0949999
0.102577
0.10825
0.112056
0.113226
0.110642
0.104864
-0.0798403
-0.0401299
-0.00210238
0.0293426
0.0546236
0.0746888
0.0904115
0.102445
0.111444
0.118063
0.122765
0.125383
0.125069
0.12136
0.118773
-0.0519895
-0.0135359
0.022855
0.0526124
0.076362
0.095008
0.109401
0.120203
0.128086
0.133674
0.137296
0.138652
0.137028
0.13279
0.132345
-0.0231856
0.013747
0.0483796
0.0763662
0.0984894
0.115631
0.12863
0.13815
0.144865
0.149347
0.151813
0.151929
0.149246
0.144887
0.145216
0.0063864
0.0416095
0.0743593
0.100494
0.120914
0.136482
0.14803
0.156222
0.161718
0.165032
0.166306
0.165243
0.161665
0.157209
0.157462
0.0365477
0.0699168
0.100678
0.124888
0.143541
0.157479
0.16753
0.174352
0.178584
0.180685
0.180764
0.178598
0.174247
0.169578
0.16925
0.0671281
0.0985272
0.127216
0.149439
0.166275
0.178538
0.187055
0.192472
0.195404
0.196267
0.19516
0.191936
0.186829
0.181788
0.180733
0.0979592
0.127295
0.15385
0.174039
0.189019
0.199576
0.20653
0.210516
0.212123
0.211738
0.209464
0.205224
0.199363
0.193807
0.191939
0.128877
0.156078
0.180455
0.19858
0.211676
0.220506
0.225879
0.228415
0.228684
0.22705
0.223621
0.218372
0.211735
0.205599
0.202906
0.159721
0.184735
0.206908
0.222952
0.234151
0.241242
0.245025
0.246105
0.245032
0.242156
0.237591
0.231349
0.223917
0.217132
0.213601
0.190332
0.213126
0.233086
0.247048
0.256348
0.261701
0.263894
0.263518
0.261109
0.256999
0.251306
0.244078
0.235851
0.228406
0.22402
0.220558
0.241119
0.258869
0.270762
0.278174
0.281797
0.282411
0.280591
0.276858
0.271532
0.264731
0.256529
0.247498
0.239363
0.234123
0.250249
0.268583
0.284143
0.29399
0.299535
0.30145
0.300503
0.297258
0.292219
0.285694
0.277802
0.268646
0.25883
0.250003
0.243888
0.279261
0.29539
0.308793
0.316632
0.320342
0.32058
0.3181
0.313457
0.307139
0.29944
0.290483
0.280391
0.269796
0.260268
0.253285
0.307456
0.321419
0.33271
0.338589
0.340508
0.339108
0.335133
0.329124
0.321557
0.312714
0.302722
0.291729
0.280379
0.270146
0.262285
0.3347
0.346554
0.355791
0.359769
0.359949
0.35696
0.351535
0.344203
0.335425
0.325474
0.314478
0.302612
0.290526
0.279596
0.270864
0.360866
0.370683
0.377935
0.380082
0.378585
0.374064
0.36724
0.358632
0.348687
0.337669
0.325714
0.313015
0.300219
0.288592
0.278998
0.385834
0.3937
0.399048
0.399442
0.39634
0.390352
0.38219
0.37236
0.361297
0.349257
0.336385
0.322892
0.309416
0.297109
0.286665
0.409491
0.415506
0.419039
0.417769
0.413141
0.405759
0.396324
0.385332
0.373206
0.360198
0.34646
0.332218
0.31809
0.305116
0.293844
0.431729
0.436005
0.437825
0.434987
0.428921
0.420224
0.409589
0.3975
0.384372
0.370451
0.355899
0.340956
0.326213
0.312594
0.300518
0.452449
0.455112
0.455327
0.451026
0.443615
0.43369
0.421933
0.40882
0.394755
0.379982
0.364674
0.349078
0.333756
0.319518
0.306672
0.471559
0.472747
0.471474
0.46582
0.457166
0.446104
0.433309
0.419247
0.404314
0.388756
0.372752
0.356557
0.340695
0.325868
0.312291
0.488973
0.488837
0.486201
0.479312
0.46952
0.457419
0.443673
0.428744
0.413019
0.396742
0.380106
0.363367
0.347007
0.331627
0.317363
0.504615
0.50332
0.499451
0.491446
0.480628
0.467589
0.452987
0.437275
0.420835
0.403913
0.38671
0.369483
0.352672
0.336779
0.321879
0.518421
0.516139
0.511171
0.502174
0.490446
0.476576
0.461215
0.444809
0.427736
0.410243
0.392542
0.374885
0.357669
0.341309
0.325831
0.530349
0.52723
0.52131
0.511451
0.498934
0.484344
0.468325
0.451319
0.433696
0.41571
0.39758
0.379554
0.361984
0.345206
0.329215
0.540365
0.536538
0.529824
0.51924
0.50606
0.490864
0.474292
0.45678
0.438696
0.420296
0.401807
0.383472
0.365601
0.348461
0.332028
0.548432
0.544026
0.536676
0.525509
0.511795
0.49611
0.479093
0.461172
0.442717
0.423984
0.405208
0.386625
0.368508
0.351067
0.334272
0.554514
0.549665
0.541839
0.530233
0.516116
0.500063
0.482709
0.464481
0.445745
0.426762
0.407769
0.389
0.370695
0.353021
0.335949
0.558586
0.553437
0.545293
0.533393
0.519007
0.502707
0.485128
0.466694
0.447771
0.42862
0.409483
0.390589
0.372157
0.354324
0.337064
0.560627
0.555328
0.547024
0.534978
0.520456
0.504033
0.486341
0.467804
0.448786
0.429551
0.410343
0.391386
0.37289
0.354975
0.33762
0.56063
0.55533
0.547027
0.53498
0.520458
0.504035
0.486343
0.467806
0.448788
0.429553
0.410344
0.391388
0.372891
0.354976
0.337622
0.558594
0.553445
0.5453
0.5334
0.519013
0.502713
0.485134
0.4667
0.447776
0.428625
0.409488
0.390594
0.372162
0.354328
0.337068
0.554528
0.549678
0.541851
0.530245
0.516127
0.500073
0.482719
0.46449
0.445754
0.42677
0.407777
0.389008
0.370703
0.353028
0.335955
0.548452
0.544044
0.536693
0.525525
0.51181
0.496124
0.479106
0.461185
0.442729
0.423996
0.405219
0.386635
0.368518
0.351077
0.334281
0.54039
0.536562
0.529846
0.519261
0.50608
0.490882
0.474309
0.456796
0.438712
0.420311
0.401821
0.383486
0.365614
0.348473
0.33204
0.530379
0.527259
0.521337
0.511477
0.498958
0.484366
0.468347
0.451339
0.433715
0.415728
0.397597
0.379571
0.362
0.345221
0.32923
0.518457
0.516173
0.511203
0.502204
0.490474
0.476602
0.46124
0.444833
0.427758
0.410264
0.392562
0.374905
0.357688
0.341327
0.325848
0.504657
0.50336
0.499488
0.49148
0.48066
0.467619
0.453016
0.437302
0.420861
0.403937
0.386734
0.369506
0.352693
0.3368
0.321899
0.48902
0.488881
0.486243
0.479351
0.469557
0.457453
0.443706
0.428775
0.413048
0.39677
0.380133
0.363392
0.347032
0.331651
0.317385
0.471612
0.472796
0.47152
0.465864
0.457207
0.446143
0.433345
0.419281
0.404347
0.388787
0.372782
0.356586
0.340723
0.325895
0.312316
0.452507
0.455167
0.455378
0.451074
0.44366
0.433733
0.421973
0.408858
0.394791
0.380017
0.364707
0.34911
0.333786
0.319547
0.306699
0.431793
0.436065
0.43788
0.435039
0.42897
0.420271
0.409633
0.397542
0.384412
0.370489
0.355936
0.340991
0.326246
0.312626
0.300549
0.40956
0.415571
0.419099
0.417826
0.413195
0.40581
0.396372
0.385377
0.37325
0.360239
0.3465
0.332255
0.318126
0.305151
0.293877
0.385909
0.39377
0.399113
0.399503
0.396398
0.390407
0.382241
0.372409
0.361343
0.349301
0.336427
0.322933
0.309455
0.297147
0.2867
0.360947
0.370758
0.378005
0.380148
0.378647
0.374123
0.367296
0.358685
0.348737
0.337716
0.32576
0.313059
0.300261
0.288633
0.279036
0.334786
0.346635
0.355866
0.35984
0.360015
0.357022
0.351594
0.344259
0.335479
0.325525
0.314527
0.302659
0.290571
0.279639
0.270905
0.307547
0.321505
0.33279
0.338664
0.340578
0.339174
0.335196
0.329184
0.321614
0.312768
0.302773
0.291779
0.280427
0.270192
0.262328
0.279358
0.29548
0.308877
0.316711
0.320416
0.32065
0.318167
0.31352
0.307199
0.299498
0.290538
0.280444
0.269847
0.260316
0.253331
0.250351
0.268678
0.284232
0.294074
0.299613
0.301525
0.300573
0.297325
0.292283
0.285754
0.27786
0.268701
0.258883
0.250054
0.243937
0.220665
0.241219
0.258963
0.27085
0.278256
0.281875
0.282485
0.280661
0.276925
0.271596
0.264792
0.256587
0.247554
0.239417
0.234174
0.190445
0.213232
0.233184
0.24714
0.256435
0.261783
0.263971
0.263592
0.261179
0.257066
0.25137
0.244139
0.23591
0.228463
0.224074
0.159838
0.184845
0.20701
0.223048
0.234242
0.241328
0.245106
0.246182
0.245106
0.242226
0.237658
0.231413
0.223979
0.217192
0.213658
0.129
0.156193
0.180562
0.19868
0.211771
0.220595
0.225964
0.228496
0.228761
0.227123
0.223691
0.218439
0.2118
0.205661
0.202965
0.0980872
0.127415
0.153962
0.174144
0.189118
0.199669
0.206619
0.2106
0.212203
0.211814
0.209537
0.205293
0.19943
0.193872
0.192001
0.0672611
0.0986514
0.127333
0.149548
0.166378
0.178635
0.187148
0.19256
0.195487
0.196346
0.195236
0.192009
0.186899
0.181855
0.180797
0.0366857
0.0700457
0.100799
0.125001
0.143648
0.157579
0.167626
0.174442
0.178671
0.180767
0.180842
0.178674
0.17432
0.169648
0.169317
0.0065292
0.0417429
0.0744843
0.100611
0.121025
0.136586
0.148129
0.156316
0.161808
0.165117
0.166387
0.165321
0.161741
0.157282
0.157531
-0.023038
0.0138849
0.0485088
0.0764876
0.0986038
0.11574
0.128733
0.138247
0.144958
0.149436
0.151898
0.15201
0.149324
0.144963
0.145288
-0.0518373
-0.0133936
0.0229884
0.0527377
0.0764801
0.0951197
0.109507
0.120303
0.128182
0.133765
0.137383
0.138736
0.137108
0.132868
0.13242
-0.0796835
-0.0399833
-0.00196484
0.0294718
0.0547454
0.074804
0.0905208
0.102549
0.111543
0.118157
0.122855
0.125469
0.125152
0.121441
0.118852
-0.106368
-0.0658149
-0.0262351
0.0068008
0.0334857
0.0548655
0.0718392
0.085044
0.095102
0.102674
0.108343
0.112146
0.113312
0.110726
0.104947
-0.131668
-0.0908828
-0.0496893
-0.0151705
0.0127772
0.0353742
0.0535247
0.0678421
0.0789152
0.0873825
0.0939027
0.0987348
0.101365
0.100447
0.0948167
-0.155339
-0.115197
-0.0721656
-0.0363615
-0.00731327
0.0163989
0.0356372
0.0509924
0.0630276
0.0723405
0.0796101
0.0852915
0.0892074
0.0903092
0.086667
-0.177365
-0.138431
-0.0935012
-0.056729
-0.0267212
-0.00199174
0.0182337
0.0345389
0.0474761
0.0575944
0.0655463
0.0719253
0.0768832
0.0797868
0.0784801
-0.197805
-0.160092
-0.113627
-0.0762418
-0.0453731
-0.0197308
0.00136609
0.0185222
0.0322918
0.0431758
0.0517712
0.0587378
0.0645061
0.0687863
0.069265
-0.216585
-0.179829
-0.132621
-0.0948357
-0.0631839
-0.0367587
-0.0149199
0.00298076
0.0175028
0.029105
0.0383144
0.0457926
0.0521756
0.0574469
0.0591908
-0.23356
-0.197555
-0.150556
-0.112393
-0.0800713
-0.0530281
-0.0305848
-0.0120493
0.00313623
0.0153956
0.0251846
0.0331189
0.0399612
0.0459369
0.0487551
-0.24861
-0.213547
-0.167248
-0.128768
-0.0959752
-0.0685053
-0.0455941
-0.0265342
-0.0107817
0.00206025
0.0123827
0.0207279
0.0279198
0.0344136
0.0382377
-0.261665
-0.227961
-0.182574
-0.143863
-0.11087
-0.0831656
-0.0599167
-0.0404436
-0.0242264
-0.0108865
-8.76067e-05
0.00862699
0.0160971
0.0229997
0.027737
-0.272696
-0.240779
-0.19638
-0.157764
-0.124763
-0.0969884
-0.0735261
-0.0537521
-0.0371756
-0.0234277
-0.0122158
-0.00317336
0.00452076
0.0117586
0.0173057
-0.281705
-0.251927
-0.208652
-0.17053
-0.137699
-0.109958
-0.0864026
-0.0664401
-0.0496102
-0.0355461
-0.0239867
-0.014659
-0.00679918
0.000704319
0.00697915
-0.288736
-0.261367
-0.219458
-0.182155
-0.149747
-0.122074
-0.0985354
-0.0784944
-0.0615147
-0.0472264
-0.0353855
-0.0258132
-0.0178572
-0.0101702
-0.00323099
-0.293886
-0.269136
-0.228894
-0.192654
-0.160861
-0.133425
-0.109928
-0.0899102
-0.0728773
-0.0584569
-0.046402
-0.0366195
-0.028636
-0.0208771
-0.0133234
-0.297314
-0.275342
-0.237074
-0.202073
-0.171021
-0.143977
-0.120652
-0.100698
-0.0836932
-0.0692287
-0.057034
-0.047068
-0.0390905
-0.0314329
-0.023296
-0.299244
-0.280159
-0.244142
-0.210479
-0.180241
-0.153704
-0.130689
-0.110901
-0.0939776
-0.0795365
-0.0672837
-0.0571659
-0.0491714
-0.0418335
-0.0331569
-0.299957
-0.283837
-0.250261
-0.21795
-0.188557
-0.162608
-0.140018
-0.120509
-0.103749
-0.089397
-0.0771527
-0.0669404
-0.0588691
-0.0520098
-0.042947
-0.299787
-0.286732
-0.255594
-0.22456
-0.196009
-0.170711
-0.148641
-0.12951
-0.113
-0.098807
-0.0866521
-0.0764265
-0.0682398
-0.061816
-0.0527509
-0.299094
-0.289208
-0.260259
-0.230362
-0.202639
-0.178051
-0.15658
-0.137907
-0.12172
-0.107757
-0.0957684
-0.0856207
-0.0774036
-0.0710906
-0.062662
-0.298311
-0.291411
-0.264289
-0.235379
-0.208486
-0.184672
-0.163868
-0.145713
-0.129911
-0.116241
-0.104484
-0.0944885
-0.0863047
-0.0799648
-0.0726221
-0.297816
-0.293344
-0.267631
-0.239601
-0.213582
-0.190621
-0.170541
-0.152949
-0.137581
-0.124258
-0.112786
-0.103
-0.0949115
-0.0886111
-0.0822617
-0.297816
-0.294882
-0.270151
-0.242991
-0.217957
-0.19594
-0.176631
-0.159636
-0.144744
-0.131816
-0.120675
-0.111147
-0.10322
-0.0970563
-0.0913429
-0.298236
-0.295704
-0.271633
-0.245502
-0.221645
-0.200665
-0.182157
-0.165788
-0.151415
-0.138927
-0.128158
-0.118933
-0.111225
-0.105243
-0.0998395
-0.298598
-0.295166
-0.271792
-0.247109
-0.224695
-0.204824
-0.187128
-0.171417
-0.157612
-0.145611
-0.135252
-0.126366
-0.118911
-0.113116
-0.107848
-0.297962
-0.292316
-0.27036
-0.247854
-0.227164
-0.208418
-0.19154
-0.176533
-0.163355
-0.151886
-0.141969
-0.13345
-0.126269
-0.120664
-0.115491
-0.295069
-0.286171
-0.26726
-0.247892
-0.229084
-0.211418
-0.195385
-0.181159
-0.16867
-0.157772
-0.148325
-0.140195
-0.133301
-0.127907
-0.122867
-0.289169
-0.276376
-0.26292
-0.247469
-0.230411
-0.213774
-0.198678
-0.18533
-0.173586
-0.163288
-0.154331
-0.146611
-0.140027
-0.134875
-0.130033
-0.280786
-0.264068
-0.258574
-0.246744
-0.231028
-0.215474
-0.201475
-0.189098
-0.17813
-0.168448
-0.160002
-0.152719
-0.146471
-0.141601
-0.137016
-0.271087
-0.252384
-0.255281
-0.245516
-0.230856
-0.216611
-0.203882
-0.192519
-0.182325
-0.173267
-0.165354
-0.15854
-0.152661
-0.148108
-0.143828
-0.261553
-0.244742
-0.252854
-0.243433
-0.230005
-0.217389
-0.206018
-0.195631
-0.186185
-0.17776
-0.170407
-0.164097
-0.158621
-0.154418
-0.150484
-0.253238
-0.24221
-0.249983
-0.240387
-0.228829
-0.218072
-0.207966
-0.198451
-0.189721
-0.181948
-0.175184
-0.16941
-0.164371
-0.160555
-0.15701
-0.246617
-0.243253
-0.24525
-0.236768
-0.227843
-0.218846
-0.209739
-0.200975
-0.192953
-0.185855
-0.179706
-0.174495
-0.169927
-0.166537
-0.163443
-0.24186
-0.244216
-0.238427
-0.233503
-0.227502
-0.219704
-0.211277
-0.203203
-0.19591
-0.189513
-0.183994
-0.179367
-0.175299
-0.172378
-0.169816
-0.238469
-0.243854
-0.231033
-0.23198
-0.227816
-0.22042
-0.212524
-0.205169
-0.19863
-0.192946
-0.188063
-0.184033
-0.180493
-0.178081
-0.176147
-0.236048
-0.241374
-0.227053
-0.232453
-0.228091
-0.220768
-0.213499
-0.206918
-0.201142
-0.196172
-0.191925
-0.188501
-0.185514
-0.183647
-0.182438
-0.234204
-0.237347
-0.227989
-0.232874
-0.227525
-0.220744
-0.214293
-0.208487
-0.203457
-0.199198
-0.195585
-0.192771
-0.190365
-0.189075
-0.188682
-0.232554
-0.233044
-0.231222
-0.230432
-0.226014
-0.220579
-0.214948
-0.209859
-0.20557
-0.202029
-0.199045
-0.19684
-0.195042
-0.194363
-0.194864
-0.230909
-0.22983
-0.23281
-0.225347
-0.224432
-0.220413
-0.215395
-0.211001
-0.207479
-0.204668
-0.2023
-0.200698
-0.199542
-0.199511
-0.200973
-0.22929
-0.227954
-0.231839
-0.22204
-0.223879
-0.220026
-0.215494
-0.211903
-0.2092
-0.207118
-0.205343
-0.204327
-0.203853
-0.204519
-0.207007
-0.227693
-0.22685
-0.228759
-0.223217
-0.223036
-0.219073
-0.215317
-0.212621
-0.210749
-0.209374
-0.20815
-0.207699
-0.207953
-0.209391
-0.212972
-0.226207
-0.225854
-0.225633
-0.225617
-0.219977
-0.217556
-0.214984
-0.213213
-0.212156
-0.211429
-0.210692
-0.210772
-0.211816
-0.214129
-0.218886
-0.224894
-0.2248
-0.223741
-0.225502
-0.216772
-0.216274
-0.214543
-0.213708
-0.213446
-0.213258
-0.212913
-0.213501
-0.215413
-0.21874
-0.224776
-0.223725
-0.223756
-0.222843
-0.223097
-0.217274
-0.214805
-0.213954
-0.214248
-0.214675
-0.214818
-0.214743
-0.215826
-0.218718
-0.223232
-0.230668
-0.222687
-0.222832
-0.222239
-0.221288
-0.219478
-0.212609
-0.213585
-0.214995
-0.21586
-0.216013
-0.216084
-0.217698
-0.221709
-0.227609
-0.236595
-0.221797
-0.222097
-0.221761
-0.220707
-0.219433
-0.212495
-0.213783
-0.216085
-0.216979
-0.216713
-0.216824
-0.219067
-0.224373
-0.231876
-0.242581
-0.221113
-0.221589
-0.221499
-0.220823
-0.219019
-0.215752
-0.214231
-0.217652
-0.217894
-0.216719
-0.216862
-0.219897
-0.226683
-0.236031
-0.248665
-0.220735
-0.221391
-0.221526
-0.221247
-0.219686
-0.218841
-0.215968
-0.219815
-0.21824
-0.215841
-0.216103
-0.220156
-0.228636
-0.240062
-0.254877
-0.2208
-0.221629
-0.221974
-0.222049
-0.221086
-0.22027
-0.220179
-0.221536
-0.2175
-0.213944
-0.214511
-0.219791
-0.230203
-0.244001
-0.261251
-0.221445
-0.222444
-0.223032
-0.223462
-0.222929
-0.221933
-0.224601
-0.221561
-0.215289
-0.210959
-0.212006
-0.218775
-0.231392
-0.247841
-0.267865
-0.222776
-0.223924
-0.224835
-0.225705
-0.225528
-0.224424
-0.225359
-0.220217
-0.211348
-0.206841
-0.208507
-0.217029
-0.232272
-0.251667
-0.274725
-0.224746
-0.226016
-0.227356
-0.228779
-0.229085
-0.227744
-0.225045
-0.217763
-0.205932
-0.201523
-0.203932
-0.214708
-0.232917
-0.255572
-0.281986
-0.227167
-0.228487
-0.230253
-0.232357
-0.233286
-0.231729
-0.225771
-0.214762
-0.201037
-0.195309
-0.198331
-0.212162
-0.233612
-0.2597
-0.2897
-0.229752
-0.230997
-0.233056
-0.235689
-0.237238
-0.235772
-0.227735
-0.213991
-0.197908
-0.189448
-0.192994
-0.210185