/*--------------------------------*- C++ -*----------------------------------*\
  =========                 |
  \\      /  F ield         | OpenFOAM: The Open Source CFD Toolbox
   \\    /   O peration     | Website:  https://openfoam.org
    \\  /    A nd           | Version:  7
     \\/     M anipulation  |
\*---------------------------------------------------------------------------*/
FoamFile
{
    version     2.0;
    format      ascii;
    class       surfaceScalarField;
    location    "19.0014";
    object      phi;
}
// * * * * * * * * * * * * * * * * * * * * * * * * * * * * * * * * * * * * * //

dimensions      [0 3 -1 0 0 0 0];

internalField   nonuniform List<scalar> 
37105
(
-1.20512e-05
1.20971e-05
-4.59292e-08
-2.79059e-05
1.59134e-05
-5.86838e-08
-4.42331e-05
1.6387e-05
-5.98657e-08
-6.11804e-05
1.70097e-05
-6.23979e-08
-7.87931e-05
1.76779e-05
-6.51582e-08
-9.71068e-05
1.83814e-05
-6.76485e-08
-0.000116151
1.9114e-05
-6.94743e-08
-0.000135951
1.98702e-05
-7.03263e-08
-0.000156549
2.06673e-05
-7.00029e-08
-0.000178001
2.15211e-05
-6.83231e-08
-0.000200388
2.24522e-05
-6.51082e-08
-0.000223781
2.34527e-05
-6.00757e-08
-0.000248236
2.45081e-05
-5.29425e-08
-0.000273806
2.56131e-05
-4.36289e-08
2.68336e-05
-3.2488e-08
-0.000300607
-1.18659e-05
2.3963e-05
-2.75423e-05
3.15899e-05
-4.36932e-05
3.25379e-05
-6.04455e-05
3.3762e-05
-7.78394e-05
3.50717e-05
-9.59014e-05
3.64434e-05
-0.000114652
3.7865e-05
-0.000134107
3.93244e-05
-0.000154294
4.0855e-05
-0.000175259
4.2486e-05
-0.000197066
4.42595e-05
-0.000219778
4.61643e-05
-0.000243446
4.81756e-05
-0.000268109
5.02766e-05
5.25763e-05
-0.000293852
-1.1499e-05
3.5462e-05
-2.68232e-05
4.6914e-05
-4.26267e-05
4.83414e-05
-5.89969e-05
5.01322e-05
-7.59646e-05
5.20394e-05
-9.35394e-05
5.40182e-05
-0.000111726
5.60516e-05
-0.000130521
5.81195e-05
-0.000149935
6.02684e-05
-0.000169987
6.25383e-05
-0.000190721
6.49939e-05
-0.000212186
6.76286e-05
-0.000234425
7.04146e-05
-0.000257461
7.33133e-05
7.64374e-05
-0.000281323
-1.09582e-05
4.64203e-05
-2.5763e-05
6.17189e-05
-4.10563e-05
6.36347e-05
-5.6871e-05
6.59469e-05
-7.32249e-05
6.83933e-05
-9.01051e-05
7.08985e-05
-0.000107496
7.34421e-05
-0.000125372
7.59956e-05
-0.00014372
7.86167e-05
-0.000162535
8.13536e-05
-0.000181838
8.42961e-05
-0.000201662
8.74525e-05
-0.000222049
9.08024e-05
-0.000243012
9.42758e-05
9.79497e-05
-0.000264524
-1.02577e-05
5.6678e-05
-2.43814e-05
7.58425e-05
-3.90127e-05
7.8266e-05
-5.41174e-05
8.10516e-05
-6.96958e-05
8.39716e-05
-8.57091e-05
8.69118e-05
-0.000102119
8.98518e-05
-0.000118879
9.27558e-05
-0.000135955
9.56925e-05
-0.000153319
9.87175e-05
-0.000170971
0.000101949
-0.000188938
0.000105419
-0.000207266
0.00010913
-0.000225966
0.000112976
0.000116969
-0.000244985
-9.43263e-06
6.61106e-05
-2.27005e-05
8.91104e-05
-3.65319e-05
9.20974e-05
-5.07945e-05
9.53141e-05
-6.54643e-05
9.86415e-05
-8.04757e-05
0.000101923
-9.57684e-05
0.000105145
-0.000111278
0.000108265
-0.000126953
0.000111367
-0.000142749
0.000114514
-0.000158655
0.000117855
-0.000174691
0.000121455
-0.000190913
0.000125351
-0.000207349
0.000129412
0.000133557
-0.000223937
-8.44573e-06
7.45564e-05
-2.07294e-05
0.000101394
-3.36516e-05
0.00010502
-4.69648e-05
0.000108627
-6.06217e-05
0.000112298
-7.45321e-05
0.000115834
-8.86165e-05
0.000119229
-0.000102795
0.000122443
-0.000117005
0.000125578
-0.000131196
0.000128705
-0.000145345
0.000132004
-0.000159472
0.000135582
-0.00017364
0.000139519
-0.000187903
0.000143676
0.000147861
-0.000202207
-7.30364e-06
8.186e-05
-1.84847e-05
0.000112575
-3.04107e-05
0.000116946
-4.26917e-05
0.000120908
-5.52579e-05
0.000124865
-6.80001e-05
0.000128576
-8.08224e-05
0.000132051
-9.36329e-05
0.000135254
-0.000106363
0.000138308
-0.000118959
0.000141301
-0.000131395
0.000144441
-0.000143683
0.00014787
-0.000155891
0.000151726
-0.000168094
0.000155879
0.000160018
-0.000180251
-6.02479e-06
8.78848e-05
-1.59896e-05
0.00012254
-2.68499e-05
0.000127806
-3.80365e-05
0.000132095
-4.94574e-05
0.000136285
-6.09905e-05
0.000140109
-7.25267e-05
0.000143588
-8.39643e-05
0.000146692
-9.52302e-05
0.000149574
-0.000106271
0.000152342
-0.00011706
0.000155229
-0.000127596
0.000158406
-0.000137933
0.000162063
-0.000148159
0.000166106
0.000170112
-0.000158253
-4.62076e-06
9.25055e-05
-1.32692e-05
0.000131188
-2.30111e-05
0.000137548
-3.3057e-05
0.000142141
-4.32969e-05
0.000146525
-5.3601e-05
0.000150413
-6.38485e-05
0.000153835
-7.39286e-05
0.000156772
-8.37631e-05
0.000159408
-9.32991e-05
0.000161878
-0.000102507
0.000164437
-0.000111368
0.000167268
-0.000119904
0.000170599
-0.000128193
0.000174395
0.000178166
-0.000136247
-3.09599e-06
9.56015e-05
-1.03529e-05
0.000138445
-1.89339e-05
0.000146129
-2.78055e-05
0.000151012
-3.68443e-05
0.000155564
-4.59149e-05
0.000159484
-5.48852e-05
0.000162805
-6.36353e-05
0.000165522
-7.20793e-05
0.000167852
-8.01595e-05
0.000169958
-8.78427e-05
0.00017212
-9.50929e-05
0.000174518
-0.000101877
0.000177383
-0.000108222
0.00018074
0.000184154
-0.00011421
-1.43595e-06
9.70375e-05
-7.28063e-06
0.00014429
-1.46558e-05
0.000153504
-2.23288e-05
0.000158685
-3.01596e-05
0.000163395
-3.80038e-05
0.000167328
-4.57164e-05
0.000170518
-5.31689e-05
0.000172974
-6.02644e-05
0.000174948
-6.69321e-05
0.000176626
-7.31289e-05
0.000178317
-7.88078e-05
0.000180197
-8.38785e-05
0.000182454
-8.82657e-05
0.000185127
0.000188017
-9.21292e-05
3.3837e-07
9.66991e-05
-4.09959e-06
0.000148728
-1.02017e-05
0.000159606
-1.66692e-05
0.000165153
-2.32965e-05
0.000170022
-2.99279e-05
0.000173959
-3.64058e-05
0.000176996
-4.25934e-05
0.000179162
-4.83802e-05
0.000180735
-5.3675e-05
0.000181921
-5.84107e-05
0.000183053
-6.25358e-05
0.000184322
-6.59456e-05
0.000185864
-6.8398e-05
0.000187579
0.000189578
-6.99591e-05
1.90904e-06
9.47901e-05
-8.70923e-07
0.000151508
-5.60377e-06
0.000164339
-1.08701e-05
0.000170419
-1.63034e-05
0.000175455
-2.17401e-05
0.000179396
-2.70072e-05
0.000182263
-3.19609e-05
0.000184116
-3.64744e-05
0.000185248
-4.04315e-05
0.000185878
-4.37276e-05
0.000186349
-4.62878e-05
0.000186882
-4.80502e-05
0.000187626
-4.87177e-05
0.000188247
0.000188474
-4.76134e-05
3.6198e-06
9.11703e-05
2.58482e-06
0.000152543
-9.29612e-07
0.000167853
-4.97617e-06
0.000174466
-9.22987e-06
0.000179709
-1.34879e-05
0.000183654
-1.75677e-05
0.000186343
-2.13142e-05
0.000187862
-2.45844e-05
0.000188518
-2.72346e-05
0.000188528
-2.91227e-05
0.000188237
-3.01078e-05
0.000187867
-3.01437e-05
0.000187662
-2.91402e-05
0.000187243
0.000185161
-2.58276e-05
5.37057e-06
8.57997e-05
6.09207e-06
0.000151821
3.94795e-06
0.000169998
9.78938e-07
0.000177435
-2.14304e-06
0.000182831
-5.2239e-06
0.000186735
-8.1386e-06
0.000189257
-1.06993e-05
0.000190423
-1.27521e-05
0.000190571
-1.41141e-05
0.00018989
-1.46271e-05
0.00018875
-1.40679e-05
0.000187308
-1.23267e-05
0.000185921
-9.39235e-06
0.000184309
0.000180569
-4.79968e-06
7.08996e-06
7.87097e-05
9.60513e-06
0.000149306
8.83881e-06
0.000170764
7.07453e-06
0.000179199
5.06854e-06
0.000184837
3.05892e-06
0.000188745
1.23134e-06
0.000191085
-2.21449e-07
0.000191876
-1.04765e-06
0.000191397
-1.12101e-06
0.000189963
-2.39516e-07
0.000187868
1.79017e-06
0.000185278
5.1709e-06
0.00018254
9.95131e-06
0.000179529
0.000174039
1.64807e-05
8.70433e-06
7.00054e-05
1.30577e-05
0.000144953
1.37054e-05
0.000170116
1.31117e-05
0.000179793
1.22321e-05
0.000185717
1.13443e-05
0.000189632
1.06529e-05
0.000191776
1.03573e-05
0.000192171
1.0661e-05
0.000191094
1.17945e-05
0.00018883
1.39407e-05
0.000185722
1.74215e-05
0.000181798
2.25549e-05
0.000177407
2.88328e-05
0.000173251
0.000165435
3.74374e-05
1.01124e-05
5.9893e-05
1.63431e-05
0.000138722
1.84911e-05
0.000167968
1.90818e-05
0.000179202
1.92906e-05
0.000185508
1.94873e-05
0.000189436
1.98863e-05
0.000191377
2.06933e-05
0.000191364
2.21411e-05
0.000189646
2.44991e-05
0.000186472
2.79518e-05
0.00018227
3.27722e-05
0.000176977
3.96403e-05
0.000170539
4.75862e-05
0.000165305
0.000155178
5.7843e-05
1.11643e-05
4.87287e-05
1.93254e-05
0.000130561
2.31103e-05
0.000164183
2.49281e-05
0.000177384
2.62062e-05
0.00018423
2.74549e-05
0.000188187
2.89189e-05
0.000189913
3.08141e-05
0.000189469
3.33789e-05
0.000187081
3.69463e-05
0.000182904
4.1739e-05
0.000177477
4.77814e-05
0.000170935
5.63697e-05
0.00016195
6.61085e-05
0.000155566
0.000143383
7.79037e-05
1.16487e-05
3.708e-05
2.18428e-05
0.000120367
2.745e-05
0.000158576
3.05684e-05
0.000174266
3.29151e-05
0.000181883
3.51913e-05
0.000185911
3.76939e-05
0.000187411
4.06576e-05
0.000186505
4.43143e-05
0.000183424
4.90348e-05
0.000178184
5.52333e-05
0.000171279
6.24186e-05
0.000163749
7.26063e-05
0.000151763
8.42557e-05
0.000143917
0.000129802
9.78363e-05
1.13378e-05
2.57423e-05
2.37354e-05
0.000107969
3.13615e-05
0.00015095
3.58921e-05
0.000169735
3.93405e-05
0.000178435
4.26289e-05
0.000182622
4.61341e-05
0.000183905
5.01415e-05
0.000182498
5.48794e-05
0.000178686
6.06295e-05
0.000172434
6.83324e-05
0.000163576
7.66403e-05
0.000155441
8.81449e-05
0.000140258
0.000101737
0.000130324
0.000113816
0.000117724
1.01526e-05
1.55896e-05
2.48646e-05
9.32573e-05
3.46492e-05
0.000141165
4.07597e-05
0.000163625
4.53885e-05
0.000173806
4.96896e-05
0.000178321
5.41543e-05
0.000179441
5.91509e-05
0.000177501
6.49986e-05
0.000172839
7.16288e-05
0.000165803
8.08534e-05
0.000154351
9.05098e-05
0.000145785
0.00010301
0.000127758
0.000117813
0.000115522
9.46113e-05
0.000137017
8.31601e-06
7.27362e-06
2.50508e-05
7.65225e-05
3.7078e-05
0.000129138
4.50092e-05
0.000155694
5.09501e-05
0.000167865
5.62756e-05
0.000172996
6.16592e-05
0.000174057
6.75427e-05
0.000171618
7.45642e-05
0.000165817
8.19508e-05
0.000158417
9.24665e-05
0.000143835
0.000103742
0.00013451
0.000117838
0.000113662
0.000132673
0.000100686
7.26026e-05
0.000154682
6.21113e-06
1.06249e-06
2.40408e-05
5.86929e-05
3.84045e-05
0.000114774
4.8451e-05
0.000145647
5.58769e-05
0.000160439
6.22669e-05
0.000166606
6.85589e-05
0.000167765
7.51491e-05
0.000165028
8.33873e-05
0.000157579
9.15735e-05
0.000150231
0.000102988
0.00013242
0.000115526
0.000121972
0.000132278
9.69093e-05
0.000147308
8.5657e-05
4.88828e-05
0.000171028
4.12866e-06
-3.06617e-06
2.1627e-05
4.11945e-05
3.84072e-05
9.79942e-05
5.08558e-05
0.000133199
5.99733e-05
0.000151321
6.74877e-05
0.000159091
7.47516e-05
0.000160501
8.18943e-05
0.000157885
9.11863e-05
0.000148287
0.000100368
0.000141049
0.000112598
0.00012019
0.000125531
0.000109039
0.000144931
7.75097e-05
0.000161084
6.9504e-05
2.37506e-05
0.000186216
2.25096e-06
-5.31714e-06
1.79365e-05
2.5509e-05
3.69233e-05
7.90073e-05
5.19002e-05
0.000118222
6.29718e-05
0.00014025
7.17212e-05
0.000150342
8.00482e-05
0.000152174
8.7688e-05
0.000150245
9.77041e-05
0.000138271
0.000107947
0.000130807
0.000121312
0.000106825
0.000134326
9.60246e-05
0.00015524
5.65962e-05
0.000172978
5.17655e-05
-2.53978e-06
0.000199269
8.64684e-07
-6.18182e-06
1.35339e-05
1.28398e-05
3.38462e-05
5.86951e-05
5.1215e-05
0.000100853
6.45287e-05
0.000126936
7.46623e-05
0.000140208
8.4205e-05
0.000142631
9.24598e-05
0.00014199
0.000102704
0.000128027
0.000113818
0.000119692
0.00012837
9.22728e-05
0.000142139
8.22558e-05
0.000163116
3.56197e-05
0.00018268
3.22013e-05
-2.96977e-05
0.000209838
1.34511e-07
-6.31633e-06
9.33647e-06
3.63781e-06
2.90133e-05
3.90182e-05
4.84081e-05
8.14583e-05
6.42591e-05
0.000111085
7.59821e-05
0.000128485
8.67399e-05
0.000131874
9.60526e-05
0.000132678
0.000106274
0.000117806
0.000117741
0.000108225
0.00013243
7.75839e-05
0.000148867
6.5819e-05
0.000166861
1.76253e-05
0.000190232
8.8303e-06
-5.65896e-05
0.000217124
-1.2394e-07
-6.19239e-06
5.90908e-06
-2.39521e-06
2.27982e-05
2.21292e-05
4.32985e-05
6.09579e-05
6.16417e-05
9.27418e-05
7.53254e-05
0.000114802
8.71888e-05
0.00012001
9.76799e-05
0.000122187
0.000108103
0.000107383
0.000120755
9.55728e-05
0.000132496
6.58426e-05
0.000153176
4.51392e-05
0.000166416
4.38561e-06
0.000194772
-1.9526e-05
-8.14889e-05
0.000219671
-7.61269e-08
-6.11626e-06
3.66267e-06
-6.134e-06
1.64849e-05
9.30689e-06
3.61812e-05
4.12617e-05
5.6285e-05
7.26381e-05
7.20492e-05
9.90376e-05
8.51481e-05
0.000106911
9.69368e-05
0.000110398
0.000106752
9.75673e-05
0.00012196
8.03655e-05
0.000130523
5.72795e-05
0.000154102
2.15597e-05
0.000163816
-5.3284e-06
0.000195104
-5.08136e-05
-9.49211e-05
0.000208536
1.60907e-07
-6.27717e-06
2.69867e-06
-8.67177e-06
1.14372e-05
5.6834e-07
2.81203e-05
2.45786e-05
4.81946e-05
5.25637e-05
6.58025e-05
8.14297e-05
7.95449e-05
9.31689e-05
9.35983e-05
9.63444e-05
0.000102461
8.87043e-05
0.000119085
6.37414e-05
0.000127246
4.91185e-05
0.000151198
-2.39218e-06
0.000158501
-1.26314e-05
0.000191866
-8.4178e-05
-9.87233e-05
0.000195668
5.09109e-07
-6.78628e-06
2.59911e-06
-1.07618e-05
8.28433e-06
-5.11688e-06
2.07754e-05
1.20876e-05
3.83055e-05
3.50337e-05
5.65592e-05
6.3176e-05
7.07377e-05
7.89904e-05
8.53337e-05
8.17484e-05
9.57777e-05
7.82604e-05
0.000110032
4.94869e-05
0.000121716
3.7435e-05
0.000140523
-2.11993e-05
0.000150209
-2.23171e-05
0.000180201
-0.000114171
-9.81143e-05
0.000179592
8.65e-07
-7.65128e-06
2.8017e-06
-1.26985e-05
6.63952e-06
-8.9547e-06
1.51161e-05
3.61101e-06
2.83639e-05
2.17858e-05
4.49289e-05
4.66111e-05
5.914e-05
6.47793e-05
7.24124e-05
6.84761e-05
8.3915e-05
6.67577e-05
9.57846e-05
3.76173e-05
0.000108004
2.52154e-05
0.000117355
-3.05503e-05
0.000132875
-3.78368e-05
0.000149905
-0.000131201
-0.000129893
0.000181684
1.08165e-06
-8.73293e-06
2.81145e-06
-1.44283e-05
5.49059e-06
-1.16338e-05
1.08248e-05
-1.72323e-06
1.95883e-05
1.30224e-05
3.2314e-05
3.38853e-05
4.50667e-05
5.20266e-05
5.61207e-05
5.74221e-05
6.63814e-05
5.6497e-05
7.67094e-05
2.72893e-05
8.70607e-05
1.48642e-05
9.41854e-05
-3.7675e-05
0.000122543
-6.61943e-05
0.000150195
-0.000158853
-0.000198186
0.000218487
1.03545e-06
-9.76838e-06
2.26978e-06
-1.56626e-05
3.8944e-06
-1.32585e-05
6.85836e-06
-4.68718e-06
1.18452e-05
8.03555e-06
2.00594e-05
2.56711e-05
2.9674e-05
4.2412e-05
3.81544e-05
4.89416e-05
4.59066e-05
4.87448e-05
5.22668e-05
2.09292e-05
6.51221e-05
2.00883e-06
8.66556e-05
-5.92085e-05
0.000135809
-0.000115348
0.000187943
-0.000210987
-0.000261867
0.000251624
6.64052e-07
-1.04324e-05
1.02035e-06
-1.60189e-05
1.3617e-06
-1.35998e-05
2.31332e-06
-5.63881e-06
4.24307e-06
6.10581e-06
8.37327e-06
2.15409e-05
1.38761e-05
3.69092e-05
1.91369e-05
4.36808e-05
2.36538e-05
4.42279e-05
3.04002e-05
1.41828e-05
5.93672e-05
-2.69582e-05
0.000104433
-0.000104274
0.000167558
-0.000178473
0.000215735
-0.000259165
-0.00030433
0.000258198
-1.39877e-08
-1.04184e-05
-8.50752e-07
-1.51821e-05
-2.0125e-06
-1.24381e-05
-3.01646e-06
-4.63486e-06
-3.70584e-06
6.7952e-06
-3.32924e-06
2.11643e-05
-2.17903e-06
3.5759e-05
2.33289e-07
4.12685e-05
6.59899e-06
3.78622e-05
2.92077e-05
-8.42593e-06
7.94315e-05
-7.71819e-05
0.000136873
-0.000161716
0.000192469
-0.000234068
0.000228448
-0.000295144
-0.000339585
0.000263703
-8.91164e-07
-9.52728e-06
-3.08486e-06
-1.29884e-05
-5.86679e-06
-9.65614e-06
-8.84084e-06
-1.66081e-06
-1.18828e-05
9.83721e-06
-1.48657e-05
2.41471e-05
-1.69907e-05
3.7884e-05
-1.40837e-05
3.83614e-05
7.15332e-06
1.66252e-05
5.19601e-05
-5.32327e-05
0.000111345
-0.000136567
0.0001633
-0.00021367
0.000205315
-0.000276083
0.000236901
-0.000326729
-0.000365344
0.00026266
-1.79266e-06
-7.73462e-06
-5.2723e-06
-9.50879e-06
-9.53396e-06
-5.39449e-06
-1.40975e-05
2.90271e-06
-1.87384e-05
1.44781e-05
-2.27433e-05
2.81521e-05
-2.39267e-05
3.90674e-05
-1.19692e-05
2.64038e-05
2.7496e-05
-2.284e-05
8.33409e-05
-0.000109078
0.000137095
-0.000190321
0.000179842
-0.000256418
0.000213744
-0.000309985
0.000237981
-0.000350967
-0.000384527
0.000257163
-2.5006e-06
-5.23401e-06
-6.89454e-06
-5.11485e-06
-1.20398e-05
-2.49202e-07
-1.72381e-05
8.101e-06
-2.17483e-05
1.89883e-05
-2.36019e-05
3.00056e-05
-1.92693e-05
3.47348e-05
6.84092e-06
2.93595e-07
5.74505e-05
-7.34496e-05
0.000110338
-0.000161965
0.000155164
-0.000235147
0.00019026
-0.000291514
0.000215868
-0.000335593
0.000234916
-0.000370014
-0.000401688
0.000252077
-2.85262e-06
-2.38139e-06
-7.59707e-06
-3.70395e-07
-1.27555e-05
4.90922e-06
-1.73627e-05
1.27082e-05
-1.99619e-05
2.15875e-05
-1.78202e-05
2.7864e-05
-4.81453e-06
2.17292e-05
3.30209e-05
-3.75419e-05
8.48806e-05
-0.000125309
0.000130746
-0.00020783
0.00016715
-0.000271551
0.000194351
-0.000318715
0.000214565
-0.000355807
0.00023088
-0.00038633
-0.000415269
0.000244461
-2.80476e-06
4.23366e-07
-7.29843e-06
4.12327e-06
-1.17808e-05
9.39159e-06
-1.48474e-05
1.57748e-05
-1.45626e-05
2.13026e-05
-8.801e-06
2.21024e-05
1.38842e-05
-9.56045e-07
5.91653e-05
-8.28229e-05
0.000106118
-0.000172262
0.000144669
-0.000246381
0.000173366
-0.000300248
0.000194911
-0.000340259
0.000211394
-0.00037229
0.000224414
-0.00039935
-0.000427607
0.000236753
-2.44314e-06
2.8665e-06
-6.27047e-06
7.9506e-06
-9.63785e-06
1.2759e-05
-1.08881e-05
1.70251e-05
-7.90013e-06
1.83147e-05
1.92351e-06
1.22787e-05
3.43213e-05
-3.33539e-05
8.05925e-05
-0.000129094
0.000121651
-0.000213321
0.000153009
-0.000277738
0.000175794
-0.000323033
0.000192892
-0.000357357
0.000206022
-0.00038542
0.0002178
-0.000411129
-0.000438932
0.000229126
-1.91551e-06
4.78202e-06
-4.88746e-06
1.09226e-05
-7.06593e-06
1.49374e-05
-6.72958e-06
1.66887e-05
-2.5574e-06
1.41425e-05
1.3724e-05
-4.00265e-06
5.47079e-05
-7.43377e-05
9.74348e-05
-0.000171821
0.000131938
-0.000247824
0.000157136
-0.000302936
0.000175125
-0.000341022
0.000188826
-0.000371058
0.000200271
-0.000396865
0.000210744
-0.000421601
-0.000448831
0.000220642
-1.37361e-06
6.15563e-06
-3.50151e-06
1.30505e-05
-4.69302e-06
1.6129e-05
-3.34589e-06
1.53416e-05
1.95359e-06
8.84301e-06
2.7103e-05
-2.91521e-05
7.22834e-05
-0.000119518
0.000109879
-0.000209417
0.00013804
-0.000275985
0.000157986
-0.000322882
0.000172387
-0.000355423
0.000183967
-0.000382638
0.000193747
-0.000406645
0.000203146
-0.000431
-0.000458348
0.000212662
-9.29217e-07
7.08485e-06
-2.35716e-06
1.44784e-05
-2.8332e-06
1.6605e-05
-1.31934e-06
1.38277e-05
8.50039e-06
-9.76711e-07
4.31678e-05
-6.38196e-05
8.56694e-05
-0.00016202
0.000118066
-0.000241813
0.000140766
-0.000298685
0.000156601
-0.000338717
0.000168397
-0.000367219
0.000178144
-0.000392385
0.000186901
-0.000415403
0.000195804
-0.000439903
-0.000466898
0.000204354
-6.39162e-07
7.72401e-06
-1.5796e-06
1.54188e-05
-1.55326e-06
1.65786e-05
-8.16312e-08
1.23561e-05
1.75655e-05
-1.86239e-05
5.89865e-05
-0.000105241
9.57425e-05
-0.000198776
0.000122644
-0.000268714
0.000140968
-0.000317009
0.000153662
-0.000351412
0.000163425
-0.000376981
0.000172027
-0.000400987
0.000180033
-0.000423408
0.000188085
-0.000447955
-0.000474805
0.000195993
-5.09024e-07
8.23303e-06
-1.09704e-06
1.60069e-05
-9.42259e-07
1.64239e-05
3.13118e-06
8.28266e-06
2.99826e-05
-4.54753e-05
7.0937e-05
-0.000146195
0.000102562
-0.000230401
0.000124522
-0.000290674
0.000139279
-0.000331766
0.000149613
-0.000361746
0.000158002
-0.00038537
0.000165616
-0.000408602
0.000172866
-0.000430659
0.000180459
-0.000455548
-0.000482192
0.000187846
-5.01499e-07
8.73453e-06
-8.23825e-07
1.63292e-05
-9.31384e-07
1.65314e-05
9.28212e-06
-1.93085e-06
4.40355e-05
-8.02287e-05
7.96798e-05
-0.000181839
0.000106435
-0.000257156
0.000124317
-0.000308556
0.000136258
-0.000343708
0.000144881
-0.000370368
0.00015217
-0.00039266
0.000159021
-0.000415452
0.0001658
-0.000437439
0.000172801
-0.000462548
-0.000488814
0.000179422
-5.60491e-07
9.29502e-06
-6.93758e-07
1.64624e-05
-4.57565e-07
1.62952e-05
1.70302e-05
-1.94187e-05
5.54773e-05
-0.000118676
8.61541e-05
-0.000212516
0.000108044
-0.000279046
0.000122541
-0.000323052
0.000132325
-0.000353492
0.000139643
-0.000377686
0.000146147
-0.000399164
0.000152392
-0.000421697
0.000158593
-0.00044364
0.000165028
-0.000468983
-0.000495026
0.00017124
-5.39718e-07
9.83474e-06
-6.34713e-07
1.65574e-05
2.28455e-06
1.3376e-05
2.7435e-05
-4.45691e-05
6.31242e-05
-0.000154365
9.0043e-05
-0.000239435
0.000107976
-0.00029698
0.000119662
-0.000334737
0.000127754
-0.000361585
0.000134121
-0.000384053
0.000139979
-0.000405022
0.000145647
-0.000427365
0.000151407
-0.0004494
0.00015736
-0.000474936
-0.000500593
0.000162927
-4.75647e-07
1.03104e-05
-8.57629e-07
1.69394e-05
7.05144e-06
5.46691e-06
3.83798e-05
-7.58974e-05
6.91294e-05
-0.000185115
9.17765e-05
-0.000262082
0.000106472
-0.000311675
0.000115976
-0.000344242
0.000122788
-0.000368396
0.000128398
-0.000389663
0.000133716
-0.00041034
0.000138921
-0.000432569
0.000144209
-0.000454688
0.00014957
-0.000480297
-0.000505702
0.000154679
-4.42497e-07
1.07529e-05
-9.85852e-07
1.74828e-05
1.23336e-05
-7.85251e-06
4.67555e-05
-0.000110319
7.33467e-05
-0.000211706
9.19381e-05
-0.000280674
0.000103909
-0.000323646
0.000111736
-0.000352069
0.000117552
-0.000374212
0.000122561
-0.000394672
0.000127411
-0.000415191
0.000132146
-0.000437303
0.000136984
-0.000459527
0.000141878
-0.00048519
-0.000510303
0.000146479
-2.59319e-07
1.10122e-05
-3.84267e-08
1.72619e-05
1.90768e-05
-2.69678e-05
5.18073e-05
-0.00014305
7.57377e-05
-0.000235636
9.10285e-05
-0.000295964
0.000100643
-0.00033326
0.000107107
-0.000358533
0.000112153
-0.000379258
0.000116657
-0.000399177
0.000121064
-0.000419597
0.00012538
-0.000441619
0.000129796
-0.000463943
0.000134142
-0.000489536
-0.000514408
0.000138246
-1.75346e-07
1.11875e-05
2.37031e-06
1.47162e-05
2.67015e-05
-5.1299e-05
5.56287e-05
-0.000171977
7.63639e-05
-0.000256371
8.90599e-05
-0.00030866
9.68463e-05
-0.000341047
0.000102241
-0.000363928
0.000106653
-0.00038367
0.00011071
-0.000403233
0.00011471
-0.000423598
0.000118608
-0.000445518
0.000122576
-0.000467911
0.000126453
-0.000493413
-0.000518089
0.000130134
-2.05914e-07
1.13935e-05
5.53307e-06
8.97724e-06
3.3554e-05
-7.93199e-05
5.83997e-05
-0.000196823
7.57256e-05
-0.000273697
8.62381e-05
-0.000319173
9.2658e-05
-0.000347467
9.72212e-05
-0.000368491
0.000101103
-0.000387552
0.000104753
-0.000406883
0.000108349
-0.000427194
0.000111842
-0.00044901
0.000115393
-0.000471461
0.000118779
-0.0004968
-0.000521298
0.000121988
-2.67375e-07
1.16608e-05
8.82548e-06
-1.15612e-07
3.83952e-05
-0.00010889
6.00699e-05
-0.000218497
7.42671e-05
-0.000287894
8.28311e-05
-0.000327737
8.81711e-05
-0.000352807
9.21012e-05
-0.000372421
9.55322e-05
-0.000390983
9.87905e-05
-0.000410141
0.000101997
-0.000430401
0.000105093
-0.000452107
0.000108204
-0.000474572
0.00011113
-0.000499725
-0.000524124
0.000113956
-3.20574e-07
1.19814e-05
1.23986e-05
-1.28348e-05
4.09604e-05
-0.000137451
6.05722e-05
-0.000238109
7.22235e-05
-0.000299546
7.90954e-05
-0.000334609
8.35224e-05
-0.000357234
8.6923e-05
-0.000375821
8.99548e-05
-0.000394015
9.28442e-05
-0.000413031
9.56629e-05
-0.000433219
9.8359e-05
-0.000454803
0.000101051
-0.000477264
0.000103533
-0.000502207
-0.000526518
0.000105927
-4.67203e-07
1.24486e-05
1.66771e-05
-2.99791e-05
4.2185e-05
-0.000162959
5.97748e-05
-0.000255699
6.96249e-05
-0.000309396
7.51497e-05
-0.000340133
7.87955e-05
-0.00036088
8.17268e-05
-0.000378753
8.43869e-05
-0.000396675
8.69116e-05
-0.000415555
8.93468e-05
-0.000435655
9.1653e-05
-0.000457109
9.39177e-05
-0.000479528
9.59615e-05
-0.000504251
-0.000528544
9.79876e-05
6.15628e-09
1.24425e-05
2.03935e-05
-5.03664e-05
4.30333e-05
-0.000185599
5.81483e-05
-0.000270814
6.64948e-05
-0.000317742
7.1041e-05
-0.00034468
7.40543e-05
-0.000363893
7.65487e-05
-0.000381247
7.88415e-05
-0.000398968
8.10075e-05
-0.000417722
8.3064e-05
-0.000437711
8.49745e-05
-0.00045902
8.68221e-05
-0.000481376
8.84507e-05
-0.00050588
-0.000530158
9.00642e-05
7.33746e-07
1.17087e-05
2.34466e-05
-7.30792e-05
4.32579e-05
-0.00020541
5.6036e-05
-0.000283592
6.29991e-05
-0.000324705
6.67883e-05
-0.000348469
6.93059e-05
-0.00036641
7.14043e-05
-0.000383345
7.33334e-05
-0.000400897
7.51344e-05
-0.000419523
7.68093e-05
-0.000439386
7.83312e-05
-0.000460542
7.97629e-05
-0.000482808
8.09743e-05
-0.000507091
-0.000531389
8.22055e-05
1.91768e-06
9.79104e-06
2.5609e-05
-9.67706e-05
4.30166e-05
-0.000222818
5.36255e-05
-0.000294201
5.93127e-05
-0.000330393
6.24547e-05
-0.000351611
6.45625e-05
-0.000368518
6.62997e-05
-0.000385083
6.78684e-05
-0.000402465
6.93036e-05
-0.000420958
7.05996e-05
-0.000440682
7.17287e-05
-0.000461671
7.27458e-05
-0.000483825
7.35472e-05
-0.000507893
-0.000532185
7.43437e-05
3.63275e-06
6.15829e-06
2.68472e-05
-0.000119985
4.23554e-05
-0.000238326
5.10343e-05
-0.00030288
5.55586e-05
-0.000334917
5.80983e-05
-0.000354151
5.98322e-05
-0.000370252
6.12327e-05
-0.000386483
6.2451e-05
-0.000403684
6.35181e-05
-0.000422025
6.44301e-05
-0.000441594
6.51689e-05
-0.00046241
6.57737e-05
-0.00048443
6.61491e-05
-0.000508268
-0.00053253
6.64938e-05
5.73477e-06
4.23513e-07
2.71633e-05
-0.000141414
4.12088e-05
-0.000252372
4.83134e-05
-0.000309985
5.18016e-05
-0.000338405
5.37698e-05
-0.000356119
5.51369e-05
-0.000371619
5.62082e-05
-0.000387554
5.70812e-05
-0.000404557
5.77835e-05
-0.000422727
5.83151e-05
-0.000442126
5.86605e-05
-0.000462755
5.88498e-05
-0.000484619
5.88024e-05
-0.000508221
-0.000532412
5.86847e-05
8.08498e-06
-7.66146e-06
2.70582e-05
-0.000160387
3.95157e-05
-0.000264829
4.54284e-05
-0.000315897
4.80619e-05
-0.000341039
4.94978e-05
-0.000357555
5.04914e-05
-0.000372613
5.12309e-05
-0.000388294
5.17628e-05
-0.000405089
5.21025e-05
-0.000423067
5.22505e-05
-0.000442274
5.2201e-05
-0.000462705
5.1977e-05
-0.000484395
5.15035e-05
-0.000507747
-0.000531831
5.09224e-05
1.02229e-05
-1.78844e-05
2.69757e-05
-0.00017714
3.75235e-05
-0.000275377
4.23531e-05
-0.000320727
4.43184e-05
-0.000343004
4.52873e-05
-0.000358524
4.59104e-05
-0.000373236
4.6311e-05
-0.000388694
4.65002e-05
-0.000405278
4.64797e-05
-0.000423046
4.62486e-05
-0.000442043
4.58012e-05
-0.000462258
4.51583e-05
-0.000483752
4.42671e-05
-0.000506856
-0.000530785
4.32211e-05
1.16987e-05
-2.95831e-05
2.65519e-05
-0.000191993
3.53272e-05
-0.000284152
3.91343e-05
-0.000324534
4.05518e-05
-0.000344421
4.11285e-05
-0.0003591
4.13976e-05
-0.000373505
4.14557e-05
-0.000388753
4.13e-05
-0.000405122
4.09204e-05
-0.000422667
4.03091e-05
-0.000441431
3.94615e-05
-0.00046141
3.83974e-05
-0.000482688
3.7086e-05
-0.000505544
-0.000529277
3.5578e-05
1.25168e-05
-4.20999e-05
2.57379e-05
-0.000205214
3.29727e-05
-0.000291387
3.58557e-05
-0.000327417
3.67892e-05
-0.000345355
3.7019e-05
-0.00035933
3.69539e-05
-0.00037344
3.66712e-05
-0.00038847
3.6168e-05
-0.000404619
3.54298e-05
-0.000421928
3.44443e-05
-0.000440446
3.32005e-05
-0.000460167
3.17084e-05
-0.000481196
2.99629e-05
-0.000503799
-0.000527318
2.80035e-05
1.2761e-05
-5.48609e-05
2.45753e-05
-0.000217028
3.0491e-05
-0.000297303
3.25679e-05
-0.000329494
3.30591e-05
-0.000345846
3.29642e-05
-0.000359235
3.25786e-05
-0.000373054
3.19601e-05
-0.000387851
3.11098e-05
-0.000403769
3.00129e-05
-0.000420832
2.86548e-05
-0.000439088
2.70238e-05
-0.000458536
2.51137e-05
-0.000479285
2.28952e-05
-0.000501581
-0.000524909
2.04859e-05
1.25872e-05
-6.74481e-05
2.31315e-05
-0.000227573
2.79204e-05
-0.000302092
2.93039e-05
-0.000330877
2.93851e-05
-0.000345927
2.89741e-05
-0.000358824
2.82747e-05
-0.000372355
2.73253e-05
-0.000386902
2.61294e-05
-0.000402573
2.46745e-05
-0.000419377
2.2947e-05
-0.00043736
2.09395e-05
-0.000456528
1.86383e-05
-0.000476984
1.59202e-05
-0.000498862
-0.000522012
1.30238e-05
1.21303e-05
-7.95784e-05
2.14842e-05
-0.000236926
2.52945e-05
-0.000305902
2.60801e-05
-0.000331663
2.57819e-05
-0.000345629
2.50581e-05
-0.0003581
2.40465e-05
-0.000371343
2.27698e-05
-0.000385625
2.12311e-05
-0.000401034
1.94192e-05
-0.000417565
1.73209e-05
-0.000435262
1.49349e-05
-0.000454142
1.22697e-05
-0.000474319
9.11555e-06
-0.000495708
-0.000518466
5.56923e-06
1.14806e-05
-9.1059e-05
1.97001e-05
-0.000245146
2.26502e-05
-0.000308852
2.29147e-05
-0.000331928
2.2261e-05
-0.000344975
2.12245e-05
-0.000357064
1.98995e-05
-0.000370018
1.82968e-05
-0.000384023
1.64176e-05
-0.000399155
1.4251e-05
-0.000415398
1.17852e-05
-0.000432796
9.01566e-06
-0.000451373
5.95579e-06
-0.000471259
2.62233e-06
-0.000492375
-0.000514052
-1.7913e-06
1.06912e-05
-0.00010175
1.7833e-05
-0.000252288
2.0021e-05
-0.00031104
1.98217e-05
-0.000331728
1.88298e-05
-0.000343983
1.74796e-05
-0.000355714
1.58386e-05
-0.000368377
1.39097e-05
-0.000382094
1.16905e-05
-0.000396936
9.17132e-06
-0.000412879
6.34304e-06
-0.000429968
3.18371e-06
-0.000448213
-4.05195e-07
-0.00046767
-3.97964e-06
-0.0004888
-0.000509531
-8.5008e-06
9.73936e-06
-0.00011149
1.59294e-05
-0.000258478
1.74398e-05
-0.00031255
1.68168e-05
-0.000331105
1.54938e-05
-0.00034266
1.38275e-05
-0.000354047
1.18675e-05
-0.000366417
9.60952e-06
-0.000379836
7.04788e-06
-0.000394374
4.17822e-06
-0.000410009
9.86557e-07
-0.000426776
-2.52096e-06
-0.000444706
-6.2551e-06
-0.000463936
-1.05915e-05
-0.000484464
-0.000504899
-1.52238e-05
8.81074e-06
-0.0001203
1.40387e-05
-0.000263706
1.49241e-05
-0.000313436
1.39051e-05
-0.000330086
1.22548e-05
-0.00034101
1.02709e-05
-0.000352064
7.98733e-06
-0.000364134
5.39371e-06
-0.000377242
2.48239e-06
-0.000391463
-7.30605e-07
-0.000406796
-4.23626e-06
-0.00042327
-8.05361e-06
-0.000440888
-1.21715e-05
-0.000459818
-1.69661e-05
-0.000479669
-0.000499983
-2.18817e-05
7.92302e-06
-0.000128223
1.21976e-05
-0.00026798
1.24863e-05
-0.000313724
1.10851e-05
-0.000328685
9.11286e-06
-0.000339038
6.80995e-06
-0.000349761
4.19334e-06
-0.000361517
1.24534e-06
-0.000374294
-1.96915e-06
-0.000388248
-5.49147e-06
-0.000403274
-9.34696e-06
-0.000419415
-1.35071e-05
-0.000436728
-1.80428e-05
-0.000455283
-2.31725e-05
-0.00047454
-0.000494714
-2.84416e-05
7.0526e-06
-0.000135276
1.04216e-05
-0.000271349
1.01361e-05
-0.000313439
8.36003e-06
-0.000326909
6.06746e-06
-0.000336745
3.43737e-06
-0.000347131
4.54775e-07
-0.000358535
-2.75391e-06
-0.000371085
-6.29219e-06
-0.00038471
-1.01648e-05
-0.000399401
-1.43574e-05
-0.000415222
-1.88789e-05
-0.000432207
-2.384e-05
-0.000450322
-2.92499e-05
-0.00046913
-0.000489069
-3.48947e-05
6.20475e-06
-0.000141481
8.7201e-06
-0.000273865
7.87765e-06
-0.000312596
5.73351e-06
-0.000324765
3.11342e-06
-0.000334125
1.00999e-07
-0.000344118
-3.09687e-06
-0.000355337
-6.64872e-06
-0.000367534
-1.05287e-05
-0.00038083
-1.47367e-05
-0.000395193
-1.92669e-05
-0.000410692
-2.41522e-05
-0.000427321
-2.94958e-05
-0.000444978