/*--------------------------------*- C++ -*----------------------------------*\
  =========                 |
  \\      /  F ield         | OpenFOAM: The Open Source CFD Toolbox
   \\    /   O peration     | Website:  https://openfoam.org
    \\  /    A nd           | Version:  7
     \\/     M anipulation  |
\*---------------------------------------------------------------------------*/
FoamFile
{
    version     2.0;
    format      ascii;
    class       volScalarField;
    location    "0.09375";
    object      p;
}
// * * * * * * * * * * * * * * * * * * * * * * * * * * * * * * * * * * * * * //

dimensions      [0 2 -2 0 0 0 0];

internalField   nonuniform List<scalar> 
10000
(
7.70603e-09
1.23737e-05
2.01666e-05
1.64781e-05
2.05484e-06
-1.77004e-05
-3.91334e-05
-5.95255e-05
-7.69374e-05
-9.00454e-05
-9.79773e-05
-0.000100121
-9.60704e-05
-8.55947e-05
-6.86049e-05
-4.50969e-05
-1.50667e-05
2.15004e-05
6.45587e-05
0.000113976
0.000169592
0.000231275
0.000298918
0.000372422
0.000451699
0.000536654
0.000627151
0.000723022
0.000824099
0.000930257
0.0010414
0.00115742
0.00127816
0.00140343
0.00153305
0.00166689
0.00180483
0.00194672
0.00209243
0.00224176
0.00239457
0.00255068
0.00270997
0.00287227
0.00303743
0.00320525
0.00337552
0.00354803
0.00372257
0.00389892
0.00407684
0.00425606
0.00443629
0.0046172
0.00479851
0.0049799
0.00516108
0.00534171
0.00552147
0.00570002
0.00587699
0.00605207
0.00622493
0.00639524
0.0065627
0.00672697
0.00688772
0.00704462
0.00719732
0.00734549
0.00748879
0.00762691
0.00775952
0.0078863
0.0080069
0.008121
0.00822824
0.00832831
0.00842089
0.00850567
0.00858237
0.00865073
0.00871049
0.00876145
0.00880341
0.00883624
0.00885985
0.00887424
0.00887952
0.00887593
0.00886385
0.0088439
0.00881694
0.0087842
0.00874734
0.00870863
0.00867088
0.00863824
0.00861572
0.00860737
2.61765e-05
3.75307e-05
4.31645e-05
4.03589e-05
3.04888e-05
1.64974e-05
9.78156e-07
-1.38616e-05
-2.63166e-05
-3.51989e-05
-3.96409e-05
-3.89986e-05
-3.28019e-05
-2.07415e-05
-2.6465e-06
2.1562e-05
5.19215e-05
8.84467e-05
0.000131126
0.000179919
0.000234767
0.000295583
0.000362241
0.000434612
0.000512608
0.000596173
0.000685216
0.000779584
0.000879099
0.000983616
0.00109303
0.00120725
0.00132612
0.00144947
0.00157713
0.00170894
0.00184479
0.00198454
0.00212803
0.0022751
0.00242558
0.00257933
0.0027362
0.00289605
0.00305871
0.00322396
0.00339161
0.00356145
0.00373329
0.00390691
0.00408206
0.00425846
0.00443582
0.00461384
0.00479221
0.00497066
0.00514887
0.00532652
0.0055033
0.00567884
0.00585282
0.0060249
0.00619477
0.00636213
0.00652665
0.00668803
0.00684591
0.00699998
0.00714988
0.00729531
0.00743592
0.00757142
0.00770149
0.0078258
0.00794405
0.00805589
0.00816102
0.00825912
0.0083499
0.0084331
0.00850847
0.00857578
0.00863483
0.00868547
0.00872755
0.00876101
0.00878583
0.00880208
0.00880995
0.00880975
0.00880195
0.0087872
0.00876639
0.00874069
0.00871162
0.0086811
0.00865147
0.00862565
0.00860714
0.0085988
7.39903e-05
7.60405e-05
7.47428e-05
6.92023e-05
5.97367e-05
4.78676e-05
3.53039e-05
2.36436e-05
1.42286e-05
8.10879e-06
6.06851e-06
8.70236e-06
1.6475e-05
2.97126e-05
4.86352e-05
7.33959e-05
0.000104068
0.000140647
0.000183113
0.000231476
0.000285747
0.00034588
0.000411756
0.000483243
0.000560251
0.000642725
0.000730587
0.000823703
0.000921916
0.00102509
0.00113311
0.00124586
0.00136319
0.00148495
0.00161098
0.00174114
0.00187531
0.00201335
0.00215509
0.00230035
0.002449
0.00260089
0.0027559
0.00291385
0.00307457
0.00323784
0.00340347
0.00357126
0.00374102
0.00391253
0.00408553
0.00425975
0.00443488
0.00461065
0.00478675
0.00496291
0.00513883
0.00531419
0.00548867
0.00566192
0.00583361
0.00600342
0.00617104
0.00633618
0.00649852
0.00665774
0.0068135
0.00696546
0.00711329
0.00725667
0.00739529
0.00752884
0.00765701
0.00777949
0.00789597
0.00800613
0.00810966
0.00820628
0.00829572
0.00837774
0.00845213
0.00851868
0.00857723
0.00862766
0.00866988
0.00870385
0.0087296
0.00874726
0.00875704
0.00875929
0.0087545
0.00874333
0.00872661
0.00870542
0.00868108
0.00865519
0.00862963
0.00860659
0.00858812
0.00857584
0.000129154
0.000120219
0.000111302
0.000101422
8.99907e-05
7.78735e-05
6.61917e-05
5.59617e-05
4.81755e-05
4.37076e-05
4.32159e-05
4.72277e-05
5.61493e-05
7.02639e-05
8.98022e-05
0.000114965
0.000145861
0.000182497
0.000224858
0.000272959
0.000326809
0.000386371
0.000451563
0.000522301
0.000598508
0.000680101
0.000766971
0.000858996
0.000956062
0.00105806
0.00116488
0.00127638
0.0013924
0.00151279
0.00163742
0.00176619
0.00189896
0.00203557
0.00217585
0.00231965
0.00246681
0.00261723
0.00277075
0.0029272
0.00308638
0.00324808
0.00341212
0.0035783
0.00374643
0.00391627
0.00408756
0.00426004
0.00443339
0.00460736
0.00478165
0.004956
0.00513011
0.00530367
0.00547634
0.0056478
0.00581773
0.0059858
0.00615172
0.00631519
0.00647589
0.00663349
0.00678765
0.00693804
0.00708432
0.00722618
0.00736331
0.00749539
0.00762214
0.00774323
0.00785836
0.00796722
0.00806953
0.00816502
0.00825344
0.00833456
0.0084082
0.00847418
0.00853237
0.00858267
0.008625
0.00865937
0.00868584
0.00870454
0.00871571
0.00871969
0.00871697
0.00870816
0.00869402
0.0086755
0.00865371
0.00862995
0.00860572
0.00858268
0.00856153
0.0085426
0.00018376
0.000165023
0.000149241
0.000134983
0.000120911
0.000107589
9.57327e-05
8.60021e-05
7.90736e-05
7.55954e-05
7.61225e-05
8.1101e-05
9.0868e-05
0.00010568
0.000125749
0.000151248
0.000182286
0.000218915
0.00026117
0.000309067
0.000362579
0.000421642
0.000486204
0.000556238
0.000631693
0.000712467
0.000798422
0.00088944
0.000985436
0.00108633
0.00119201
0.00130232
0.00141711
0.00153624
0.00165961
0.0017871
0.00191859
0.00205391
0.00219289
0.00233538
0.00248126
0.0026304
0.00278264
0.00293779
0.00309565
0.00325602
0.0034187
0.0035835
0.00375023
0.00391864
0.00408846
0.00425942
0.00443125
0.00460366
0.0047764
0.0049492
0.00512177
0.00529379
0.00546495
0.0056349
0.00580336
0.00597
0.00613453
0.00629664
0.00645601
0.0066123
0.00676518
0.0069143
0.00705933
0.00719996
0.00733587
0.00746677
0.00759235
0.0077123
0.00782632
0.00793412
0.00803543
0.00812998
0.00821755
0.00829794
0.00837097
0.0084365
0.0084944
0.0085446
0.00858704
0.00862173
0.00864876
0.00866827
0.00868051
0.00868581
0.00868461
0.00867746
0.00866506
0.00864819
0.00862777
0.00860481
0.00858051
0.00855608
0.00853094
0.00850417
0.00023631
0.00020848
0.00018633
0.00016783
0.000150892
0.0001358
0.000123082
0.000113169
0.000106486
0.000103481
0.000104587
0.000110143
0.000120437
0.000135726
0.000156201
0.00018197
0.000213112
0.00024971
0.000291839
0.000339518
0.000392703
0.000451329
0.000515355
0.000584765
0.000659511
0.000739494
0.000824589
0.00091469
0.00100972
0.0011096
0.00121422
0.00132342
0.00143708
0.00155507
0.0016773
0.00180365
0.001934
0.00206817
0.00220601
0.00234739
0.00249217
0.00264024
0.0027914
0.00294546
0.00310222
0.00326147
0.00342303
0.0035867
0.00375227
0.00391948
0.00408808
0.00425778
0.00442832
0.00459944
0.0047709
0.00494243
0.00511373
0.0052845
0.00545443
0.00562318
0.00579047
0.00595599
0.00611943
0.0062805
0.00643885
0.00659414
0.00674604
0.00689418
0.00703826
0.00717794
0.00731292
0.0074429
0.00756758
0.00768665
0.00779981
0.00790679
0.00800731
0.00810114
0.00818807
0.0082679
0.00834048
0.00840567
0.00846337
0.0085135
0.00855604
0.008591
0.00861847
0.00863859
0.00865161
0.00865783
0.00865766
0.00865158
0.00864019
0.00862414
0.00860417
0.00858103
0.00855569
0.00852901
0.00849928
0.00846455
0.00028526
0.000249126
0.000221102
0.000198531
0.000178584
0.000161412
0.000147389
0.000136779
0.000129851
0.000126896
0.000128206
0.000134029
0.000144605
0.00016016
0.00018085
0.000206761
0.000237967
0.000274547
0.000316556
0.000363997
0.000416839
0.000475053
0.000538614
0.000607483
0.000681586
0.000760828
0.000845117
0.000934383
0.00102855
0.00112752
0.00123117
0.00133937
0.001452
0.00156898
0.00169022
0.00181559
0.00194494
0.00207813
0.00221501
0.00235546
0.00249936
0.00264655
0.00279684
0.00295003
0.00310591
0.00326428
0.00342495
0.00358773
0.00375238
0.00391864
0.00408625
0.00425494
0.00442447
0.00459459
0.00476505
0.0049356
0.00510593
0.00527575
0.00544475
0.00561261
0.00577905
0.00594376
0.00610643
0.00626676
0.00642439
0.00657898
0.00673018
0.00687765
0.00702105
0.00716007
0.00729441
0.00742375
0.0075478
0.00766625
0.00777882
0.00788523
0.00798522
0.00807857
0.00816506
0.00824454
0.00831683
0.00838183
0.00843942
0.00848955
0.0085322
0.00856737
0.00859517
0.00861573
0.00862927
0.00863608
0.00863651
0.00863099
0.00862001
0.00860411
0.00858386
0.00855983
0.00853278
0.00850333
0.00846884
0.00842653
0.000329297
0.000285779
0.00025242
0.000225962
0.000202995
0.000183607
0.00016803
0.000156398
0.000148868
0.000145607
0.000146805
0.000152657
0.000163338
0.000178991
0.000199731
0.000225657
0.000256856
0.00029339
0.000335269
0.000382471
0.000434982
0.000492808
0.000555936
0.000624306
0.000697821
0.000776392
0.000859959
0.000948474
0.00104186
0.00114001
0.00124279
0.0013501
0.00146185
0.00157796
0.00169835
0.00182287
0.00195139
0.00208376
0.00221987
0.00235958
0.00250279
0.0026493
0.00279892
0.00295143
0.00310664
0.00326435
0.00342436
0.00358647
0.00375043
0.00391597
0.00408284
0.00425079
0.00441958
0.00458897
0.00475873
0.00492858
0.00509823
0.0052674
0.00543578
0.00560306
0.00576895
0.00593315
0.00609535
0.00625523
0.00641243
0.0065666
0.00671738
0.00686444
0.00700745
0.00714608
0.00728004
0.00740902
0.00753271
0.00765082
0.00776306
0.00786916
0.00796888
0.00806198
0.00814827
0.00822759
0.00829978
0.00836473
0.00842233
0.00847253
0.0085153
0.00855067
0.00857871
0.00859957
0.00861343
0.00862055
0.00862124
0.00861587
0.00860484
0.0085886
0.00856756
0.00854216
0.00851299
0.00848056
0.00844142
0.00839218
0.000367468
0.000317477
0.00027931
0.000249223
0.000223319
0.000201667
0.000184415
0.000171576
0.000163209
0.00015939
0.000160239
0.000165909
0.000176513
0.000192119
0.000212803
0.000238666
0.000269791
0.000306209
0.000347907
0.000394865
0.000447081
0.00050456
0.000567277
0.000635161
0.000708125
0.000786099
0.000869041
0.000956898
0.00104959
0.00114699
0.00124901
0.00135556
0.00146657
0.00158197
0.00170165
0.00182548
0.00195332
0.00208505
0.00222056
0.00235973
0.00250242
0.00264843
0.00279756
0.00294959
0.00310433
0.00326159
0.00342116
0.00358281
0.0037463
0.00391136
0.00407774
0.0042452
0.00441352
0.00458247
0.0047518
0.00492125
0.00509053
0.00525935
0.0054274
0.0055944
0.00576004
0.00592403
0.00608604
0.00624574
0.00640278
0.00655679
0.00670743
0.00685434
0.00699722
0.00713574
0.0072696
0.00739848
0.00752209
0.00764013
0.00775231
0.00785837
0.00795806
0.00805117
0.00813748
0.00821685
0.00828911
0.00835416
0.00841189
0.00846223
0.00850517
0.00854073
0.00856896
0.00859001
0.00860403
0.00861124
0.00861193
0.0086064
0.00859498
0.00857803
0.00855587
0.00852878
0.00849732
0.00846185
0.00841835
0.00836292
0.00039911
0.000343424
0.000300967
0.000267576
0.000238877
0.000214978
0.000196004
0.000181844
0.000172486
0.000167958
0.000168316
0.000173637
0.000183982
0.000199397
0.000219946
0.000245698
0.00027669
0.000312923
0.000354388
0.000401089
0.000453033
0.000510197
0.000572525
0.000639946
0.000712402
0.000789853
0.000872257
0.000959544
0.00105162
0.00114838
0.00124976
0.00135569
0.00146611
0.00158093
0.00170005
0.00182334
0.00195067
0.00208194
0.00221704
0.00235586
0.0024982
0.00264389
0.0027927
0.00294444
0.0030989
0.00325591
0.00341523
0.00357664
0.00373987
0.00390468
0.00407082
0.00423807
0.0044062
0.00457499
0.0047442
0.00491354
0.00508274
0.00525151
0.00541954
0.00558654
0.00575223
0.00591628
0.00607838
0.00623818
0.00639531
0.00654943
0.00670018
0.00684722
0.00699024
0.00712891
0.00726294
0.007392
0.00751581
0.00763405
0.00774645
0.00785273
0.00795265
0.00804599
0.00813256
0.00821217
0.00828469
0.00834999
0.00840796
0.00845853
0.00850169
0.00853743
0.00856582
0.00858697
0.00860103
0.00860818
0.00860865
0.00860272
0.00859065
0.00857275
0.00854923
0.00852032
0.00848648
0.00844805
0.00840054
0.00833968
0.000423712
0.000363034
0.000316755
0.000280374
0.000249094
0.000223034
0.000202325
0.000186782
0.000176345
0.000171015
0.000170779
0.000175627
0.000185586
0.000200709
0.000221046
0.000246614
0.000277406
0.000313407
0.000354622
0.000401067
0.000452739
0.000509587
0.000571541
0.000638543
0.000710559
0.000787563
0.000869503
0.000956297
0.00104785
0.00114409
0.00124495
0.00135041
0.00146038
0.00157478
0.00169349
0.00181639
0.00194339
0.00207439
0.00220927
0.00234789
0.00249006
0.00263559
0.00278426
0.00293588
0.00309027
0.00324721
0.00340649
0.00356786
0.00373106
0.00389585
0.00406201
0.00422931
0.00439754
0.00456647
0.00473584
0.00490538
0.0050748
0.00524381
0.00541211
0.00557942
0.00574544
0.00590984
0.0060723
0.00623245
0.00638995
0.00654443
0.00669556
0.006843
0.00698642
0.00712553
0.00726
0.00738953
0.0075138
0.00763252
0.0077454
0.00785216
0.00795256
0.00804637
0.0081334
0.00821346
0.0082864
0.00835208
0.00841041
0.0084613
0.00850471
0.00854066
0.00856918
0.00859037
0.00860436
0.00861132
0.00861143
0.00860493
0.00859204
0.008573
0.008548
0.00851719
0.008481
0.00843977
0.00838863
0.00832305
0.000440904
0.000375877
0.000326189
0.000287108
0.000253471
0.000225365
0.000202953
0.000186037
0.000174494
0.000168283
0.000167347
0.000171636
0.000181151
0.000195926
0.000215973
0.00024127
0.000271792
0.000307534
0.000348504
0.000394698
0.000446086
0.000502609
0.000564208
0.000630846
0.000702499
0.000779131
0.000860676
0.000947051
0.00103818
0.00113402
0.00123452
0.00133964
0.00144932
0.00156343
0.00168189
0.00180458
0.00193143
0.00206233
0.00219716
0.00233575
0.00247791
0.00262344
0.00277214
0.00292383
0.00307832
0.0032354
0.00339483
0.00355637
0.00371976
0.00388479
0.00405123
0.00421887
0.00438748
0.00455684
0.00472668
0.00489671
0.00506665
0.0052362
0.00540509
0.005573
0.00573963
0.00590466
0.00606774
0.00622853
0.00638666
0.00654178
0.00669356
0.00684167
0.00698579
0.00712561
0.00726081
0.00739108
0.0075161
0.00763556
0.00774918
0.00785666
0.00795777
0.00805227
0.00813995
0.00822063
0.00829414
0.00836034
0.00841912
0.00847039
0.00851411
0.00855027
0.00857891
0.0086001
0.00861395
0.00862062
0.00862026
0.00861306
0.00859923
0.00857897
0.00855243
0.00851971
0.00848126
0.00843741
0.00838303
0.00831336
0.000450414
0.000381635
0.00032892
0.000287385
0.00025158
0.000221557
0.000197525
0.000179283
0.000166638
0.000159491
0.000157779
0.000161457
0.000170495
0.000184874
0.00020456
0.000229517
0.000259728
0.000295196
0.000335916
0.000381852
0.000432949
0.000489154
0.000550434
0.000616768
0.000688124
0.000764449
0.000845668
0.000931712
0.00102253
0.0011181
0.00121838
0.00132332
0.00143283
0.00154681
0.00166518
0.00178784
0.00191471
0.00204569
0.00218062
0.00231933
0.00246164
0.00260734
0.00275625
0.0029082
0.00306298
0.00322038
0.00338016
0.00354208
0.00370591
0.00387143
0.00403843
0.00420669
0.00437598
0.00454607
0.00471667
0.0048875
0.00505826
0.00522867
0.00539843
0.00556723
0.00573477
0.00590071
0.0060647
0.0062264
0.00638544
0.00654149
0.00669421
0.00684328
0.00698839
0.00712921
0.00726543
0.00739671
0.00752274
0.0076432
0.0077578
0.00786623
0.00796826
0.00806364
0.00815215
0.0082336
0.00830782
0.00837465
0.00843397
0.00848569
0.00852975
0.00856614
0.00859489
0.00861605
0.00862972
0.00863602
0.00863511
0.00862715
0.00861232
0.00859078
0.00856268
0.00852811
0.00848752
0.00844126
0.008384
0.0083108
0.000452038
0.000380045
0.00032466
0.00028088
0.000243083
0.000211302
0.000185744
0.000166208
0.000152467
0.000144379
0.000141879
0.00014492
0.000153438
0.000167358
0.000186628
0.000211216
0.000241109
0.000276295
0.000316744
0.0003624
0.000413207
0.000469127
0.000530142
0.00059623
0.000667344
0.000743419
0.000824389
0.000910206
0.00100084
0.00109628
0.00119647
0.00130136
0.00141084
0.00152485
0.00164329
0.00176609
0.00189315
0.00202436
0.00215955
0.00229855
0.00244115
0.00258719
0.00273649
0.00288887
0.00304413
0.00320205
0.0033624
0.00352494
0.00368945
0.00385573
0.00402356
0.00419273
0.004363
0.00453411
0.00470578
0.0048777
0.0050496
0.00522116
0.0053921
0.0055621
0.00573084
0.00589798
0.00606318
0.00622607
0.00638633
0.00654361
0.00669758
0.00684792
0.0069943
0.00713642
0.00727393
0.00740649
0.00753379
0.00765549
0.00777129
0.00788089
0.00798403
0.00808046
0.00816996
0.00825232
0.00832736
0.00839491
0.00845485
0.00850707
0.00855151
0.00858815
0.00861701
0.00863813
0.00865158
0.00865749
0.00865598
0.00864722
0.00863135
0.00860855
0.00857893
0.00854259
0.0085
0.00845153
0.00839171
0.00831545
0.000445638
0.000370886
0.000313155
0.000267338
0.000227728
0.000194346
0.000167349
0.000146542
0.000131719
0.000122724
0.00011946
0.000121849
0.000129795
0.000143209
0.000162035
0.000186249
0.000215823
0.000250717
0.000290874
0.00033624
0.000386774
0.000442455
0.00050326
0.000569151
0.000640072
0.00071596
0.000796768
0.000882471
0.000973052
0.00106848
0.00116872
0.00127368
0.00138328
0.00149746
0.00161614
0.00173924
0.00186666
0.00199825
0.00213384
0.00227326
0.00241633
0.00256289
0.00271276
0.00286576
0.00302169
0.00318033
0.00334146
0.00350486
0.00367031
0.00383762
0.00400658
0.00417696
0.0043485
0.00452093
0.00469396
0.00486729
0.00504061
0.00521364
0.00538606
0.00555756
0.00572781
0.00589645
0.00606316
0.00622758
0.00638936
0.00654818
0.00670371
0.00685563
0.0070036
0.0071473
0.00728638
0.00742049
0.00754929
0.00767246
0.00778967
0.00790063
0.00800506
0.0081027
0.00819333
0.00827672
0.00835268
0.00842104
0.00848167
0.00853445
0.00857932
0.00861624
0.00864521
0.00866628
0.00867952
0.00868502
0.00868291
0.00867334
0.00865646
0.00863242
0.00860134
0.00856332
0.00851887
0.00846841
0.0084063
0.00832735
0.000431167
0.000354017
0.000294232
0.000246589
0.000205306
0.000170436
0.000142092
0.000120073
0.000104208
9.43426e-05
9.03295e-05
9.20457e-05
9.9391e-05
0.000112285
0.000130672
0.000154513
0.000183757
0.00021834
0.000258197
0.000303288
0.000353587
0.000409073
0.000469712
0.00053545
0.00060623
0.000682005
0.000762752
0.000848456
0.000939103
0.00103465
0.00113504
0.00124021
0.00135008
0.00146459
0.00158366
0.00170722
0.00183513
0.00196724
0.00210337
0.00224337
0.00238707
0.00253432
0.00268494
0.00283875
0.00299555
0.00315513
0.00331728
0.00348179
0.00364845
0.00381708
0.00398745
0.00415931
0.00433241
0.00450646
0.00468115
0.00485618
0.00503124
0.00520604
0.00538025
0.00555356
0.00572562
0.0058961
0.00606464
0.0062309
0.00639454
0.00655524
0.00671266
0.00686647
0.00701633
0.00716189
0.00730281
0.00743872
0.00756927
0.00769412
0.00781294
0.00792544
0.00803132
0.00813032
0.00822221
0.00830675
0.00838374
0.008453
0.00851439
0.0085678
0.00861314
0.00865038
0.0086795
0.00870055
0.00871358
0.00871869
0.008716
0.00870564
0.00868777
0.00866255
0.00863009
0.00859051
0.00854434
0.00849204
0.00842785
0.00834651
0.000408673
0.000329378
0.000267775
0.000218491
0.000175641
0.000139356
0.000109765
8.66319e-05
6.9784e-05
5.90638e-05
5.42951e-05
5.53316e-05
6.20791e-05
7.44684e-05
9.24312e-05
0.000115897
0.000144794
0.000179053
0.000218624
0.000263474
0.000313581
0.000368913
0.00042942
0.000495047
0.000565748
0.000641498
0.000722289
0.00080811
0.000898933
0.00099471
0.00109538
0.00120088
0.00131115
0.00142614
0.00154576
0.0016699
0.00179843
0.00193119
0.00206802
0.00220876
0.00235326
0.00250137
0.00265293
0.00280775
0.00296563
0.00312638
0.00328979
0.00345567
0.00362382
0.00379404
0.0039661
0.00413974
0.00431468
0.00449063
0.00466727
0.00484429
0.0050214
0.00519827
0.00537459
0.00555002
0.00572422
0.00589685
0.00606756
0.00623601
0.00640185
0.00656477
0.0067244
0.00688042
0.00703247
0.00718019
0.00732321
0.00746116
0.00759368
0.00772042
0.00784106
0.00795527
0.00806277
0.00816329
0.00825658
0.00834239
0.00842052
0.00849078
0.00855303
0.00860713
0.00865302
0.00869063
0.00871995
0.00874102
0.00875389
0.00875864
0.00875541
0.0087443
0.0087255
0.00869915
0.00866538
0.00862433
0.00857655
0.00852254
0.00845644
0.0083729
0.000378235
0.000296943
0.000233669
0.000182894
0.000138593
0.000100972
7.02193e-05
4.60621e-05
2.82795e-05
1.67082e-05
1.1183e-05
1.15606e-05
1.77416e-05
2.96471e-05
4.71883e-05
7.02705e-05
9.88137e-05
0.000132761
0.000172076
0.000216727
0.000266681
0.000321888
0.000382297
0.000447862
0.00051856
0.000594382
0.000675322
0.000761361
0.000852463
0.000948575
0.00104964
0.00115561
0.00126642
0.00138202
0.00150232
0.00162717
0.00175645
0.00189
0.00202766
0.00216931
0.00231479
0.00246396
0.00261665
0.00277268
0.00293186
0.00309401
0.00325894
0.00342645
0.00359636
0.00376845
0.00394247
0.00411816
0.00429522
0.00447334
0.00465222
0.00483153
0.00501097
0.00519022
0.00536895
0.00554682
0.0057235
0.00589862
0.00607185
0.00624283
0.00641123
0.0065767
0.00673889
0.00689744
0.00705197
0.00720213
0.00734751
0.00748775
0.00762248
0.00775133
0.00787398
0.0079901
0.0080994
0.0082016
0.00829644
0.00838367
0.00846307
0.00853445
0.00859766
0.00865256
0.00869907
0.00873713
0.00876672
0.00878786
0.00880061
0.00880507
0.00880133
0.00878953
0.00876984
0.00874241
0.0087074
0.00866494
0.00861562
0.00855998
0.00849208
0.00840645
0.000339898
0.000256691
0.00019182
0.000139669
9.40519e-05
5.51949e-05
2.33358e-05
-1.80589e-06
-2.04927e-05
-3.28948e-05
-3.91505e-05
-3.9393e-05
-3.37443e-05
-2.23123e-05
-5.20063e-06
1.74946e-05
4.57004e-05
7.93704e-05
0.000118469
0.000162956
0.000212781
0.000267892
0.000328244
0.000393814
0.000464594
0.000540583
0.000621768
0.00070812
0.000799596
0.000896146
0.000997724
0.00110429
0.00121578
0.00133212
0.0014532
0.00157889
0.00170904
0.00184352
0.00198218
0.0021249
0.00227155
0.00242196
0.00257599
0.00273345
0.00289417
0.00305797
0.00322467
0.00339409
0.00356603
0.00374025
0.00391651
0.00409451
0.00427394
0.00445451
0.00463589
0.00481777
0.00499984
0.00518177
0.00536322
0.00554387
0.00572334
0.0059013
0.0060774
0.00625128
0.00642258
0.00659095
0.00675602
0.00691741
0.00707474
0.00722761
0.00737563
0.00751842
0.00765559
0.00778679
0.00791167
0.00802991
0.00814121
0.00824528
0.00834185
0.00843066
0.00851149
0.00858414
0.00864843
0.00870424
0.00875147
0.00879006
0.00882
0.00884129
0.00885398
0.00885818
0.00885398
0.00884153
0.00882098
0.00879252
0.00875628
0.00871245
0.00866163
0.0086044
0.00853472
0.00844706
0.000293657
0.000208613
0.000142193
8.87398e-05
4.19174e-05
1.90929e-06
-3.10292e-05
-5.71471e-05
-7.67081e-05
-8.98922e-05
-9.68328e-05
-9.76652e-05
-9.25353e-05
-8.15755e-05
-6.48922e-05
-4.25675e-05
-1.46635e-05
1.8771e-05
5.76884e-05
0.000102034
0.000151754
0.000206803
0.000267157
0.000332809
0.00040376
0.000480004
0.000561519
0.000648269
0.000740212
0.000837309
0.00093952
0.0010468
0.00115909
0.00127628
0.00139826
0.0015249
0.00165607
0.00179163
0.00193146
0.00207544
0.00222344
0.0023753
0.00253088
0.00268999
0.00285249
0.00301819
0.00318694
0.00335853
0.00353275
0.00370937
0.00388811
0.00406867
0.00425074
0.00443401
0.00461816
0.00480289
0.00498787
0.00517278
0.00535728
0.00554101
0.00572363
0.00590478
0.0060841
0.00626122
0.00643578
0.00660739
0.00677567
0.00694022
0.00710065
0.00725653
0.00740747
0.00755307
0.00769295
0.00782675
0.00795412
0.00807472
0.00818825
0.00829441
0.00839291
0.0084835
0.00856593
0.00864
0.00870553
0.00876237
0.00881044
0.00884966
0.00888002
0.00890152
0.00891422
0.00891819
0.00891356
0.00890047
0.00887907
0.00884957
0.00881212
0.0087669
0.00871458
0.00865576
0.00858432
0.00849463
0.000239471
0.000152694
8.47908e-05
3.00574e-05
-1.79354e-05
-5.90497e-05
-9.30398e-05
-0.000120116
-0.000140513
-0.000154425
-0.000162012
-0.000163426
-0.000158818
-0.000148324
-0.000132044
-0.000110052
-8.24086e-05
-4.91758e-05
-1.04166e-05
3.38091e-05
8.34546e-05
0.000138494
0.000198921
0.000264738
0.000335942
0.00041252
0.000494442
0.000581674
0.000674181
0.000771933
0.000874892
0.000983005
0.00109619
0.00121435
0.00133735
0.00146507
0.00159739
0.00173419
0.00187537
0.00202079
0.00217034
0.00232387
0.00248121
0.00264223
0.00280675
0.00297462
0.00314567
0.00331969
0.00349646
0.00367571
0.00385717
0.00404053
0.00422548
0.00441171
0.00459891
0.00478676
0.00497495
0.00516314
0.00535099
0.00553814
0.00572424
0.00590892
0.00609181
0.00627252
0.00645068
0.00662587
0.0067977
0.00696573
0.00712956
0.00728877
0.00744293
0.00759164
0.00773453
0.00787121
0.00800134
0.00812458
0.00824061
0.0083491
0.00844977
0.00854234
0.00862657
0.00870223
0.00876915
0.00882717
0.00887619
0.00891614
0.00894699
0.00896876
0.00898149
0.00898527
0.00898022
0.00896647
0.00894421
0.00891364
0.00887494
0.00882831
0.00877446
0.00871403
0.00864079
0.00854905
0.000177301
8.88776e-05
1.95517e-05
-3.64657e-05
-8.56518e-05
-0.000127856
-0.000162852
-0.000190845
-0.000212046
-0.00022666
-0.00023488
-0.000236874
-0.000232784
-0.000222731
-0.000206813
-0.000185109
-0.000157693
-0.000124641
-8.60211e-05
-4.18859e-05
7.73508e-06
6.28334e-05
0.000123412
0.000189471
0.000261002
0.000337984
0.000420389
0.00050819
0.000601363
0.000699879
0.000803695
0.000912745
0.00102694
0.00114616
0.00127029
0.00139923
0.00153286
0.00167108
0.00181378
0.00196086
0.00211216
0.00226756
0.00242691
0.00259006
0.00275686
0.00292716
0.00310076
0.00327746
0.00345701
0.00363914
0.00382356
0.00400996
0.00419804
0.00438748
0.00457799
0.00476924
0.00496093
0.00515271
0.00534423
0.00553513
0.00572505
0.0059136
0.00610041
0.00628506
0.00646715
0.00664626
0.00682196
0.00699381
0.00716137
0.00732422
0.00748193
0.00763409
0.00778031
0.0079202
0.00805341
0.00817958
0.00829838
0.00840947
0.00851256
0.00860735
0.00869357
0.00877101
0.00883948
0.00889881
0.0089489
0.00898966
0.00902108
0.00904316
0.00905595
0.00905953
0.00905403
0.0090396
0.00901643
0.00898475
0.00894475
0.00889667
0.00884125
0.00877917
0.00870411
0.00861027
0.000107119
1.70575e-05
-5.36679e-05
-0.000110964
-0.000161363
-0.000204651
-0.000240611
-0.000269478
-0.000291472
-0.000306795
-0.000315651
-0.000318213
-0.000314612
-0.00030496
-0.000289362
-0.000267913
-0.000240704
-0.000207814
-0.000169305
-0.000125212
-7.55485e-05
-2.03154e-05
4.04899e-05
0.000106862
0.000178786
0.000256242
0.00033921
0.000427675
0.000521616
0.000621
0.000725773
0.000835855
0.00095115
0.00107155
0.00119695
0.00132724
0.00146235
0.00160216
0.00174659
0.00189549
0.00204876
0.00220626
0.00236785
0.00253338
0.00270272
0.00287569
0.00305209
0.0032317
0.00341426
0.00359949
0.00378709
0.00397676
0.00416821
0.00436113
0.00455522
0.00475017
0.00494566
0.00514134
0.00533686
0.00553184
0.00572592
0.00591869
0.00610975
0.00629868
0.00648505
0.00666841
0.00684832
0.00702433
0.00719598
0.00736282
0.00752443
0.00768039
0.00783029
0.00797375
0.00811037
0.0082398
0.00836168
0.00847566
0.00858142
0.00867865
0.00876709
0.0088465
0.00891667
0.00897744
0.0090287
0.00907036
0.0091024
0.00912482
0.00913767
0.00914104
0.00913506
0.00911991
0.00909578
0.00906294
0.0090216
0.00897203
0.00891499
0.00885123
0.0087743
0.0086783
2.88888e-05
-6.28816e-05
-0.000135028
-0.000193579
-0.000245176
-0.00028955
-0.000326467
-0.000356198
-0.00037899
-0.000395036
-0.000404525
-0.000407622
-0.000404466
-0.000395176
-0.00037987
-0.000358659
-0.000331639
-0.000298882
-0.000260434
-0.000216317
-0.000166537
-0.000111095
-4.99955e-05
1.67522e-05
8.91349e-05
0.000167141
0.000250763
0.000339988
0.000434796
0.000535143
0.000640964
0.000752171
0.00086867
0.000990363
0.00111716
0.00124897
0.00138572
0.00152731
0.00167363
0.00182458
0.00198002
0.00213984
0.00230389
0.00247205
0.00264415
0.00282003
0.00299945
0.00318219
0.00336797
0.00355651
0.00374752
0.00394071
0.00413579
0.00433246
0.00453042
0.00472936
0.00492896
0.00512887
0.00532872
0.00552813
0.0057267
0.00592403
0.00611969
0.00631324
0.00650423
0.00669219
0.00687667
0.00705719
0.00723328
0.0074045
0.0075704
0.00773054
0.0078845
0.00803188
0.00817228
0.00830531
0.00843058
0.00854773
0.00865642
0.00875634
0.00884721
0.00892876
0.00900079
0.00906313
0.00911566
0.00915829
0.00919099
0.00921377
0.00922668
0.00922982
0.00922335
0.00920744
0.00918233
0.00914829
0.00910557
0.00905447
0.00899579
0.00893031
0.00885146
0.00875321
-5.74339e-05
-0.000151022
-0.000224643
-0.00028444
-0.000337214
-0.000382689
-0.000420595
-0.000451213
-0.000474808
-0.000491567
-0.000501663
-0.00050526
-0.000502512
-0.00049356
-0.000478533
-0.000457545
-0.000430685
-0.000398011
-0.000359559
-0.000315345
-0.000265376
-0.00020966
-0.000148205
-8.10176e-05
-8.10296e-06
7.05392e-05
0.000154907
0.000244989
0.000340754
0.000442151
0.000549104
0.000661529
0.000779341
0.000902454
0.00103079
0.00116428
0.00130284
0.00144637
0.00159478
0.00174795
0.00190578
0.00206813
0.00223488
0.00240588
0.00258097
0.00275996
0.00294261
0.00312868
0.00331788
0.00350995
0.0037046
0.00390155
0.00410051
0.00430121
0.00450334
0.0047066
0.00491064
0.00511511
0.00531963
0.00552381
0.00572722
0.00592946
0.00613006
0.00632857
0.00652453
0.00671746
0.00690687
0.00709228
0.00727321
0.0074492
0.00761978
0.0077845
0.00794293
0.00809462
0.00823915
0.00837611
0.00850509
0.00862571
0.0087376
0.00884045
0.00893394
0.00901783
0.00909188
0.00915591
0.00920981
0.00925348
0.00928689
0.00931006
0.00932304
0.00932596
0.00931898
0.0093023
0.00927619
0.00924094
0.00919683
0.00914418
0.00908383
0.00901659
0.00893575
0.00883514
-0.000151924
-0.000247426
-0.000322594
-0.000383677
-0.000437645
-0.000484244
-0.00052318
-0.00055471
-0.000579099
-0.000596542
-0.000607212
-0.000611285
-0.000608933
-0.00060031
-0.000585549
-0.000564755
-0.000538006
-0.000505352
-0.000466825
-0.000422445
-0.000372225
-0.000316176
-0.000254304
-0.000186607
-0.000113078
-3.3709e-05
5.14977e-05
0.000142524
0.000239329
0.000341854
0.000450026
0.000563768
0.000683006
0.000807672
0.000937698
0.00107301
0.00121354
0.00135919
0.00150986
0.00166545
0.00182585
0.00199095
0.00216059
0.00233464
0.00251292
0.00269521
0.00288127
0.00307085
0.00326368
0.00345949
0.003658
0.00385896
0.0040621
0.00426712
0.00447374
0.00468163
0.00489045
0.00509982
0.00530937
0.00551866
0.00572727
0.00593476
0.00614067
0.00634451
0.00654581
0.00674407
0.0069388
0.0071295
0.00731568
0.00749685
0.00767253
0.00784225
0.00800553
0.00816192
0.00831095
0.00845218
0.00858519
0.00870956
0.00882493
0.00893094
0.00902728
0.00911368
0.0091899
0.00925577
0.00931114
0.00935594
0.00939014
0.00941375
0.00942685
0.00942958
0.00942211
0.00940469
0.00937759
0.00934113
0.00929562
0.00924139
0.00917933
0.00911027
0.00902734
0.00892422
-0.000254702
-0.000352187
-0.000428981
-0.000491434