/*--------------------------------*- C++ -*----------------------------------*\
  =========                 |
  \\      /  F ield         | OpenFOAM: The Open Source CFD Toolbox
   \\    /   O peration     | Website:  https://openfoam.org
    \\  /    A nd           | Version:  7
     \\/     M anipulation  |
\*---------------------------------------------------------------------------*/
FoamFile
{
    version     2.0;
    format      ascii;
    class       surfaceScalarField;
    location    "0.09375";
    object      phi;
}
// * * * * * * * * * * * * * * * * * * * * * * * * * * * * * * * * * * * * * //

dimensions      [0 3 -1 0 0 0 0];

internalField   nonuniform List<scalar> 
19800
(
6.61465e-11
-6.61885e-11
1.15304e-10
-4.91528e-11
1.04649e-10
1.06545e-11
6.59304e-12
9.80704e-11
-1.78937e-10
1.85531e-10
-4.47083e-10
2.68146e-10
-7.89276e-10
3.42195e-10
-1.19542e-09
4.06141e-10
-1.65522e-09
4.59806e-10
-2.159e-09
5.03773e-10
-2.69779e-09
5.38794e-10
-3.26365e-09
5.65857e-10
-3.84975e-09
5.86107e-10
-4.45021e-09
6.00457e-10
-5.05996e-09
6.09747e-10
-5.67482e-09
6.14864e-10
-6.29135e-09
6.16524e-10
-6.90657e-09
6.15222e-10
-7.51799e-09
6.11426e-10
-8.12366e-09
6.05659e-10
-8.72201e-09
5.9835e-10
-9.31178e-09
5.89758e-10
-9.89183e-09
5.80043e-10
-1.04612e-08
5.69329e-10
-1.10189e-08
5.57735e-10
-1.15643e-08
5.45384e-10
-1.20967e-08
5.32381e-10
-1.26154e-08
5.1878e-10
-1.312e-08
5.04599e-10
-1.36099e-08
4.89842e-10
-1.40844e-08
4.74503e-10
-1.4543e-08
4.58576e-10
-1.4985e-08
4.42072e-10
-1.54101e-08
4.25023e-10
-1.58175e-08
4.07442e-10
-1.62068e-08
3.89314e-10
-1.65774e-08
3.70609e-10
-1.69287e-08
3.51318e-10
-1.72602e-08
3.31457e-10
-1.75712e-08
3.11042e-10
-1.78613e-08
2.90083e-10
-1.81299e-08
2.68586e-10
-1.83764e-08
2.46555e-10
-1.86004e-08
2.23997e-10
-1.88014e-08
2.00921e-10
-1.89787e-08
1.77344e-10
-1.9132e-08
1.53295e-10
-1.92608e-08
1.28802e-10
-1.93647e-08
1.03884e-10
-1.94432e-08
7.85511e-11
-1.94961e-08
5.28161e-11
-1.95228e-08
2.67053e-11
-1.9523e-08
2.55802e-13
-1.94965e-08
-2.64944e-11
-1.9443e-08
-5.35169e-11
-1.93622e-08
-8.07862e-11
-1.92539e-08
-1.08276e-10
-1.9118e-08
-1.35951e-10
-1.89542e-08
-1.63769e-10
-1.87625e-08
-1.91686e-10
-1.85429e-08
-2.19649e-10
-1.82952e-08
-2.4761e-10
-1.80197e-08
-2.7552e-10
-1.77164e-08
-3.03332e-10
-1.73854e-08
-3.30997e-10
-1.70269e-08
-3.58466e-10
-1.66412e-08
-3.8568e-10
-1.62287e-08
-4.12572e-10
-1.57896e-08
-4.39072e-10
-1.53245e-08
-4.65108e-10
-1.48339e-08
-4.90606e-10
-1.43184e-08
-5.15491e-10
-1.37787e-08
-5.39683e-10
-1.32156e-08
-5.63083e-10
-1.26301e-08
-5.85573e-10
-1.2023e-08
-6.07013e-10
-1.13958e-08
-6.27238e-10
-1.07498e-08
-6.46057e-10
-1.00865e-08
-6.63245e-10
-9.40798e-09
-6.78535e-10
-8.71637e-09
-6.91612e-10
-8.01427e-09
-7.02105e-10
-7.30469e-09
-7.09583e-10
-6.59114e-09
-7.13545e-10
-5.87773e-09
-7.13411e-10
-5.16921e-09
-7.08524e-10
-4.47107e-09
-6.98143e-10
-3.78962e-09
-6.81457e-10
-3.13203e-09
-6.57585e-10
-2.50644e-09
-6.2559e-10
-1.92194e-09
-5.84495e-10
-1.38861e-09
-5.33337e-10
-9.17358e-10
-4.71247e-10
-5.19762e-10
-3.97596e-10
-2.07497e-10
-3.12267e-10
8.88434e-12
-2.16383e-10
1.23023e-10
-1.14138e-10
1.36645e-10
-1.36241e-11
7.22922e-11
6.43479e-11
7.22905e-11
7.88064e-11
-1.44991e-10
7.32981e-11
-4.36566e-11
-1.05059e-10
1.89003e-10
-4.84987e-10
4.77989e-10
-1.07628e-09
7.76818e-10
-1.8703e-09
1.06216e-09
-2.84962e-09
1.32152e-09
-3.99239e-09
1.54891e-09
-5.27526e-09
1.74267e-09
-6.67508e-09
1.90359e-09
-8.16997e-09
2.0337e-09
-9.73999e-09
2.13588e-09
-1.13672e-08
2.21337e-09
-1.3036e-08
2.26924e-09
-1.47327e-08
2.30646e-09
-1.64457e-08
2.32786e-09
-1.81651e-08
2.33592e-09
-1.98826e-08
2.33274e-09
-2.15914e-08
2.32017e-09
-2.32856e-08
2.29987e-09
-2.49604e-08
2.27319e-09
-2.66118e-08
2.24115e-09
-2.82363e-08
2.20456e-09
-2.9831e-08
2.16403e-09
-3.13933e-08
2.12009e-09
-3.29211e-08
2.07312e-09
-3.44121e-08
2.02344e-09
-3.58646e-08
1.97127e-09
-3.72767e-08
1.91673e-09
-3.86468e-08
1.85992e-09
-3.99732e-08
1.80087e-09
-4.12542e-08
1.73959e-09
-4.24883e-08
1.67614e-09
-4.36738e-08
1.61056e-09
-4.48092e-08
1.54288e-09
-4.5893e-08
1.47307e-09
-4.69235e-08
1.40113e-09
-4.78992e-08
1.32705e-09
-4.88186e-08
1.25086e-09
-4.96802e-08
1.17261e-09
-5.04824e-08
1.09231e-09
-5.12238e-08
1.01e-09
-5.1903e-08
9.2572e-10
-5.25185e-08
8.39517e-10
-5.3069e-08
7.51443e-10
-5.35533e-08
6.61564e-10
-5.39699e-08
5.69958e-10
-5.43178e-08
4.76708e-10
-5.45958e-08
3.8189e-10
-5.48028e-08
2.85578e-10
-5.49379e-08
1.87854e-10
-5.5e-08
8.8813e-11
-5.49883e-08
-1.14344e-11
-5.4902e-08
-1.12772e-10
-5.47404e-08
-2.15088e-10
-5.45029e-08
-3.18267e-10
-5.4189e-08
-4.22185e-10
-5.37983e-08
-5.26707e-10
-5.33304e-08
-6.31681e-10
-5.27851e-08
-7.36947e-10
-5.21624e-08
-8.42336e-10
-5.14624e-08
-9.47669e-10
-5.06851e-08
-1.05276e-09
-4.9831e-08
-1.15742e-09
-4.89006e-08
-1.26147e-09
-4.78944e-08
-1.36468e-09
-4.68132e-08
-1.46684e-09
-4.5658e-08
-1.56773e-09
-4.443e-08
-1.66707e-09
-4.31305e-08
-1.76462e-09
-4.1761e-08
-1.86008e-09
-4.03234e-08
-1.95316e-09
-3.88196e-08
-2.0435e-09
-3.72519e-08
-2.13073e-09
-3.56231e-08
-2.21439e-09
-3.39361e-08
-2.29396e-09
-3.21946e-08
-2.3688e-09
-3.04025e-08
-2.43819e-09
-2.85645e-08
-2.50127e-09
-2.6686e-08
-2.55703e-09
-2.47733e-08
-2.60428e-09
-2.28338e-08
-2.64165e-09
-2.08758e-08
-2.66752e-09
-1.89093e-08
-2.68005e-09
-1.69456e-08
-2.67716e-09
-1.49976e-08
-2.65649e-09
-1.30803e-08
-2.61545e-09
-1.12106e-08
-2.55122e-09
-9.40729e-09
-2.46085e-09
-7.69159e-09
-2.34129e-09
-6.08656e-09
-2.18954e-09
-4.617e-09
-2.0029e-09
-3.30892e-09
-1.77933e-09
-2.18841e-09
-1.51812e-09
-1.27975e-09
-1.22093e-09
-6.02188e-10
-8.93949e-10
-1.64858e-10
-5.51467e-10
4.30178e-11
-2.21494e-10
6.45544e-11
4.28253e-11
1.36842e-10
3.75345e-12
-1.48744e-10
-1.52664e-10
1.1275e-10
-5.71153e-10
6.07495e-10
-1.28552e-09
1.19236e-09
-2.30366e-09
1.79495e-09
-3.61431e-09
2.37281e-09
-5.19451e-09
2.90172e-09
-7.01507e-09
3.36947e-09
-9.04395e-09
3.77155e-09
-1.12487e-08
4.10838e-09
-1.35983e-08
4.38322e-09
-1.60634e-08
4.60104e-09
-1.86177e-08
4.76769e-09
-2.12377e-08
4.88919e-09
-2.39026e-08
4.97141e-09
-2.65947e-08
5.01989e-09
-2.92984e-08
5.03964e-09
-3.20007e-08
5.03509e-09
-3.46907e-08
5.01013e-09
-3.7359e-08
4.96813e-09
-3.99977e-08
4.91189e-09
-4.26002e-08
4.84364e-09
-4.51608e-08
4.76516e-09
-4.76746e-08
4.67788e-09
-5.01375e-08
4.58293e-09
-5.25455e-08
4.48117e-09
-5.48953e-08
4.37327e-09
-5.71838e-08
4.25973e-09
-5.94079e-08
4.14089e-09
-6.1565e-08
4.01696e-09
-6.36522e-08
3.88811e-09
-6.56671e-08
3.75442e-09
-6.76069e-08
3.616e-09
-6.94693e-08
3.47294e-09
-7.12517e-08
3.32527e-09
-7.29516e-08
3.17303e-09
-7.45667e-08
3.01622e-09
-7.60946e-08
2.8549e-09
-7.75328e-08
2.6891e-09
-7.88791e-08
2.51891e-09
-8.01312e-08
2.34439e-09
-8.12868e-08
2.16562e-09
-8.23438e-08
1.98271e-09
-8.33e-08
1.79575e-09
-8.41535e-08
1.60486e-09
-8.49021e-08
1.41018e-09
-8.5544e-08
1.21188e-09
-8.60774e-08
1.01011e-09
-8.65006e-08
8.05055e-10
-8.68119e-08
5.96876e-10
-8.70098e-08
3.85768e-10
-8.70929e-08
1.71939e-10
-8.70599e-08
-4.43826e-11
-8.69097e-08
-2.62956e-10
-8.66413e-08
-4.8353e-10
-8.62537e-08
-7.05843e-10
-8.57463e-08
-9.29619e-10
-8.51184e-08
-1.15456e-09
-8.43698e-08
-1.38034e-09
-8.35001e-08
-1.60662e-09
-8.25094e-08
-1.83306e-09
-8.13978e-08
-2.05926e-09
-8.01657e-08
-2.28484e-09
-7.88137e-08
-2.5094e-09
-7.73427e-08
-2.73251e-09
-7.57536e-08
-2.95372e-09
-7.40479e-08
-3.17258e-09
-7.2227e-08
-3.38857e-09
-7.0293e-08
-3.60117e-09
-6.82478e-08
-3.8098e-09
-6.6094e-08
-4.01385e-09
-6.38345e-08
-4.21265e-09
-6.14726e-08
-4.40544e-09
-5.90119e-08
-4.59137e-09
-5.64569e-08
-4.76944e-09
-5.38123e-08
-4.93852e-09
-5.10839e-08
-5.09724e-09
-4.8278e-08
-5.24405e-09
-4.54022e-08
-5.37709e-09
-4.24651e-08
-5.49419e-09
-3.94765e-08
-5.59283e-09
-3.64481e-08
-5.67008e-09
-3.3393e-08
-5.72256e-09
-3.03267e-08
-5.74642e-09
-2.72665e-08
-5.73733e-09
-2.42325e-08
-5.69048e-09
-2.12473e-08
-5.60062e-09
-1.83364e-08
-5.46217e-09
-1.5528e-08
-5.2693e-09
-1.2853e-08
-5.01624e-09
-1.0345e-08
-4.69753e-09
-8.03929e-09
-4.30862e-09
-5.97193e-09
-3.84668e-09
-4.17817e-09
-3.31189e-09
-2.68961e-09
-2.70949e-09
-1.53027e-09
-2.05329e-09
-7.10596e-10
-1.37115e-09
-2.19177e-10
-7.12917e-10
-1.28252e-11
-1.63521e-10
1.24016e-10
-8.52313e-11
-6.34974e-11
-4.47471e-10
4.74978e-10
-1.15488e-09
1.3149e-09
-2.23572e-09
2.2732e-09
-3.69284e-09
3.25208e-09
-5.51085e-09
4.19081e-09
-7.66231e-09
5.05319e-09
-1.01128e-08
5.81992e-09
-1.28242e-08
6.483e-09
-1.57577e-08
7.04195e-09
-1.88756e-08
7.50104e-09
-2.21419e-08
7.86734e-09
-2.55237e-08
8.1495e-09
-2.89913e-08
8.35681e-09
-3.25184e-08
8.49853e-09
-3.6082e-08
8.58346e-09
-3.9662e-08
8.61971e-09
-4.32415e-08
8.61455e-09
-4.68057e-08
8.57437e-09
-5.03423e-08
8.50466e-09
-5.38404e-08
8.41005e-09
-5.72912e-08
8.29437e-09
-6.06867e-08
8.16073e-09
-6.40205e-08
8.01162e-09
-6.72865e-08
7.84896e-09
-7.04796e-08
7.67426e-09
-7.3595e-08
7.48867e-09
-7.66283e-08
7.29309e-09
-7.95756e-08
7.08816e-09
-8.2433e-08
6.87435e-09
-8.51968e-08
6.65196e-09
-8.78636e-08
6.42121e-09
-9.04299e-08
6.18229e-09
-9.28923e-08
5.93535e-09
-9.52476e-08
5.68052e-09
-9.74924e-08
5.41786e-09
-9.96236e-08
5.14747e-09
-1.01638e-07
4.86943e-09
-1.03533e-07
4.58384e-09
-1.05305e-07
4.29083e-09
-1.06951e-07
3.99054e-09
-1.08469e-07
3.68313e-09
-1.09855e-07
3.36875e-09
-1.11106e-07
3.0476e-09
-1.12221e-07
2.71989e-09
-1.13197e-07
2.38585e-09
-1.14031e-07
2.04576e-09
-1.14721e-07
1.69989e-09
-1.15264e-07
1.34853e-09
-1.15659e-07
9.91987e-10
-1.15904e-07
6.306e-10
-1.15997e-07
2.64729e-10
-1.15936e-07
-1.05236e-10
-1.1572e-07
-4.78885e-10
-1.15348e-07
-8.55787e-10
-1.14818e-07
-1.23549e-09
-1.1413e-07
-1.6175e-09
-1.13284e-07
-2.00131e-09
-1.12278e-07
-2.38638e-09
-1.11112e-07
-2.77213e-09
-1.09787e-07
-3.15796e-09
-1.08303e-07
-3.54324e-09
-1.06661e-07
-3.92729e-09
-1.04861e-07
-4.30945e-09
-1.02904e-07
-4.68897e-09
-1.00793e-07
-5.06512e-09
-9.85283e-08
-5.43709e-09
-9.61129e-08
-5.80403e-09
-9.3549e-08
-6.16503e-09
-9.08397e-08
-6.51913e-09
-8.79883e-08
-6.86525e-09
-8.49987e-08
-7.20225e-09
-8.18753e-08
-7.52881e-09
-7.86233e-08
-7.84344e-09
-7.52482e-08
-8.14446e-09
-7.17569e-08
-8.42988e-09
-6.81567e-08
-8.69741e-09
-6.44564e-08
-8.94437e-09
-6.06659e-08
-9.16761e-09
-5.67966e-08
-9.36347e-09
-5.28617e-08
-9.52771e-09
-4.88764e-08
-9.65541e-09
-4.4858e-08
-9.74095e-09
-4.08265e-08
-9.77798e-09
-3.68044e-08
-9.75938e-09
-3.28176e-08
-9.67735e-09
-2.88947e-08
-9.52345e-09
-2.50681e-08
-9.28879e-09
-2.13731e-08
-8.96432e-09
-1.78481e-08
-8.54121e-09
-1.45342e-08
-8.01147e-09
-1.1474e-08
-7.36884e-09
-8.71052e-09
-6.61015e-09
-6.28519e-09
-5.73722e-09
-4.23481e-09
-4.75987e-09
-2.58778e-09
-3.70033e-09
-1.35896e-09
-2.59998e-09
-5.43638e-10
-1.52824e-09
-1.11526e-10
-5.95632e-10
1.24901e-11
-1.80481e-10
1.16984e-10
-7.60217e-10
1.05471e-09
-1.77324e-09
2.32791e-09
-3.23097e-09
3.73093e-09
-5.12616e-09
5.14727e-09
-7.43682e-09
6.50147e-09
-1.01305e-08
7.74683e-09
-1.31679e-08
8.8574e-09
-1.65067e-08
9.82173e-09
-2.0103e-08
1.06382e-08
-2.3914e-08
1.13121e-08
-2.78992e-08
1.18525e-08
-3.20207e-08
1.2271e-08
-3.62441e-08
1.25803e-08
-4.05388e-08
1.27932e-08
-4.48775e-08
1.29221e-08
-4.92364e-08
1.29787e-08
-5.35952e-08
1.29733e-08
-5.7936e-08
1.29152e-08
-6.22437e-08
1.28124e-08
-6.65054e-08
1.26717e-08
-7.07098e-08
1.24987e-08
-7.48471e-08
1.22981e-08
-7.89092e-08
1.20737e-08
-8.28885e-08
1.18283e-08
-8.67786e-08
1.15643e-08
-9.05735e-08
1.12835e-08
-9.42677e-08
1.09873e-08
-9.78562e-08
1.06767e-08
-1.01334e-07
1.03523e-08
-1.04697e-07
1.00149e-08
-1.07941e-07
9.66477e-09
-1.11061e-07
9.30225e-09
-1.14053e-07
8.92759e-09
-1.16913e-07
8.54101e-09
-1.19638e-07
8.14268e-09
-1.22223e-07
7.73275e-09
-1.24665e-07
7.31141e-09
-1.2696e-07
6.87883e-09
-1.29105e-07
6.43521e-09
-1.31095e-07
5.98079e-09
-1.32928e-07
5.5158e-09
-1.346e-07
5.04052e-09
-1.36107e-07
4.55522e-09
-1.37448e-07
4.06026e-09
-1.38618e-07
3.55598e-09
-1.39615e-07
3.04278e-09
-1.40436e-07
2.52109e-09
-1.41079e-07
1.99134e-09
-1.41541e-07
1.454e-09
-1.4182e-07
9.09598e-10
-1.41914e-07
3.58674e-10
-1.41821e-07
-1.98185e-10
-1.41539e-07
-7.6036e-10
-1.41068e-07
-1.3272e-09
-1.40405e-07
-1.89801e-09
-1.39551e-07
-2.47206e-09
-1.38503e-07
-3.04857e-09
-1.37263e-07
-3.62675e-09
-1.35829e-07
-4.20571e-09
-1.34203e-07
-4.78457e-09
-1.32384e-07
-5.36237e-09
-1.30373e-07
-5.93814e-09
-1.28171e-07
-6.51084e-09
-1.25781e-07
-7.07939e-09
-1.23204e-07
-7.64267e-09
-1.20441e-07
-8.19946e-09
-1.17497e-07
-8.74851e-09
-1.14373e-07
-9.28845e-09
-1.11075e-07
-9.81781e-09
-1.07605e-07
-1.0335e-08
-1.03969e-07
-1.08382e-08
-1.00172e-07
-1.13256e-08
-9.62208e-08
-1.17947e-08
-9.21221e-08
-1.22432e-08
-8.78841e-08
-1.26679e-08
-8.3516e-08
-1.30655e-08
-7.90285e-08
-1.34319e-08
-7.44336e-08
-1.37625e-08
-6.97453e-08
-1.40518e-08
-6.49795e-08
-1.42935e-08
-6.01545e-08
-1.44805e-08
-5.5291e-08
-1.46045e-08
-5.04127e-08
-1.46562e-08
-4.55467e-08
-1.46255e-08
-4.0723e-08
-1.4501e-08
-3.59754e-08
-1.4271e-08
-3.13413e-08
-1.39229e-08
-2.68616e-08
-1.34441e-08
-2.258e-08
-1.28227e-08
-1.85433e-08
-1.20483e-08
-1.47992e-08
-1.11129e-08
-1.1396e-08
-1.00134e-08
-8.3798e-09
-8.75342e-09
-5.7922e-09
-7.34747e-09
-3.66697e-09
-5.82555e-09
-2.02643e-09
-4.24052e-09
-8.77871e-10
-2.6768e-09
-2.11156e-10
-1.26235e-09
-1.98666e-10
-2.69427e-10
3.86412e-10
-1.06233e-09
1.8476e-09
-2.37755e-09
3.64313e-09
-4.20569e-09
5.55908e-09
-6.52605e-09
7.46764e-09
-9.30785e-09
9.28328e-09
-1.25124e-08
1.09514e-08
-1.60959e-08
1.24409e-08
-2.00114e-08
1.37373e-08
-2.42115e-08
1.48383e-08
-2.86495e-08
1.57501e-08
-3.3281e-08
1.6484e-08
-3.80645e-08
1.70545e-08
-4.29622e-08
1.7478e-08
-4.79399e-08
1.77709e-08
-5.29672e-08
1.79494e-08
-5.80174e-08
1.80289e-08
-6.30672e-08
1.8023e-08
-6.80963e-08
1.79443e-08
-7.30873e-08
1.78034e-08
-7.80251e-08
1.76095e-08
-8.28967e-08
1.73703e-08
-8.76908e-08
1.70922e-08
-9.23975e-08
1.67803e-08
-9.7008e-08
1.64388e-08
-1.01515e-07
1.60709e-08
-1.0591e-07
1.56792e-08
-1.10188e-07
1.52655e-08
-1.14343e-07
1.48315e-08
-1.18369e-07
1.43782e-08
-1.22261e-07
1.39064e-08
-1.26013e-07
1.34168e-08
-1.2962e-07
1.29098e-08
-1.33079e-07
1.2386e-08
-1.36383e-07
1.18456e-08
-1.39529e-07
1.12889e-08
-1.42513e-07
1.07161e-08
-1.45329e-07
1.01277e-08
-1.47974e-07
9.52371e-09
-1.50443e-07
8.90461e-09
-1.52733e-07
8.27069e-09
-1.5484e-07
7.6223e-09
-1.56759e-07
6.95983e-09
-1.58487e-07
6.2837e-09
-1.60022e-07
5.59439e-09
-1.61358e-07
4.8924e-09
-1.62494e-07
4.17829e-09
-1.63425e-07
3.45264e-09
-1.6415e-07
2.71607e-09
-1.64665e-07
1.96924e-09
-1.64968e-07
1.21289e-09
-1.65057e-07
4.47765e-10
-1.6493e-07
-3.25308e-10
-1.64585e-07
-1.10547e-09
-1.64021e-07
-1.89182e-09
-1.63235e-07
-2.68338e-09
-1.62228e-07
-3.47915e-09
-1.60999e-07
-4.27805e-09
-1.59546e-07
-5.07896e-09
-1.57871e-07
-5.88068e-09
-1.55974e-07
-6.68199e-09
-1.53855e-07
-7.48156e-09
-1.51515e-07
-8.27805e-09
-1.48956e-07
-9.07004e-09
-1.46179e-07
-9.85603e-09
-1.43187e-07
-1.06345e-08
-1.39983e-07
-1.14037e-08
-1.3657e-07
-1.21619e-08
-1.32951e-07
-1.29073e-08
-1.29131e-07
-1.36377e-08
-1.25115e-07
-1.4351e-08
-1.20908e-07
-1.50448e-08
-1.16518e-07
-1.57162e-08
-1.1195e-07
-1.63621e-08
-1.07215e-07
-1.6979e-08
-1.0232e-07
-1.75627e-08
-9.72768e-08
-1.81085e-08
-9.20978e-08
-1.86109e-08
-8.67968e-08
-1.90635e-08
-8.13899e-08
-1.94587e-08
-7.58952e-08
-1.97882e-08
-7.03337e-08
-2.0042e-08
-6.4729e-08
-2.02092e-08
-5.91079e-08
-2.02773e-08
-5.35006e-08
-2.02328e-08
-4.79409e-08
-2.00607e-08
-4.24665e-08
-1.97454e-08
-3.71186e-08
-1.92708e-08
-3.19421e-08
-1.86206e-08
-2.69851e-08
-1.77797e-08
-2.22982e-08
-1.67351e-08
-1.79336e-08
-1.54776e-08
-1.39433e-08
-1.40036e-08
-1.03781e-08
-1.23187e-08
-7.28453e-09
-1.0441e-08
-4.70312e-09
-8.40696e-09
-2.66592e-09
-6.27773e-09
-1.19515e-09
-4.14757e-09
-3.03656e-10
-2.15384e-09
-5.02321e-10
-3.48962e-10
7.35376e-10
-1.3404e-09
2.83903e-09
-2.94167e-09
5.2444e-09
-5.12173e-09
7.73914e-09
-7.84495e-09
1.01909e-08
-1.10703e-08
1.25087e-08
-1.4752e-08
1.46331e-08
-1.88407e-08
1.65296e-08
-2.32855e-08
1.81821e-08
-2.80354e-08
1.95883e-08
-3.30406e-08
2.07553e-08
-3.82537e-08
2.1697e-08
-4.36302e-08
2.24311e-08
-4.91297e-08
2.29774e-08
-5.47153e-08
2.33564e-08
-6.03541e-08
2.35883e-08
-6.60171e-08
2.36919e-08
-7.16787e-08
2.36847e-08
-7.73167e-08
2.35823e-08
-8.29117e-08
2.33984e-08
-8.84468e-08
2.31447e-08
-9.39077e-08
2.28312e-08
-9.92814e-08
2.24659e-08
-1.04557e-07
2.20558e-08
-1.09724e-07
2.16061e-08
-1.14774e-07
2.11211e-08
-1.19699e-07
2.06043e-08
-1.24492e-07
2.00583e-08
-1.29146e-07
1.9485e-08
-1.33654e-07
1.88861e-08
-1.3801e-07
1.82626e-08
-1.42209e-07
1.76156e-08
-1.46245e-07
1.69457e-08
-1.50112e-07
1.62535e-08
-1.53806e-07
1.55395e-08
-1.57321e-07
1.48041e-08
-1.60653e-07
1.40478e-08
-1.63796e-07
1.32709e-08
-1.66746e-07
1.24739e-08
-1.69499e-07
1.16571e-08
-1.72049e-07
1.08211e-08
-1.74393e-07
9.96639e-09
-1.76527e-07
9.09341e-09
-1.78446e-07
8.20277e-09
-1.80147e-07
7.29511e-09
-1.81625e-07
6.37111e-09
-1.82879e-07
5.43149e-09
-1.83903e-07
4.47702e-09
-1.84695e-07
3.50854e-09
-1.85253e-07
2.52693e-09
-1.85573e-07
1.53314e-09
-1.85654e-07
5.28175e-10
-1.85492e-07
-4.86886e-10
-1.85087e-07
-1.51092e-09
-1.84436e-07
-2.54272e-09
-1.83538e-07
-3.58103e-09
-1.82393e-07
-4.62453e-09
-1.80999e-07
-5.67179e-09
-1.79357e-07
-6.72136e-09
-1.77466e-07
-7.77167e-09
-1.75327e-07
-8.82111e-09
-1.7294e-07
-9.86799e-09
-1.70308e-07
-1.09105e-08
-1.67431e-07
-1.19468e-08
-1.64312e-07
-1.2975e-08
-1.60953e-07
-1.3993e-08
-1.57358e-07
-1.49986e-08
-1.53531e-07
-1.59895e-08
-1.49475e-07
-1.69633e-08
-1.45195e-07
-1.79173e-08
-1.40698e-07
-1.88485e-08
-1.35989e-07
-1.97537e-08
-1.31076e-07
-2.06292e-08
-1.25967e-07
-2.14711e-08
-1.20671e-07
-2.22746e-08
-1.15199e-07
-2.30343e-08
-1.09564e-07
-2.37441e-08
-1.03778e-07
-2.43967e-08
-9.78577e-08
-2.49838e-08
-9.18205e-08
-2.54959e-08
-8.56866e-08
-2.5922e-08
-7.94791e-08
-2.62495e-08
-7.32238e-08
-2.64644e-08
-6.69502e-08
-2.6551e-08
-6.06909e-08
-2.6492e-08
-5.44828e-08
-2.62688e-08
-4.83663e-08
-2.5862e-08
-4.23857e-08
-2.52513e-08
-3.65891e-08
-2.44172e-08
-3.10278e-08
-2.3341e-08
-2.57556e-08
-2.20073e-08
-2.08281e-08
-2.0405e-08
-1.63014e-08
-1.85304e-08
-1.22303e-08
-1.63897e-08
-8.66725e-09
-1.40041e-08
-5.66045e-09
-1.14138e-08
-3.25296e-09
-8.68522e-09
-1.48289e-09
-5.91764e-09
-3.85523e-10
-3.25121e-09
-8.87846e-10
-4.18643e-10
1.15402e-09
-1.58956e-09
4.00994e-09
-3.45363e-09
7.10847e-09
-5.9597e-09
1.02452e-08
-9.05715e-09
1.32883e-08
-1.26941e-08
1.61456e-08
-1.68167e-08
1.87558e-08
-2.13701e-08
2.1083e-08
-2.6299e-08
2.31109e-08
-3.15487e-08
2.4838e-08
-3.70667e-08
2.62733e-08
-4.28029e-08
2.74332e-08
-4.87108e-08
2.8339e-08
-5.47474e-08
2.90141e-08
-6.0874e-08
2.94831e-08
-6.70558e-08
2.977e-08
-7.32617e-08
2.98978e-08
-7.94646e-08
2.98876e-08
-8.56406e-08
2.97583e-08
-9.17688e-08
2.95266e-08
-9.78309e-08
2.92069e-08
-1.03811e-07
2.88114e-08
-1.09696e-07
2.83503e-08
-1.15472e-07
2.78321e-08
-1.21129e-07
2.72633e-08
-1.26658e-07
2.66496e-08
-1.32048e-07
2.59951e-08
-1.37293e-07
2.53033e-08
-1.42385e-07
2.45767e-08
-1.47316e-07
2.38173e-08
-1.52081e-07
2.30268e-08
-1.56671e-07
2.22063e-08
-1.61083e-07
2.13569e-08
-1.65308e-07
2.04792e-08
-1.69343e-07
1.95741e-08
-1.73181e-07
1.86421e-08
-1.76817e-07
1.76837e-08
-1.80245e-07
1.66995e-08
-1.83462e-07
1.56902e-08
-1.86461e-07
1.46562e-08
-1.89238e-07
1.35981e-08
-1.91788e-07
1.25167e-08
-1.94107e-07
1.14126e-08
-1.96191e-07
1.02865e-08
-1.98035e-07
9.13934e-09
-1.99636e-07
7.97189e-09
-2.0099e-07
6.7851e-09
-2.02093e-07
5.57994e-09
-2.02942e-07
4.35749e-09
-2.03533e-07
3.11885e-09
-2.03866e-07
1.86525e-09
-2.03935e-07
5.97939e-10
-2.0374e-07
-6.81716e-10
-2.03279e-07
-1.97229e-09
-2.0255e-07
-3.27229e-09
-2.0155e-07
-4.58011e-09
-2.00281e-07
-5.89407e-09
-1.9874e-07
-7.21242e-09
-1.96928e-07
-8.53331e-09
-1.94845e-07
-9.85478e-09
-1.92492e-07
-1.11748e-08
-1.89868e-07
-1.24913e-08
-1.86977e-07
-1.38019e-08
-1.83819e-07
-1.51044e-08
-1.80398e-07
-1.63964e-08
-1.76716e-07
-1.76752e-08
-1.72776e-07
-1.89381e-08
-1.68584e-07
-2.01822e-08
-1.64143e-07
-2.14044e-08
-1.59458e-07
-2.26013e-08
-1.54538e-07
-2.37693e-08
-1.49387e-07
-2.49042e-08
-1.44015e-07
-2.60015e-08
-1.3843e-07
-2.7056e-08
-1.32643e-07
-2.80619e-08
-1.26665e-07
-2.90123e-08
-1.20509e-07
-2.98997e-08
-1.14191e-07
-3.07149e-08
-1.07727e-07
-3.14478e-08
-1.01137e-07
-3.20863e-08
-9.44417e-08
-3.2617e-08
-8.76667e-08
-3.30246e-08
-8.08395e-08
-3.32916e-08
-7.39915e-08
-3.33991e-08
-6.71575e-08
-3.3326e-08
-6.03765e-08
-3.30499e-08
-5.36912e-08
-3.25473e-08
-4.71484e-08
-3.17941e-08
-4.07987e-08
-3.07669e-08
-3.46959e-08
-2.94439e-08
-2.88967e-08
-2.78065e-08
-2.34598e-08
-2.58419e-08
-1.8445e-08
-2.35451e-08
-1.39119e-08
-2.09228e-08
-9.91897e-09
-1.7997e-08
-6.52266e-09
-1.48101e-08
-3.77742e-09
-1.14305e-08
-1.73675e-09
-7.95831e-09
-4.56167e-10
-4.5318e-09
-1.34401e-09
-4.78873e-10
1.63289e-09
-1.80891e-09
5.33998e-09
-3.9097e-09
9.20926e-09
-6.71222e-09
1.30477e-08
-1.01518e-08
1.67279e-08
-1.41657e-08
2.01595e-08
-1.86921e-08
2.32822e-08
-2.367e-08
2.60609e-08
-2.90395e-08
2.84804e-08
-3.47425e-08
3.0541e-08
-4.07236e-08
3.22544e-08
-4.69304e-08
3.364e-08
-5.33143e-08
3.47229e-08
-5.98307e-08
3.55305e-08
-6.64391e-08
3.60914e-08
-7.31031e-08
3.6434e-08
-7.97903e-08
3.6585e-08
-8.64721e-08
3.65694e-08
-9.31233e-08
3.64095e-08
-9.9722e-08
3.61252e-08
-1.06249e-07
3.57335e-08
-1.12686e-07
3.52491e-08
-1.1902e-07
3.46842e-08
-1.25237e-07
3.40489e-08
-1.31325e-07
3.33515e-08
-1.37274e-07
3.25984e-08
-1.43074e-07
3.1795e-08
-1.48716e-07
3.09454e-08
-1.54192e-07
3.00529e-08
-1.59495e-07
2.912e-08
-1.64617e-07
2.81487e-08
-1.69551e-07
2.71406e-08
-1.74291e-07
2.60969e-08
-1.78831e-07
2.50187e-08
-1.83164e-07
2.39069e-08
-1.87284e-07
2.27623e-08
-1.91186e-07
2.15855e-08
-1.94864e-07
2.03774e-08
-1.98312e-07
1.91387e-08
-2.01526e-07
1.78701e-08
-2.045e-07
1.65724e-08
-2.0723e-07
1.52464e-08
-2.09711e-07
1.3893e-08
-2.11937e-07
1.25131e-08
-2.13906e-07
1.11078e-08
-2.15612e-07
9.67806e-09
-2.17052e-07
8.22506e-09
-2.18222e-07
6.75002e-09
-2.19119e-07
5.25423e-09
-2.19739e-07
3.73908e-09
-2.2008e-07
2.20604e-09
-2.20138e-07
6.56668e-10
-2.19913e-07
-9.07382e-10
-2.19401e-07
-2.48437e-09
-2.18601e-07
-4.07245e-09
-2.17511e-07
-5.66969e-09
-2.16131e-07
-7.27404e-09
-2.1446e-07
-8.88336e-09
-2.12498e-07
-1.04954e-08
-2.10245e-07
-1.21078e-08
-2.07702e-07
-1.3718e-08
-2.0487e-07
-1.53235e-08
-2.0175e-07
-1.69216e-08
-1.98345e-07
-1.85094e-08
-1.94657e-07
-2.0084e-08
-1.9069e-07
-2.16422e-08
-1.86448e-07
-2.31807e-08
-1.81934e-07
-2.46959e-08
-1.77154e-07
-2.6184e-08
-1.72114e-07
-2.7641e-08
-1.66821e-07
-2.90623e-08
-1.61283e-07
-3.04428e-08
-1.55507e-07
-3.17771e-08
-1.49504e-07
-3.30589e-08
-1.43285e-07
-3.4281e-08
-1.36862e-07
-3.54352e-08
-1.3025e-07
-3.65122e-08
-1.23463e-07
-3.75011e-08
-1.16522e-07
-3.83895e-08
-1.09445e-07
-3.91632e-08
-1.02256e-07
-3.98059e-08
-9.49811e-08
-4.02994e-08
-8.76496e-08
-4.06231e-08
-8.02943e-08
-4.07543e-08
-7.2952e-08
-4.06683e-08
-6.56631e-08
-4.03388e-08
-5.84724e-08
-3.9738e-08
-5.14285e-08
-3.8838e-08
-4.45841e-08
-3.76113e-08
-3.79954e-08
-3.60326e-08
-3.17217e-08
-3.40802e-08
-2.58248e-08
-3.17388e-08
-2.03681e-08
-2.90018e-08
-1.54162e-08
-2.58748e-08
-1.10338e-08
-2.23794e-08
-7.28583e-09
-1.85581e-08
-4.23766e-09
-1.44786e-08
-1.95685e-09
-1.02391e-08
-5.16225e-10
-5.97243e-09
-1.86024e-09
-5.30421e-10
2.16331e-09
-1.99979e-09
6.80936e-09
-4.3108e-09
1.15203e-08
-7.37926e-09
1.61162e-08
-1.11278e-08
2.04764e-08
-1.54835e-08
2.45151e-08
-2.03766e-08
2.81753e-08
-2.57399e-08
3.14243e-08
-3.1509e-08
3.42495e-08
-3.76221e-08
3.66541e-08
-4.40209e-08
3.86532e-08
-5.06509e-08
4.02701e-08
-5.74616e-08
4.15336e-08
-6.44068e-08
4.24757e-08
-7.14446e-08
4.31293e-08
-7.85374e-08
4.35268e-08
-8.56517e-08
4.36993e-08
-9.27577e-08
4.36754e-08
-9.98292e-08
4.34811e-08
-1.06843e-07
4.31393e-08
-1.1378e-07
4.267e-08
-1.20621e-07
4.20901e-08
-1.27351e-07
4.1414e-08
-1.33955e-07
4.06536e-08
-1.40422e-07
3.98186e-08
-1.46741e-07
3.89168e-08
-1.529e-07
3.79544e-08
-1.58891e-07
3.69365e-08
-1.64705e-07
3.58669e-08
-1.70334e-07
3.47488e-08
-1.7577e-07
3.35846e-08
-1.81006e-07
3.23763e-08
-1.86034e-07
3.11255e-08
-1.90849e-07
2.98333e-08
-1.95443e-07
2.85011e-08
-1.99811e-07
2.71298e-08
-2.03945e-07
2.57203e-08
-2.07842e-07
2.42736e-08
-2.11493e-07
2.27906e-08
-2.14895e-07
2.12722e-08
-2.18042e-07
1.97193e-08
-2.20929e-07
1.8133e-08
-2.2355e-07
1.65144e-08
-2.25902e-07
1.48645e-08
-2.27979e-07
1.31847e-08
-2.29777e-07
1.14761e-08
-2.31292e-07
9.74025e-09
-2.3252e-07
7.97848e-09
-2.33458e-07
6.19239e-09
-2.34103e-07
4.38364e-09
-2.34451e-07
2.55398e-09
-2.345e-07
7.05276e-10
-2.34246e-07
-1.16051e-09
-2.3369e-07
-3.04131e-09
-2.32827e-07
-4.93491e-09
-2.31658e-07
-6.83902e-09
-2.30181e-07
-8.75121e-09
-2.28395e-07
-1.06689e-08
-2.26301e-07
-1.25895e-08
-2.23899e-07
-1.45101e-08
-2.21189e-07
-1.64278e-08
-2.18173e-07
-1.83395e-08
-2.14853e-07
-2.0242e-08
-2.1123e-07
-2.21319e-08
-2.07308e-07
-2.40057e-08
-2.03091e-07
-2.58597e-08
-1.98582e-07
-2.76898e-08
-1.93786e-07
-2.94919e-08
-1.88708e-07
-3.12615e-08
-1.83356e-07
-3.29935e-08
-1.77735e-07
-3.46826e-08
-1.71855e-07
-3.6323e-08
-1.65724e-07
-3.79079e-08
-1.59354e-07
-3.94299e-08
-1.52754e-07
-4.08805e-08
-1.45939e-07
-4.225e-08
-1.38924e-07
-4.35274e-08
-1.31725e-07
-4.46999e-08
-1.24362e-07
-4.57529e-08
-1.16855e-07
-4.66697e-08
-1.0923e-07
-4.74313e-08
-1.01513e-07
-4.80165e-08
-9.37347e-08
-4.84014e-08
-8.59294e-08
-4.85596e-08
-7.81351e-08
-4.84626e-08
-7.03939e-08
-4.808e-08
-6.27519e-08
-4.73799e-08
-5.52597e-08
-4.63302e-08
-4.79717e-08
-4.48993e-08
-4.09461e-08
-4.30581e-08
-3.42449e-08
-4.07814e-08
-2.7933e-08
-3.80508e-08
-2.20776e-08
-3.48572e-08
-1.67482e-08
-3.12042e-08
-1.20158e-08
-2.71117e-08
-7.95355e-09
-2.26203e-08
-4.63685e-09
-1.77953e-08
-2.14559e-09
-1.27304e-08
-5.66824e-10
-7.5512e-09
-2.42706e-09
-5.74389e-10
2.73771e-09
-2.16477e-09
8.39975e-09
-4.66068e-09
1.40162e-08
-7.96533e-09
1.94209e-08
-1.19904e-08
2.45015e-08
-1.66535e-08
2.91783e-08
-2.18775e-08
3.33993e-08
-2.75892e-08
3.7136e-08
-3.37194e-08
4.03796e-08
-4.02028e-08
4.31375e-08
-4.69782e-08
4.54286e-08
-5.3989e-08
4.72808e-08
-6.11828e-08
4.87274e-08
-6.85119e-08
4.98049e-08
-7.59334e-08
5.05507e-08
-8.34084e-08
5.10018e-08
-9.09025e-08
5.11934e-08
-9.83852e-08
5.11581e-08
-1.05829e-07
5.09253e-08
-1.13211e-07
5.05213e-08
-1.2051e-07
4.99688e-08
-1.27707e-07
4.92873e-08
-1.34787e-07
4.84933e-08
-1.41733e-07
4.76004e-08
-1.48535e-07
4.66199e-08
-1.55179e-07
4.55608e-08
-1.61655e-07
4.44305e-08
-1.67953e-07
4.32348e-08
-1.74065e-07
4.19783e-08
-1.7998e-07
4.06647e-08
-1.85693e-07
3.92969e-08
-1.91194e-07
3.78773e-08
-1.96476e-07
3.64078e-08
-2.01533e-07
3.489e-08
-2.06357e-07
3.33253e-08
-2.10942e-07
3.1715e-08
-2.15282e-07
3.00601e-08
-2.1937e-07
2.83619e-08
-2.23201e-07
2.66214e-08
-2.26769e-07
2.48398e-08
-2.30068e-07
2.30182e-08
-2.33093e-07
2.11579e-08
-2.35838e-07
1.926e-08
-2.383e-07
1.7326e-08
-2.40473e-07
1.53574e-08
-2.42352e-07
1.33555e-08
-2.43934e-07
1.13221e-08
-2.45214e-07
9.25889e-09
-2.46189e-07
7.16763e-09
-2.46856e-07
5.0503e-09
-2.47211e-07
2.90895e-09
-2.47252e-07
7.4575e-10
-2.46975e-07
-1.437e-09
-2.46379e-07
-3.63688e-09
-2.45463e-07
-5.85133e-09
-2.44224e-07
-8.07766e-09
-2.42663e-07
-1.0313e-08
-2.40777e-07
-1.25545e-08
-2.38568e-07
-1.47989e-08
-2.36035e-07
-1.7043e-08
-2.33179e-07
-1.92833e-08
-2.30002e-07
-2.15164e-08
-2.26506e-07
-2.37383e-08
-2.22692e-07
-2.59453e-08
-2.18565e-07
-2.81331e-08
-2.14127e-07
-3.02973e-08
-2.09384e-07
-3.24334e-08
-2.04339e-07
-3.45365e-08
-1.99e-07
-3.66011e-08
-1.93372e-07
-3.86217e-08
-1.87462e-07
-4.05918e-08
-1.81281e-07
-4.25045e-08
-1.74837e-07
-4.43522e-08
-1.6814e-07
-4.61261e-08
-1.61204e-07
-4.78163e-08
-1.54043e-07
-4.94117e-08
-1.46671e-07
-5.08993e-08
-1.39106e-07
-5.22644e-08
-1.31369e-07
-5.34903e-08
-1.23481e-07
-5.45577e-08
-1.15467e-07
-5.54449e-08
-1.07356e-07
-5.61275e-08
-9.91796e-08
-5.65781e-08
-9.09724e-08
-5.67669e-08
-8.27738e-08
-5.66612e-08
-7.46271e-08
-5.62266e-08
-6.65801e-08
-5.5427e-08
-5.86845e-08
-5.42257e-08
-5.09968e-08
-5.25871e-08
-4.35772e-08
-5.04776e-08
-3.64903e-08
-4.78684e-08
-2.98038e-08
-4.47372e-08
-2.35892e-08
-4.10718e-08
-1.79206e-08
-3.68727e-08
-1.28754e-08
-3.2157e-08
-8.53389e-09
-2.69618e-08
-4.98082e-09
-2.13484e-08
-2.30646e-09
-1.54047e-08
-6.09258e-10
-9.2484e-09
-3.03632e-09
-6.11894e-10
3.3496e-09
-2.30682e-09
1.00947e-08
-4.96442e-09
1.66738e-08
-8.4776e-09
2.2934e-08
-1.27486e-08
2.87725e-08
-1.7687e-08
3.41167e-08
-2.32084e-08
3.89207e-08
-2.9234e-08
4.31616e-08
-3.56901e-08
4.68357e-08
-4.25076e-08
4.99551e-08
-4.96228e-08
5.25438e-08
-5.69766e-08
5.46346e-08
-6.45151e-08
5.62658e-08
-7.21891e-08
5.74789e-08
-7.99544e-08
5.8316e-08
-8.77714e-08
5.88188e-08
-9.56048e-08
5.90268e-08
-1.03423e-07
5.89765e-08
-1.11199e-07
5.87013e-08
-1.18908e-07
5.82303e-08
-1.26529e-07
5.75894e-08
-1.34042e-07
5.68006e-08
-1.41431e-07
5.58824e-08
-1.48681e-07
5.48503e-08
-1.55778e-07
5.37171e-08
-1.62711e-07
5.24932e-08
-1.69467e-07
5.11869e-08
-1.76037e-07
4.9805e-08
-1.82412e-07
4.83527e-08
-1.88582e-07
4.68345e-08
-1.94538e-07
4.52537e-08
-2.00274e-07
4.36131e-08
-2.05781e-07
4.19149e-08
-2.11052e-07
4.01611e-08
-2.1608e-07
3.83533e-08
-2.20858e-07
3.6493e-08
-2.2538e-07
3.45817e-08
-2.29639e-07
3.26207e-08
-2.33629e-07
3.06112e-08
-2.37343e-07
2.85547e-08
-2.40778e-07
2.64525e-08
-2.43926e-07
2.43059e-08
-2.46782e-07
2.21166e-08
-2.49342e-07
1.98861e-08
-2.51601e-07
1.76161e-08
-2.53554e-07
1.53082e-08
-2.55196e-07
1.29645e-08
-2.56524e-07
1.05868e-08
-2.57534e-07
8.17734e-09
-2.58222e-07
5.73827e-09
-2.58585e-07
3.27197e-09
-2.5862e-07
7.80936e-10
-2.58325e-07
-1.73219e-09
-2.57697e-07
-4.26464e-09
-2.56735e-07
-6.81347e-09
-2.55437e-07
-9.37559e-09
-2.53802e-07
-1.19478e-08
-2.5183e-07
-1.45266e-08
-2.49521e-07
-1.71084e-08
-2.46874e-07
-1.96896e-08
-2.43891e-07
-2.22662e-08
-2.40574e-07
-2.48341e-08
-2.36923e-07
-2.73889e-08
-2.32942e-07
-2.99261e-08
-2.28634e-07
-3.24411e-08
-2.24003e-07
-3.49287e-08
-2.19052e-07
-3.73837e-08