/*--------------------------------*- C++ -*----------------------------------*\
  =========                 |
  \\      /  F ield         | OpenFOAM: The Open Source CFD Toolbox
   \\    /   O peration     | Website:  https://openfoam.org
    \\  /    A nd           | Version:  7
     \\/     M anipulation  |
\*---------------------------------------------------------------------------*/
FoamFile
{
    version     2.0;
    format      ascii;
    class       volVectorField;
    location    "0.09375";
    object      U;
}
// * * * * * * * * * * * * * * * * * * * * * * * * * * * * * * * * * * * * * //

dimensions      [0 1 -1 0 0 0 0];

internalField   nonuniform List<vector> 
10000
(
(5.27849e-06 -2.13025e-06 0)
(1.04066e-05 -2.13554e-06 0)
(1.33193e-05 -9.87201e-07 0)
(7.22008e-06 1.80622e-06 0)
(-6.82573e-06 4.67932e-06 0)
(-2.96083e-05 7.43529e-06 0)
(-6.02898e-05 9.88464e-06 0)
(-9.79144e-05 1.19592e-05 0)
(-0.000141416 1.36696e-05 0)
(-0.000189796 1.50426e-05 0)
(-0.000242115 1.60969e-05 0)
(-0.000297512 1.68829e-05 0)
(-0.000355254 1.74643e-05 0)
(-0.000414709 1.78719e-05 0)
(-0.000475331 1.81302e-05 0)
(-0.000536657 1.8269e-05 0)
(-0.000598305 1.83027e-05 0)
(-0.000659953 1.82329e-05 0)
(-0.000721334 1.80768e-05 0)
(-0.000782231 1.78696e-05 0)
(-0.00084247 1.76402e-05 0)
(-0.000901909 1.73936e-05 0)
(-0.000960428 1.7118e-05 0)
(-0.00101792 1.68014e-05 0)
(-0.00107429 1.64472e-05 0)
(-0.00112946 1.60725e-05 0)
(-0.00118336 1.56921e-05 0)
(-0.00123594 1.53068e-05 0)
(-0.00128712 1.49074e-05 0)
(-0.00133686 1.44859e-05 0)
(-0.00138509 1.40416e-05 0)
(-0.00143175 1.35786e-05 0)
(-0.0014768 1.31015e-05 0)
(-0.00152017 1.2612e-05 0)
(-0.00156181 1.21088e-05 0)
(-0.00160166 1.15888e-05 0)
(-0.00163967 1.10494e-05 0)
(-0.00167578 1.04902e-05 0)
(-0.00170993 9.91265e-06 0)
(-0.00174207 9.31783e-06 0)
(-0.00177214 8.70632e-06 0)
(-0.00180009 8.07847e-06 0)
(-0.00182586 7.43465e-06 0)
(-0.0018494 6.77477e-06 0)
(-0.00187065 6.09832e-06 0)
(-0.00188958 5.40518e-06 0)
(-0.00190612 4.69652e-06 0)
(-0.00192024 3.97427e-06 0)
(-0.00193188 3.23989e-06 0)
(-0.00194101 2.49367e-06 0)
(-0.00194759 1.73514e-06 0)
(-0.00195157 9.64164e-07 0)
(-0.00195292 1.81531e-07 0)
(-0.00195162 -6.11474e-07 0)
(-0.00194762 -1.41351e-06 0)
(-0.00194091 -2.22354e-06 0)
(-0.00193146 -3.04084e-06 0)
(-0.00191925 -3.86484e-06 0)
(-0.00190427 -4.6948e-06 0)
(-0.0018865 -5.52966e-06 0)
(-0.00186593 -6.36777e-06 0)
(-0.00184257 -7.207e-06 0)
(-0.00181641 -8.04527e-06 0)
(-0.00178747 -8.88094e-06 0)
(-0.00175575 -9.71283e-06 0)
(-0.00172127 -1.05399e-05 0)
(-0.00168405 -1.13605e-05 0)
(-0.00164413 -1.21727e-05 0)
(-0.00160154 -1.2974e-05 0)
(-0.00155632 -1.3762e-05 0)
(-0.00150852 -1.45344e-05 0)
(-0.0014582 -1.52892e-05 0)
(-0.00140542 -1.60242e-05 0)
(-0.00135026 -1.6737e-05 0)
(-0.0012928 -1.74242e-05 0)
(-0.00123314 -1.8082e-05 0)
(-0.0011714 -1.87055e-05 0)
(-0.0011077 -1.92891e-05 0)
(-0.00104219 -1.98263e-05 0)
(-0.000975054 -2.0309e-05 0)
(-0.000906489 -2.07278e-05 0)
(-0.000836737 -2.10713e-05 0)
(-0.000766074 -2.13264e-05 0)
(-0.000694827 -2.14772e-05 0)
(-0.000623374 -2.15053e-05 0)
(-0.000552157 -2.13892e-05 0)
(-0.000481686 -2.11049e-05 0)
(-0.000412549 -2.0625e-05 0)
(-0.00034542 -1.99184e-05 0)
(-0.000281064 -1.89492e-05 0)
(-0.000220343 -1.76773e-05 0)
(-0.000164219 -1.60613e-05 0)
(-0.000113746 -1.40595e-05 0)
(-7.00603e-05 -1.16313e-05 0)
(-3.43427e-05 -8.74532e-06 0)
(-7.71702e-06 -5.41165e-06 0)
(8.80326e-06 -1.76017e-06 0)
(1.48124e-05 1.9112e-06 0)
(1.17061e-05 4.63755e-06 0)
(4.09085e-06 4.08734e-06 0)
(6.65568e-06 -1.1346e-05 0)
(1.18375e-05 -6.70306e-06 0)
(3.04071e-06 5.10083e-06 0)
(-2.45424e-05 2.11538e-05 0)
(-7.3146e-05 3.77496e-05 0)
(-0.000142708 5.35449e-05 0)
(-0.000231841 6.77911e-05 0)
(-0.000338461 8.01807e-05 0)
(-0.00046029 9.06473e-05 0)
(-0.000594966 9.92548e-05 0)
(-0.000740201 0.000106149 0)
(-0.000893899 0.000111508 0)
(-0.00105416 0.000115529 0)
(-0.00121932 0.000118395 0)
(-0.0013879 0.000120275 0)
(-0.00155865 0.00012133 0)
(-0.00173049 0.000121696 0)
(-0.00190252 0.000121475 0)
(-0.00207399 0.000120758 0)
(-0.00224426 0.000119642 0)
(-0.00241282 0.000118212 0)
(-0.00257922 0.000116525 0)
(-0.0027431 0.000114616 0)
(-0.00290413 0.000112508 0)
(-0.00306205 0.000110222 0)
(-0.0032166 0.000107781 0)
(-0.00336758 0.000105207 0)
(-0.0035148 0.000102514 0)
(-0.00365808 9.97071e-05 0)
(-0.00379724 9.67851e-05 0)
(-0.0039321 9.37463e-05 0)
(-0.0040625 9.05904e-05 0)
(-0.00418829 8.73206e-05 0)
(-0.00430932 8.3942e-05 0)
(-0.00442541 8.04567e-05 0)
(-0.0045364 7.68621e-05 0)
(-0.00464215 7.31541e-05 0)
(-0.0047425 6.93318e-05 0)
(-0.0048373 6.5397e-05 0)
(-0.00492639 6.1352e-05 0)
(-0.00500961 5.71987e-05 0)
(-0.00508683 5.29389e-05 0)
(-0.00515789 4.85745e-05 0)
(-0.00522266 4.41076e-05 0)
(-0.00528099 3.95406e-05 0)
(-0.00533276 3.48764e-05 0)
(-0.00537784 3.01196e-05 0)
(-0.00541609 2.52753e-05 0)
(-0.00544741 2.03479e-05 0)
(-0.00547169 1.53407e-05 0)
(-0.00548881 1.02573e-05 0)
(-0.00549869 5.10233e-06 0)
(-0.00550123 -1.18308e-07 0)
(-0.00549635 -5.39831e-06 0)
(-0.00548397 -1.07318e-05 0)
(-0.00546403 -1.61133e-05 0)
(-0.00543647 -2.15365e-05 0)
(-0.00540125 -2.69947e-05 0)
(-0.00535832 -3.24798e-05 0)
(-0.00530767 -3.79836e-05 0)
(-0.00524927 -4.34969e-05 0)
(-0.00518313 -4.90102e-05 0)
(-0.00510926 -5.45133e-05 0)
(-0.00502768 -5.99962e-05 0)
(-0.00493844 -6.54489e-05 0)
(-0.00484159 -7.0861e-05 0)
(-0.0047372 -7.62211e-05 0)
(-0.00462536 -8.15166e-05 0)
(-0.00450617 -8.67341e-05 0)
(-0.00437976 -9.18593e-05 0)
(-0.00424627 -9.68775e-05 0)
(-0.00410586 -0.000101773 0)
(-0.00395873 -0.00010653 0)
(-0.0038051 -0.000111127 0)
(-0.0036452 -0.000115543 0)
(-0.00347934 -0.000119749 0)
(-0.00330782 -0.000123713 0)
(-0.00313103 -0.000127397 0)
(-0.0029494 -0.000130756 0)
(-0.00276343 -0.000133739 0)
(-0.00257371 -0.000136282 0)
(-0.0023809 -0.000138312 0)
(-0.00218581 -0.000139744 0)
(-0.00198933 -0.00014048 0)
(-0.00179252 -0.000140407 0)
(-0.00159659 -0.000139396 0)
(-0.00140295 -0.000137305 0)
(-0.00121316 -0.000133976 0)
(-0.00102903 -0.000129243 0)
(-0.000852547 -0.000122927 0)
(-0.000685934 -0.000114845 0)
(-0.000531597 -0.000104825 0)
(-0.000392095 -9.27168e-05 0)
(-0.000270068 -7.84316e-05 0)
(-0.000168093 -6.19981e-05 0)
(-8.84436e-05 -4.36987e-05 0)
(-3.27237e-05 -2.43375e-05 0)
(-1.11793e-06 -5.56703e-06 0)
(9.02535e-06 8.99732e-06 0)
(4.63629e-06 1.17137e-05 0)
(3.18525e-06 -1.55657e-05 0)
(-1.47401e-06 -6.91031e-07 0)
(-2.90693e-05 3.33673e-05 0)
(-8.53924e-05 7.47039e-05 0)
(-0.000172135 0.000117505 0)
(-0.000289029 0.000158493 0)
(-0.000434212 0.000195904 0)
(-0.000604997 0.000228837 0)
(-0.000798254 0.000257007 0)
(-0.00101072 0.0002805 0)
(-0.00123917 0.000299573 0)
(-0.00148059 0.000314609 0)
(-0.00173217 0.00032605 0)
(-0.00199143 0.000334332 0)
(-0.00225614 0.000339881 0)
(-0.0025244 0.000343105 0)
(-0.00279453 0.000344368 0)
(-0.00306514 0.000343977 0)
(-0.00333501 0.000342196 0)
(-0.00360313 0.000339258 0)
(-0.00386865 0.000335358 0)
(-0.00413086 0.000330654 0)
(-0.00438914 0.000325269 0)
(-0.00464299 0.000319303 0)
(-0.00489192 0.000312828 0)
(-0.00513555 0.000305898 0)
(-0.00537352 0.000298557 0)
(-0.00560551 0.000290837 0)
(-0.00583121 0.000282764 0)
(-0.00605034 0.000274353 0)
(-0.00626262 0.000265613 0)
(-0.00646779 0.000256544 0)
(-0.00666558 0.000247152 0)
(-0.00685576 0.000237442 0)
(-0.00703806 0.000227419 0)
(-0.00721224 0.000217084 0)
(-0.00737805 0.000206437 0)
(-0.00753526 0.000195478 0)
(-0.00768362 0.00018421 0)
(-0.00782291 0.000172638 0)
(-0.00795288 0.000160766 0)
(-0.00807332 0.000148601 0)
(-0.008184 0.000136148 0)
(-0.00828471 0.000123415 0)
(-0.00837524 0.000110409 0)
(-0.0084554 9.71396e-05 0)
(-0.00852497 8.36177e-05 0)
(-0.00858378 6.98552e-05 0)
(-0.00863165 5.58637e-05 0)
(-0.0086684 4.16544e-05 0)
(-0.0086939 2.72396e-05 0)
(-0.00870798 1.26334e-05 0)
(-0.00871052 -2.14821e-06 0)
(-0.00870139 -1.70884e-05 0)
(-0.00868048 -3.21704e-05 0)
(-0.0086477 -4.73767e-05 0)
(-0.00860296 -6.26889e-05 0)
(-0.00854621 -7.80865e-05 0)
(-0.00847739 -9.35473e-05 0)
(-0.00839648 -0.000109048 0)
(-0.00830346 -0.000124563 0)
(-0.00819834 -0.000140068 0)
(-0.00808114 -0.000155534 0)
(-0.00795192 -0.000170935 0)
(-0.00781074 -0.00018624 0)
(-0.00765771 -0.000201421 0)
(-0.00749293 -0.000216444 0)
(-0.00731656 -0.000231276 0)
(-0.00712877 -0.00024588 0)
(-0.00692975 -0.000260216 0)
(-0.00671973 -0.000274243 0)
(-0.00649899 -0.000287916 0)
(-0.00626783 -0.000301183 0)
(-0.0060266 -0.000313987 0)
(-0.00577571 -0.000326262 0)
(-0.0055156 -0.000337928 0)
(-0.0052468 -0.000348893 0)
(-0.00496991 -0.000359051 0)
(-0.00468563 -0.000368273 0)
(-0.00439476 -0.000376412 0)
(-0.00409821 -0.000383293 0)
(-0.00379705 -0.000388712 0)
(-0.00349253 -0.000392435 0)
(-0.00318606 -0.000394193 0)
(-0.00287927 -0.000393681 0)
(-0.00257404 -0.000390559 0)
(-0.00227249 -0.000384453 0)
(-0.00197703 -0.00037496 0)
(-0.00169034 -0.000361658 0)
(-0.00141538 -0.000344118 0)
(-0.00115539 -0.000321927 0)
(-0.000913826 -0.000294723 0)
(-0.000694298 -0.000262253 0)
(-0.00050042 -0.000224469 0)
(-0.000335613 -0.000181683 0)
(-0.000202783 -0.00013485 0)
(-0.000103814 -8.60413e-05 0)
(-3.88218e-05 -3.91364e-05 0)
(-5.41661e-06 -1.13254e-06 0)
(1.92466e-06 1.48353e-05 0)
(-4.8618e-07 -1.28288e-05 0)
(-1.85637e-05 2.43185e-05 0)
(-7.08276e-05 8.88381e-05 0)
(-0.000160129 0.000164111 0)
(-0.000287286 0.00024147 0)
(-0.000451589 0.000315751 0)
(-0.000650849 0.000383886 0)
(-0.000881857 0.000444304 0)
(-0.0011409 0.000496392 0)
(-0.00142409 0.000540155 0)
(-0.00172758 0.000575975 0)
(-0.00204763 0.000604457 0)
(-0.00238081 0.000626319 0)
(-0.00272398 0.00064231 0)
(-0.00307432 0.000653177 0)
(-0.00342938 0.000659628 0)
(-0.00378701 0.000662311 0)
(-0.00414539 0.000661809 0)
(-0.00450291 0.000658628 0)
(-0.00485824 0.000653196 0)
(-0.00521021 0.000645866 0)
(-0.00555786 0.000636928 0)
(-0.00590035 0.000626626 0)
(-0.00623697 0.000615159 0)
(-0.0065671 0.000602679 0)
(-0.00689017 0.000589294 0)
(-0.00720571 0.000575086 0)
(-0.00751325 0.000560118 0)
(-0.00781238 0.000544442 0)
(-0.00810271 0.000528094 0)
(-0.00838386 0.000511097 0)
(-0.00865547 0.000493464 0)
(-0.00891721 0.000475205 0)
(-0.00916873 0.000456332 0)
(-0.0094097 0.000436851 0)
(-0.00963978 0.00041677 0)
(-0.00985866 0.000396093 0)
(-0.010066 0.000374825 0)
(-0.0102616 0.000352972 0)
(-0.010445 0.000330545 0)
(-0.010616 0.000307553 0)
(-0.0107742 0.000284008 0)
(-0.0109195 0.000259922 0)
(-0.0110514 0.000235309 0)
(-0.0111698 0.000210185 0)
(-0.0112744 0.000184567 0)
(-0.011365 0.000158477 0)
(-0.0114412 0.000131937 0)
(-0.0115029 0.000104968 0)
(-0.0115499 7.75931e-05 0)
(-0.0115819 4.98374e-05 0)
(-0.0115988 2.17288e-05 0)
(-0.0116005 -6.70246e-06 0)
(-0.0115867 -3.54246e-05 0)
(-0.0115573 -6.44045e-05 0)
(-0.0115122 -9.36076e-05 0)
(-0.0114514 -0.000122997 0)
(-0.0113746 -0.000152534 0)
(-0.011282 -0.000182176 0)
(-0.0111734 -0.000211878 0)
(-0.0110489 -0.000241593 0)
(-0.0109085 -0.000271272 0)
(-0.0107521 -0.000300865 0)
(-0.01058 -0.000330319 0)
(-0.0103921 -0.000359577 0)
(-0.0101887 -0.000388582 0)
(-0.00996982 -0.000417272 0)
(-0.00973576 -0.000445581 0)
(-0.00948673 -0.000473441 0)
(-0.00922299 -0.000500776 0)
(-0.00894487 -0.000527506 0)
(-0.00865271 -0.000553541 0)
(-0.00834695 -0.000578781 0)
(-0.00802804 -0.000603114 0)
(-0.00769654 -0.000626409 0)
(-0.00735304 -0.000648515 0)
(-0.00699827 -0.000669255 0)
(-0.00663301 -0.000688421 0)
(-0.00625821 -0.000705772 0)
(-0.00587492 -0.000721024 0)
(-0.00548436 -0.000733846 0)
(-0.00508795 -0.000743855 0)
(-0.0046873 -0.000750612 0)
(-0.00428428 -0.000753618 0)
(-0.00388101 -0.000752311 0)
(-0.00347989 -0.000746072 0)
(-0.00308365 -0.000734229 0)
(-0.00269535 -0.000716065 0)
(-0.00231836 -0.000690845 0)
(-0.00195638 -0.000657844 0)
(-0.0016134 -0.00061639 0)
(-0.00129363 -0.000565941 0)
(-0.0010014 -0.000506186 0)
(-0.000740984 -0.000437216 0)
(-0.000516378 -0.000359774 0)
(-0.000330966 -0.000275662 0)
(-0.000187002 -0.000188378 0)
(-8.49637e-05 -0.000103981 0)
(-2.38496e-05 -3.24564e-05 0)
(-1.6736e-06 8.96208e-06 0)
(-4.13026e-06 5.53819e-07 0)
(-3.65077e-05 7.12516e-05 0)
(-0.000115255 0.000174669 0)
(-0.000239148 0.000290968 0)
(-0.000407233 0.000409276 0)
(-0.000618208 0.000522663 0)
(-0.000869339 0.000626936 0)
(-0.00115693 0.000719812 0)
(-0.00147682 0.000800303 0)
(-0.00182465 0.000868295 0)
(-0.00219605 0.000924273 0)
(-0.00258684 0.000969046 0)
(-0.00299306 0.00100362 0)
(-0.00341112 0.00102911 0)
(-0.00383775 0.00104659 0)
(-0.00427004 0.00105713 0)
(-0.00470547 0.00106169 0)
(-0.00514182 0.00106115 0)
(-0.00557721 0.0010563 0)
(-0.00600998 0.0010478 0)
(-0.00643875 0.00103623 0)
(-0.00686232 0.00102204 0)
(-0.00727963 0.0010056 0)
(-0.00768979 0.000987237 0)
(-0.00809202 0.000967186 0)
(-0.00848565 0.000945637 0)
(-0.00887004 0.000922735 0)
(-0.00924463 0.000898586 0)
(-0.00960889 0.000873272 0)
(-0.00996232 0.00084685 0)
(-0.0103045 0.000819364 0)
(-0.0106349 0.000790845 0)
(-0.0109532 0.000761318 0)
(-0.0112589 0.000730802 0)
(-0.0115516 0.000699311 0)
(-0.011831 0.000666857 0)
(-0.0120966 0.000633453 0)
(-0.0123481 0.000599109 0)
(-0.012585 0.000563841 0)
(-0.0128071 0.000527664 0)
(-0.0130139 0.000490597 0)
(-0.0132051 0.000452658 0)
(-0.0133804 0.000413869 0)
(-0.0135395 0.000374252 0)
(-0.0136819 0.000333833 0)
(-0.0138075 0.000292643 0)
(-0.013916 0.000250714 0)
(-0.0140069 0.00020808 0)
(-0.0140802 0.000164777 0)
(-0.0141355 0.000120843 0)
(-0.0141726 7.63193e-05 0)
(-0.0141913 3.1251e-05 0)
(-0.0141914 -1.43141e-05 0)
(-0.0141727 -6.03254e-05 0)
(-0.0141351 -0.000106729 0)
(-0.0140784 -0.000153469 0)
(-0.0140026 -0.000200485 0)
(-0.0139075 -0.000247714 0)
(-0.0137931 -0.00029509 0)
(-0.0136594 -0.000342541 0)
(-0.0135064 -0.000389994 0)
(-0.0133341 -0.00043737 0)
(-0.0131426 -0.000484588 0)
(-0.0129319 -0.000531564 0)
(-0.0127023 -0.00057821 0)
(-0.0124538 -0.000624433 0)
(-0.0121868 -0.000670134 0)
(-0.0119014 -0.00071521 0)
(-0.0115979 -0.00075955 0)
(-0.0112767 -0.000803032 0)
(-0.0109382 -0.000845527 0)
(-0.0105827 -0.000886891 0)
(-0.010211 -0.000926963 0)
(-0.00982339 -0.000965559 0)
(-0.0094207 -0.00100247 0)
(-0.00900365 -0.00103745 0)
(-0.0085731 -0.00107022 0)
(-0.00813004 -0.00110045 0)
(-0.0076756 -0.00112775 0)
(-0.00721108 -0.00115167 0)
(-0.00673795 -0.0011717 0)
(-0.00625792 -0.00118724 0)
(-0.00577295 -0.00119759 0)
(-0.00528524 -0.00120199 0)
(-0.00479732 -0.00119958 0)
(-0.00431204 -0.00118942 0)
(-0.0038326 -0.00117048 0)
(-0.00336255 -0.00114172 0)
(-0.0029058 -0.00110206 0)
(-0.00246662 -0.00105045 0)
(-0.00204953 -0.000985965 0)
(-0.00165929 -0.000907912 0)
(-0.00130075 -0.00081596 0)
(-0.000978677 -0.000710393 0)
(-0.000697536 -0.00059243 0)
(-0.000461206 -0.000464719 0)
(-0.000272494 -0.000332043 0)
(-0.00013264 -0.000202222 0)
(-4.2704e-05 -8.74002e-05 0)
(-5.21353e-06 -7.18077e-06 0)
(-7.31044e-06 2.32225e-05 0)
(-5.35009e-05 0.000140123 0)
(-0.000158492 0.000291309 0)
(-0.000316556 0.00045557 0)
(-0.000524701 0.000620478 0)
(-0.000780666 0.000777865 0)
(-0.00108103 0.000922611 0)
(-0.00142158 0.00105182 0)
(-0.00179772 0.00116417 0)
(-0.00220467 0.00125946 0)
(-0.00263771 0.00133824 0)
(-0.00309226 0.00140153 0)
(-0.003564 0.00145063 0)
(-0.00404895 0.001487 0)
(-0.00454352 0.00151211 0)
(-0.00504448 0.00152738 0)
(-0.00554898 0.00153414 0)
(-0.00605452 0.00153359 0)
(-0.00655893 0.00152682 0)
(-0.00706033 0.00151476 0)
(-0.00755712 0.00149819 0)
(-0.00804789 0.0014778 0)
(-0.00853144 0.00145412 0)
(-0.00900671 0.0014276 0)
(-0.00947276 0.00139857 0)
(-0.0099288 0.00136732 0)
(-0.0103741 0.00133406 0)
(-0.0108079 0.00129896 0)
(-0.0112297 0.00126215 0)
(-0.0116389 0.00122371 0)
(-0.0120349 0.0011837 0)
(-0.0124172 0.00114219 0)
(-0.0127853 0.0010992 0)
(-0.0131387 0.00105479 0)
(-0.013477 0.00100896 0)
(-0.0137996 0.000961742 0)
(-0.0141062 0.000913158 0)
(-0.0143963 0.000863229 0)
(-0.0146695 0.000811977 0)
(-0.0149253 0.000759428 0)
(-0.0151633 0.000705609 0)
(-0.0153832 0.00065055 0)
(-0.0155846 0.000594282 0)
(-0.0157671 0.00053684 0)
(-0.0159303 0.000478265 0)
(-0.0160739 0.000418598 0)
(-0.0161976 0.000357888 0)
(-0.016301 0.000296182 0)
(-0.0163839 0.000233534 0)
(-0.016446 0.000169999 0)
(-0.016487 0.00010564 0)
(-0.0165066 4.05205e-05 0)
(-0.0165048 -2.52897e-05 0)
(-0.0164812 -9.17176e-05 0)
(-0.0164358 -0.000158686 0)
(-0.0163683 -0.000226112 0)
(-0.0162787 -0.00029391 0)
(-0.0161669 -0.000361988 0)
(-0.0160328 -0.00043025 0)
(-0.0158764 -0.000498595 0)
(-0.0156978 -0.000566916 0)
(-0.0154969 -0.000635102 0)
(-0.0152739 -0.000703038 0)
(-0.0150289 -0.000770601 0)
(-0.0147621 -0.000837664 0)
(-0.0144736 -0.000904095 0)
(-0.0141637 -0.000969752 0)
(-0.0138328 -0.00103448 0)
(-0.0134811 -0.00109813 0)
(-0.013109 -0.00116052 0)
(-0.0127171 -0.00122146 0)
(-0.0123058 -0.00128075 0)
(-0.0118758 -0.00133815 0)
(-0.0114277 -0.00139339 0)
(-0.0109623 -0.00144617 0)
(-0.0104805 -0.00149613 0)
(-0.00998337 -0.00154289 0)
(-0.00947194 -0.00158595 0)
(-0.00894757 -0.00162476 0)
(-0.00841175 -0.0016587 0)
(-0.00786619 -0.00168703 0)
(-0.00731283 -0.00170889 0)
(-0.00675389 -0.00172334 0)
(-0.00619189 -0.00172929 0)
(-0.00562968 -0.00172555 0)
(-0.00507045 -0.00171084 0)
(-0.00451777 -0.00168377 0)
(-0.00397558 -0.00164291 0)
(-0.00344821 -0.00158683 0)
(-0.00294031 -0.00151418 0)
(-0.00245684 -0.00142378 0)
(-0.00200295 -0.00131478 0)
(-0.00158392 -0.00118686 0)
(-0.00120492 -0.00104048 0)
(-0.000870886 -0.000877302 0)
(-0.000586258 -0.000700693 0)
(-0.00035459 -0.000516441 0)
(-0.000178159 -0.000333609 0)
(-6.03844e-05 -0.000165646 0)
(-8.39643e-06 -3.31035e-05 0)
(-1.00205e-05 5.43558e-05 0)
(-6.88743e-05 0.000229734 0)
(-0.000198554 0.000437626 0)
(-0.000389112 0.000656532 0)
(-0.00063531 0.000873292 0)
(-0.000933801 0.00107898 0)
(-0.00128035 0.0012678 0)
(-0.00167013 0.00143644 0)
(-0.00209809 0.00158334 0)
(-0.00255909 0.00170825 0)
(-0.00304806 0.00181181 0)
(-0.00356012 0.00189529 0)
(-0.00409066 0.00196028 0)
(-0.00463542 0.00200858 0)
(-0.00519054 0.00204205 0)
(-0.00575253 0.0020625 0)
(-0.0063183 0.00207163 0)
(-0.00688512 0.00207102 0)
(-0.00745062 0.00206205 0)
(-0.00801271 0.00204593 0)
(-0.00856961 0.00202371 0)
(-0.00911975 0.00199626 0)
(-0.00966177 0.00196433 0)
(-0.0101945 0.00192849 0)
(-0.0107169 0.00188922 0)
(-0.0112279 0.00184688 0)
(-0.0117269 0.00180179 0)
(-0.012213 0.00175416 0)
(-0.0126854 0.00170416 0)
(-0.0131437 0.00165194 0)
(-0.013587 0.00159759 0)
(-0.0140149 0.00154118 0)
(-0.0144268 0.00148277 0)
(-0.0148221 0.00142242 0)
(-0.0152003 0.00136017 0)
(-0.0155609 0.00129604 0)
(-0.0159033 0.00123008 0)
(-0.0162272 0.00116231 0)
(-0.016532 0.00109277 0)
(-0.0168172 0.0010215 0)
(-0.0170825 0.000948537 0)
(-0.0173273 0.000873921 0)
(-0.0175513 0.000797697 0)
(-0.017754 0.000719915 0)
(-0.0179351 0.000640631 0)
(-0.0180942 0.000559903 0)
(-0.0182308 0.000477795 0)
(-0.0183448 0.000394373 0)
(-0.0184357 0.000309709 0)
(-0.0185033 0.00022388 0)
(-0.0185473 0.000136969 0)
(-0.0185673 4.90647e-05 0)
(-0.0185633 -3.97394e-05 0)
(-0.018535 -0.000129344 0)
(-0.0184822 -0.000219646 0)
(-0.0184048 -0.000310533 0)
(-0.0183027 -0.000401889 0)
(-0.0181758 -0.000493591 0)
(-0.018024 -0.00058551 0)
(-0.0178473 -0.000677509 0)
(-0.0176458 -0.000769446 0)
(-0.0174195 -0.000861172 0)
(-0.0171685 -0.000952532 0)
(-0.016893 -0.00104336 0)
(-0.0165931 -0.00113349 0)
(-0.0162692 -0.00122274 0)
(-0.0159214 -0.00131092 0)
(-0.0155502 -0.00139783 0)
(-0.0151559 -0.00148325 0)
(-0.014739 -0.00156695 0)
(-0.0143 -0.00164867 0)
(-0.0138395 -0.00172813 0)
(-0.0133582 -0.00180501 0)
(-0.0128569 -0.00187896 0)
(-0.0123364 -0.00194955 0)
(-0.0117978 -0.00201633 0)
(-0.0112421 -0.00207875 0)
(-0.0106706 -0.00213617 0)
(-0.0100849 -0.00218786 0)
(-0.00948658 -0.00223298 0)
(-0.00887749 -0.00227054 0)
(-0.00825981 -0.00229945 0)
(-0.00763599 -0.00231844 0)
(-0.00700877 -0.00232612 0)
(-0.00638127 -0.00232095 0)
(-0.00575694 -0.00230126 0)
(-0.00513965 -0.00226528 0)
(-0.00453365 -0.00221121 0)
(-0.00394356 -0.00213727 0)
(-0.00337435 -0.00204176 0)
(-0.00283131 -0.00192326 0)
(-0.00231993 -0.00178077 0)
(-0.00184583 -0.00161394 0)
(-0.00141458 -0.00142338 0)
(-0.00103162 -0.00121108 0)
(-0.000702023 -0.000980937 0)
(-0.000430229 -0.000739408 0)
(-0.000219693 -0.000496281 0)
(-7.61928e-05 -0.000265571 0)
(-1.11218e-05 -6.77743e-05 0)
(-1.23117e-05 9.29429e-05 0)
(-8.24429e-05 0.000338342 0)
(-0.000234663 0.000611507 0)
(-0.000455231 0.000891524 0)
(-0.000736757 0.00116508 0)
(-0.00107476 0.00142293 0)
(-0.0014641 0.00165895 0)
(-0.00189929 0.00186957 0)
(-0.00237479 0.00205315 0)
(-0.00288506 0.00220945 0)
(-0.00342473 0.00233928 0)
(-0.00398864 0.00244414 0)
(-0.00457197 0.00252597 0)
(-0.00517021 0.00258692 0)
(-0.0057793 0.00262925 0)
(-0.00639553 0.00265515 0)
(-0.00701564 0.00266673 0)
(-0.00763671 0.00266592 0)
(-0.00825621 0.00265442 0)
(-0.00887191 0.00263376 0)
(-0.00948185 0.00260525 0)
(-0.0100843 0.00256998 0)
(-0.0106779 0.00252887 0)
(-0.0112612 0.00248268 0)
(-0.0118331 0.00243202 0)
(-0.0123927 0.00237736 0)
(-0.0129388 0.0023191 0)
(-0.0134708 0.00225752 0)
(-0.0139878 0.00219286 0)
(-0.0144892 0.00212529 0)
(-0.0149741 0.00205495 0)
(-0.015442 0.00198195 0)
(-0.0158922 0.00190637 0)
(-0.0163242 0.00182828 0)
(-0.0167374 0.00174774 0)
(-0.0171312 0.00166479 0)
(-0.017505 0.00157949 0)
(-0.0178583 0.00149188 0)
(-0.0181907 0.00140201 0)
(-0.0185016 0.00130993 0)
(-0.0187905 0.0012157 0)
(-0.019057 0.00111937 0)
(-0.0193006 0.001021 0)
(-0.0195208 0.000920654 0)
(-0.0197173 0.000818408 0)
(-0.0198897 0.000714338 0)
(-0.0200375 0.000608526 0)
(-0.0201604 0.000501058 0)
(-0.0202581 0.000392027 0)
(-0.0203302 0.000281535 0)
(-0.0203764 0.000169688 0)
(-0.0203966 5.65996e-05 0)
(-0.0203904 -5.76089e-05 0)
(-0.0203576 -0.00017281 0)
(-0.0202981 -0.00028887 0)
(-0.0202117 -0.000405646 0)
(-0.0200983 -0.000522988 0)
(-0.0199578 -0.000640739 0)
(-0.0197902 -0.000758733 0)
(-0.0195954 -0.000876796 0)
(-0.0193736 -0.000994745 0)
(-0.0191247 -0.00111239 0)
(-0.0188489 -0.00122953 0)
(-0.0185464 -0.00134597 0)
(-0.0182174 -0.00146147 0)
(-0.0178621 -0.00157581 0)
(-0.0174809 -0.00168875 0)
(-0.0170742 -0.00180002 0)
(-0.0166424 -0.00190935 0)
(-0.016186 -0.00201644 0)
(-0.0157056 -0.00212096 0)
(-0.0152019 -0.00222254 0)
(-0.0146755 -0.00232078 0)
(-0.0141274 -0.00241521 0)
(-0.0135585 -0.00250531 0)
(-0.01297 -0.00259048 0)
(-0.0123629 -0.00267001 0)
(-0.0117389 -0.00274312 0)
(-0.0110993 -0.00280885 0)
(-0.0104461 -0.00286616 0)
(-0.00978123 -0.00291381 0)
(-0.00910708 -0.00295041 0)
(-0.00842624 -0.0029744 0)
(-0.00774166 -0.00298403 0)
(-0.00705664 -0.0029774 0)
(-0.00637488 -0.00295247 0)
(-0.00570045 -0.00290708 0)
(-0.00503784 -0.00283903 0)
(-0.00439191 -0.00274615 0)
(-0.0037679 -0.00262645 0)
(-0.00317136 -0.00247822 0)
(-0.00260808 -0.00230028 0)
(-0.002084 -0.0020922 0)
(-0.00160512 -0.00185467 0)
(-0.00117737 -0.00158988 0)
(-0.000806577 -0.00130201 0)
(-0.000498077 -0.000997877 0)
(-0.000256547 -0.000687536 0)
(-8.99501e-05 -0.000385001 0)
(-1.33998e-05 -0.000110079 0)
(-1.42279e-05 0.000138025 0)
(-9.42335e-05 0.000463874 0)
(-0.00026662 0.000810401 0)
(-0.000514358 0.00115771 0)
(-0.000828116 0.00149275 0)
(-0.00120229 0.00180634 0)
(-0.00163086 0.00209233 0)
(-0.00210759 0.00234713 0)
(-0.00262644 0.00256912 0)
(-0.0031815 0.00275822 0)
(-0.00376705 0.00291542 0)
(-0.0043777 0.00304254 0)
(-0.0050084 0.00314186 0)
(-0.00565448 0.00321593 0)
(-0.00631168 0.00326739 0)
(-0.00697615 0.00329887 0)
(-0.00764447 0.00331285 0)
(-0.00831359 0.00331162 0)
(-0.00898083 0.00329725 0)
(-0.00964384 0.00327157 0)
(-0.0103006 0.00323615 0)
(-0.0109492 0.00319233 0)
(-0.0115881 0.00314122 0)
(-0.0122159 0.00308375 0)
(-0.0128315 0.00302067 0)
(-0.0134336 0.00295258 0)
(-0.0140212 0.00287996 0)
(-0.0145935 0.00280317 0)
(-0.0151497 0.00272251 0)
(-0.0156888 0.0026382 0)
(-0.0162102 0.00255043 0)
(-0.0167132 0.00245933 0)
(-0.0171971 0.00236502 0)
(-0.0176612 0.00226758 0)
(-0.018105 0.0021671 0)
(-0.0185278 0.00206364 0)
(-0.018929 0.00195726 0)
(-0.0193081 0.00184804 0)
(-0.0196646 0.00173604 0)
(-0.0199978 0.00162131 0)
(-0.0203074 0.00150394 0)
(-0.0205927 0.00138399 0)
(-0.0208533 0.00126154 0)
(-0.0210888 0.00113667 0)
(-0.0212986 0.00100948 0)
(-0.0214825 0.000880062 0)
(-0.0216399 0.000748518 0)
(-0.0217705 0.000614957 0)
(-0.0218739 0.000479497 0)
(-0.0219498 0.000342263 0)
(-0.0219979 0.000203388 0)
(-0.022018 6.30138e-05 0)
(-0.0220097 -7.87099e-05 0)
(-0.0219728 -0.000221625 0)
(-0.0219073 -0.000365565 0)
(-0.0218128 -0.000510353 0)
(-0.0216893 -0.000655805 0)
(-0.0215368 -0.000801724 0)
(-0.0213551 -0.000947907 0)
(-0.0211444 -0.00109414 0)
(-0.0209045 -0.00124019 0)
(-0.0206357 -0.00138584 0)
(-0.0203381 -0.00153082 0)
(-0.0200118 -0.00167489 0)
(-0.0196571 -0.00181778 0)
(-0.0192743 -0.00195919 0)
(-0.0188637 -0.00209883 0)
(-0.0184257 -0.00223638 0)
(-0.0179609 -0.00237149 0)
(-0.0174698 -0.00250378 0)
(-0.016953 -0.00263286 0)
(-0.0164112 -0.00275826 0)
(-0.0158453 -0.00287948 0)
(-0.0152561 -0.00299596 0)
(-0.0146447 -0.00310703 0)
(-0.0140123 -0.00321196 0)
(-0.0133601 -0.00330989 0)
(-0.0126898 -0.00339984 0)
(-0.0120029 -0.00348066 0)
(-0.0113014 -0.00355107 0)
(-0.0105875 -0.00360956 0)
(-0.00986364 -0.00365447 0)
(-0.00913255 -0.00368389 0)
(-0.00839736 -0.00369575 0)
(-0.00766152 -0.00368775 0)
(-0.0069289 -0.00365747 0)
(-0.00620375 -0.00360234 0)
(-0.00549076 -0.00351977 0)
(-0.004795 -0.00340722 0)
(-0.0041219 -0.00326233 0)
(-0.00347726 -0.0030831 0)
(-0.00286716 -0.00286814 0)
(-0.00229788 -0.00261689 0)
(-0.00177582 -0.00232998 0)
(-0.00130749 -0.00200964 0)
(-0.000899406 -0.00166016 0)
(-0.000557856 -0.0012884 0)
(-0.000288666 -0.000904338 0)
(-0.000101728 -0.00052159 0)
(-1.52796e-05 -0.00015891 0)
(-1.58218e-05 0.000188674 0)
(-0.00010439 0.000604295 0)
(-0.000294537 0.00103163 0)
(-0.000566543 0.00145201 0)
(-0.00090934 0.00185297 0)
(-0.00131626 0.00222568 0)
(-0.00178042 0.00256422 0)
(-0.0022949 0.00286515 0)
(-0.0028531 0.00312704 0)
(-0.00344871 0.00335006 0)
(-0.00407572 0.00353551 0)
(-0.00472847 0.00368551 0)
(-0.00540172 0.00380275 0)
(-0.00609061 0.0038902 0)
(-0.00679076 0.00395092 0)
(-0.00749817 0.00398796 0)
(-0.00820931 0.00400419 0)
(-0.00892102 0.00400229 0)
(-0.00963051 0.00398467 0)
(-0.0103353 0.00395349 0)
(-0.0110333 0.00391058 0)
(-0.0117226 0.00385753 0)
(-0.0124015 0.00379566 0)
(-0.0130686 0.00372606 0)
(-0.0137225 0.00364964 0)
(-0.014362 0.00356712 0)
(-0.0149861 0.00347907 0)
(-0.0155939 0.00338595 0)
(-0.0161843 0.00328811 0)
(-0.0167567 0.00318583 0)
(-0.0173101 0.00307934 0)
(-0.0178439 0.00296881 0)
(-0.0183572 0.00285439 0)
(-0.0188496 0.00273618 0)
(-0.0193202 0.0026143 0)
(-0.0197684 0.00248883 0)
(-0.0201937 0.00235985 0)
(-0.0205954 0.00222746 0)
(-0.0209729 0.00209172 0)
(-0.0213257 0.00195273 0)
(-0.0216533 0.00181056 0)
(-0.0219551 0.00166532 0)
(-0.0222306 0.00151709 0)
(-0.0224794 0.00136598 0)
(-0.0227009 0.0012121 0)
(-0.0228948 0.00105557 0)
(-0.0230605 0.000896519 0)
(-0.0231978 0.000735071 0)
(-0.0233062 0.000571373 0)
(-0.0233854 0.000405576 0)
(-0.0234351 0.000237841 0)
(-0.023455 6.83403e-05 0)
(-0.0234448 -0.000102747 0)
(-0.0234044 -0.00027523 0)
(-0.0233335 -0.000448908 0)
(-0.0232319 -0.000623568 0)
(-0.0230996 -0.000798987 0)
(-0.0229365 -0.000974931 0)
(-0.0227425 -0.00115115 0)
(-0.0225176 -0.0013274 0)
(-0.022262 -0.00150339 0)
(-0.0219757 -0.00167885 0)
(-0.0216588 -0.00185348 0)
(-0.0213116 -0.00202698 0)
(-0.0209343 -0.00219901 0)
(-0.0205273 -0.00236923 0)
(-0.0200908 -0.00253729 0)
(-0.0196254 -0.00270278 0)
(-0.0191316 -0.0028653 0)
(-0.01861 -0.0030244 0)
(-0.0180611 -0.00317958 0)
(-0.0174859 -0.00333029 0)
(-0.0168851 -0.00347593 0)
(-0.0162597 -0.00361582 0)
(-0.0156109 -0.00374916 0)
(-0.0149398 -0.00387507 0)
(-0.0142479 -0.00399253 0)
(-0.0135368 -0.00410036 0)
(-0.0128082 -0.00419722 0)
(-0.0120641 -0.00428155 0)
(-0.0113069 -0.0043516 0)
(-0.0105391 -0.00440539 0)
(-0.0097635 -0.0044407 0)
(-0.00898343 -0.00445508 0)
(-0.00820245 -0.00444588 0)
(-0.00742458 -0.00441025 0)
(-0.00665422 -0.00434522 0)
(-0.00589621 -0.0042478 0)
(-0.00515578 -0.00411502 0)
(-0.00443861 -0.00394418 0)
(-0.00375069 -0.00373295 0)
(-0.00309837 -0.00347965 0)
(-0.00248829 -0.00318352 0)
(-0.00192728 -0.00284504 0)
(-0.0014224 -0.00246633 0)
(-0.000980888 -0.00205156 0)
(-0.000609909 -0.00160746 0)
(-0.000316339 -0.00114363 0)
(-0.00011171 -0.000673052 0)
(-1.682e-05 -0.000213254 0)
(-1.71654e-05 0.00024407 0)
(-0.000113086 0.000757699 0)
(-0.00031875 0.00127256 0)
(-0.000612202 0.00177137 0)
(-0.0009809 0.00224244 0)
(-0.00141721 0.00267746 0)
(-0.00191346 0.00307095 0)
(-0.00246204 0.0034198 0)
(-0.00305582 0.00372292 0)
(-0.00368807 0.00398083 0)
(-0.00435249 0.00419519 0)
(-0.00504317 0.00436855 0)
(-0.00575464 0.00450401 0)
(-0.00648192 0.00460497 0)
(-0.00722047 0.00467496 0)
(-0.0079662 0.00471743 0)
(-0.00871547 0.0047357 0)
(-0.00946503 0.00473282 0)
(-0.010212 0.00471157 0)
(-0.0109539 0.0046744 0)
(-0.0116884 0.00462344 0)
(-0.0124136 0.00456052 0)
(-0.0131278 0.00448718 0)
(-0.0138295 0.00440469 0)
(-0.0145172 0.0043141 0)
(-0.0151897 0.00421626 0)
(-0.015846 0.00411183 0)
(-0.016485 0.00400137 0)
(-0.0171057 0.0038853 0)
(-0.0177072 0.00376396 0)
(-0.0182888 0.00363761 0)
(-0.0188497 0.00350648 0)
(-0.019389 0.00337073 0)
(-0.0199062 0.0032305 0)
(-0.0204004 0.00308594 0)
(-0.020871 0.00293714 0)
(-0.0213174 0.00278422 0)
(-0.021739 0.00262728 0)
(-0.0221351 0.00246641 0)
(-0.0225051 0.00230172 0)
(-0.0228486 0.00213332 0)
(-0.0231649 0.00196131 0)
(-0.0234536 0.00178581 0)
(-0.023714 0.00160695 0)
(-0.0239459 0.00142486 0)
(-0.0241486 0.00123968 0)
(-0.0243217 0.00105155 0)
(-0.024465 0.000860648 0)
(-0.0245778 0.000667127 0)
(-0.02466 0.000471172 0)
(-0.0247112 0.000272972 0)
(-0.024731 7.27304e-05 0)
(-0.0247193 -0.000129341 0)
(-0.0246757 -0.000333018 0)
(-0.0246001 -0.000538062 0)
(-0.0244924 -0.000744225 0)
(-0.0243524 -0.000951244 0)
(-0.02418 -0.00115884 0)
(-0.0239753 -0.00136673 0)
(-0.0237382 -0.00157461 0)
(-0.0234687 -0.00178215 0)
(-0.023167 -0.00198903 0)