/*--------------------------------*- C++ -*----------------------------------*\
  =========                 |
  \\      /  F ield         | OpenFOAM: The Open Source CFD Toolbox
   \\    /   O peration     | Website:  https://openfoam.org
    \\  /    A nd           | Version:  7
     \\/     M anipulation  |
\*---------------------------------------------------------------------------*/
FoamFile
{
    version     2.0;
    format      ascii;
    class       volScalarField;
    location    "10.9989";
    object      p;
}
// * * * * * * * * * * * * * * * * * * * * * * * * * * * * * * * * * * * * * //

dimensions      [0 2 -2 0 0 0 0];

internalField   nonuniform List<scalar> 
18750
(
-0.0677524
-0.0809867
-0.104392
-0.138283
-0.180485
-0.229949
-0.285437
-0.346071
-0.411063
-0.47987
-0.551935
-0.626392
-0.701639
-0.775347
-0.844957
-0.0730096
-0.0858958
-0.108991
-0.142621
-0.184609
-0.233899
-0.289242
-0.349748
-0.414619
-0.483315
-0.555307
-0.629767
-0.705081
-0.778785
-0.84819
-0.0832876
-0.0954967
-0.117981
-0.151092
-0.192652
-0.241587
-0.296629
-0.356863
-0.421471
-0.489918
-0.561721
-0.636126
-0.711514
-0.78521
-0.854295
-0.0981302
-0.10937
-0.130961
-0.163307
-0.204227
-0.252619
-0.307187
-0.366981
-0.431159
-0.499183
-0.570624
-0.644828
-0.720212
-0.793894
-0.862656
-0.116895
-0.126917
-0.147358
-0.17872
-0.218798
-0.266457
-0.320366
-0.379537
-0.443094
-0.510494
-0.58136
-0.655152
-0.730377
-0.804022
-0.872533
-0.138798
-0.147388
-0.166473
-0.196672
-0.23573
-0.282473
-0.335536
-0.393893
-0.456633
-0.523203
-0.593267
-0.666394
-0.741248
-0.814796
-0.883158
-0.162986
-0.1699
-0.187515
-0.216433
-0.254328
-0.299995
-0.352037
-0.409395
-0.47113
-0.536674
-0.605714
-0.677917
-0.752137
-0.825469
-0.893769
-0.188499
-0.193543
-0.20967
-0.237255
-0.273885
-0.318345
-0.369215
-0.42541
-0.48597
-0.55031
-0.618125
-0.689153
-0.762446
-0.835368
-0.903656
-0.214326
-0.217416
-0.232149
-0.258402
-0.293711
-0.336872
-0.386451
-0.441345
-0.500584
-0.563566
-0.629983
-0.69961
-0.771675
-0.843918
-0.912199
-0.239467
-0.240664
-0.254218
-0.279189
-0.313166
-0.354981
-0.403185
-0.456671
-0.514466
-0.575961
-0.640833
-0.708868
-0.779423
-0.850663
-0.918878
-0.262992
-0.262529
-0.275218
-0.298992
-0.331672
-0.37214
-0.418927
-0.470928
-0.527182
-0.58708
-0.650282
-0.716574
-0.785387
-0.855275
-0.923268
-0.28407
-0.28242
-0.294578
-0.317266
-0.348738
-0.387901
-0.433263
-0.483731
-0.538371
-0.596578
-0.658006
-0.722437
-0.789349
-0.857554
-0.924991
-0.302025
-0.299967
-0.311796
-0.333561
-0.363961
-0.401898
-0.445857
-0.494774
-0.547745
-0.604188
-0.663748
-0.72622
-0.791141
-0.857438
-0.923696
-0.316472
-0.314868
-0.326435
-0.347537
-0.377036
-0.413849
-0.456449
-0.50382
-0.555092
-0.60971
-0.667323
-0.727743
-0.790622
-0.854974
-0.919321
-0.32744
-0.326788
-0.338182
-0.35898
-0.387753
-0.423555
-0.464851
-0.510702
-0.56026
-0.613012
-0.668618
-0.726893
-0.787656
-0.850194
-0.91211
-0.335036
-0.335464
-0.347154
-0.367788
-0.396009
-0.430886
-0.470941
-0.515309
-0.563156
-0.614016
-0.667572
-0.723637
-0.78219
-0.842818
-0.902608
-0.339536
-0.341071
-0.353365
-0.374033
-0.401825
-0.43579
-0.474664
-0.517583
-0.563732
-0.612687
-0.664176
-0.717988
-0.774193
-0.832934
-0.890411
-0.341493
-0.344082
-0.356972
-0.377751
-0.405176
-0.438299
-0.476039
-0.517531
-0.561994
-0.609031
-0.658455
-0.710014
-0.763653
-0.820634
-0.87541
-0.341721
-0.345104
-0.35825
-0.379035
-0.406113
-0.438472
-0.475103
-0.515184
-0.557974
-0.603068
-0.650424
-0.699838
-0.750625
-0.805981
-0.857829
-0.341161
-0.344741
-0.357509
-0.37806
-0.404767
-0.436393
-0.471917
-0.510579
-0.551709
-0.594837
-0.640037
-0.687597
-0.735247
-0.789069
-0.837924
-0.340637
-0.343426
-0.355015
-0.375065
-0.401326
-0.43218
-0.466562
-0.503757
-0.543226
-0.58442
-0.627215
-0.673364
-0.717695
-0.770043
-0.8159
-0.340457
-0.341208
-0.350994
-0.370337
-0.396007
-0.425981
-0.459151
-0.494785
-0.532511
-0.571926
-0.611924
-0.657093
-0.698117
-0.74905
-0.792172
-0.340156
-0.337679
-0.345726
-0.364204
-0.389036
-0.417964
-0.449828
-0.48378
-0.519504
-0.55743
-0.594222
-0.638611
-0.676563
-0.725977
-0.767218
-0.338792
-0.332534
-0.339701
-0.357021
-0.380655
-0.408332
-0.438749
-0.470929
-0.504152
-0.540877
-0.574276
-0.617699
-0.653163
-0.70045
-0.740928
-0.33583
-0.326629
-0.3336
-0.349131
-0.371162
-0.397371
-0.426078
-0.456449
-0.486517
-0.522021
-0.552264
-0.594018
-0.628359
-0.672419
-0.712743
-0.331361
-0.321933
-0.327911
-0.34092
-0.360984
-0.385495
-0.41201
-0.440495
-0.466875
-0.500505
-0.528362
-0.566932
-0.602275
-0.642236
-0.682648
-0.326318
-0.319321
-0.322601
-0.332914
-0.350723
-0.373267
-0.396866
-0.423117
-0.445675
-0.476039
-0.502934
-0.536138
-0.574201
-0.610149
-0.65132
-0.32185
-0.317832
-0.317739
-0.32591
-0.3411
-0.361321
-0.381194
-0.40433
-0.423457
-0.448571
-0.476183
-0.502125
-0.54422
-0.575727
-0.619615
-0.318488
-0.316277
-0.314234
-0.320731
-0.332859
-0.350269
-0.365821
-0.384316
-0.400611
-0.418528
-0.448077
-0.466265
-0.512589
-0.539082
-0.588646
-0.316174
-0.314435
-0.312794
-0.317501
-0.326636
-0.340677
-0.351729
-0.36375
-0.377363
-0.387083
-0.417422
-0.430976
-0.47869
-0.502399
-0.559568
-0.31446
-0.312948
-0.312505
-0.315834
-0.322808
-0.333058
-0.339805
-0.343698
-0.353658
-0.356738
-0.383135
-0.398942
-0.44167
-0.471337
-0.530312
-0.313003
-0.311827
-0.312289
-0.3154
-0.321237
-0.327702
-0.330408
-0.326126
-0.329755
-0.329498
-0.34679
-0.369758
-0.405219
-0.445498
-0.499384
-0.311526
-0.310817
-0.312056
-0.315721
-0.321007
-0.324524
-0.323235
-0.312556
-0.307688
-0.305643
-0.316314
-0.343027
-0.378306
-0.424843
-0.471597
-0.309802
-0.309658
-0.311715
-0.316037
-0.320952
-0.322786
-0.317749
-0.302942
-0.290411
-0.285502
-0.294851
-0.322451
-0.360271
-0.407576
-0.449136
-0.307641
-0.308112
-0.310918
-0.315649
-0.320186
-0.321114
-0.313168
-0.296361
-0.278365
-0.270975
-0.280871
-0.310747
-0.348146
-0.391814
-0.430654
-0.304899
-0.305942
-0.309272
-0.314092
-0.318084
-0.318251
-0.308648
-0.291269
-0.270842
-0.262913
-0.273719
-0.304226
-0.339768
-0.377808
-0.414118
-0.301513
-0.302973
-0.306488
-0.311012
-0.314118
-0.313394
-0.303138
-0.285883
-0.266666
-0.259511
-0.272669
-0.300254
-0.332763
-0.365467
-0.398279
-0.297561
-0.299292
-0.302485
-0.30625
-0.30811
-0.305785
-0.295709
-0.279724
-0.263959
-0.260528
-0.274136
-0.297931
-0.325892
-0.353956
-0.383526
-0.2933
-0.295048
-0.297557
-0.300056
-0.300015
-0.295983
-0.286996
-0.274465
-0.2621
-0.263008
-0.276162
-0.295542
-0.319001
-0.3434
-0.369535
-0.28916
-0.290725
-0.292335
-0.293258
-0.291227
-0.285528
-0.278721
-0.270617
-0.262367
-0.265691
-0.27692
-0.292741
-0.312357
-0.333307
-0.35641
-0.285605
-0.286885
-0.287633
-0.287136
-0.28338
-0.275922
-0.271681
-0.265658
-0.263
-0.266985
-0.276595
-0.289546
-0.305845
-0.323865
-0.344249
-0.282966
-0.283944
-0.28384
-0.282401
-0.277238
-0.268097
-0.264199
-0.260568
-0.262292
-0.267274
-0.275584
-0.286132
-0.299737
-0.315048
-0.332765
-0.281368
-0.282111
-0.281561
-0.279288
-0.272869
-0.262611
-0.252583
-0.256239
-0.261004
-0.266982
-0.27423
-0.282778
-0.293928
-0.306712
-0.322125
-0.280774
-0.28133
-0.280499
-0.277706
-0.270254
-0.259184
-0.246284
-0.252895
-0.259811
-0.266416
-0.2727
-0.279453
-0.288433
-0.298951
-0.312092
-0.281003
-0.28144
-0.280485
-0.27753
-0.27002
-0.255741
-0.246296
-0.251446
-0.258855
-0.265593
-0.27093
-0.276188
-0.283209
-0.291564
-0.302687
-0.281888
-0.282268
-0.281358
-0.278805
-0.272974
-0.255159
-0.249418
-0.252052
-0.258338
-0.264491
-0.268922
-0.272895
-0.278145
-0.284588
-0.293803
-0.283266
-0.283644
-0.282932
-0.281939
-0.275077
-0.26023
-0.253463
-0.253786
-0.2582
-0.26319
-0.266631
-0.269495
-0.273204
-0.277896
-0.28535
-0.284996
-0.285413
-0.284963
-0.287003
-0.275862
-0.266495
-0.258124
-0.25603
-0.258289
-0.261717
-0.264079
-0.265949
-0.268281
-0.271448
-0.277282
-0.286958
-0.287338
-0.287575
-0.291245
-0.27967
-0.271157
-0.262321
-0.258255
-0.258367
-0.260094
-0.261303
-0.262216
-0.263343
-0.26518
-0.26949
-0.289067
-0.289166
-0.291358
-0.291635
-0.285897
-0.275399
-0.265723
-0.260098
-0.258278
-0.25831
-0.258322
-0.258307
-0.258343
-0.259028
-0.261941
-0.291256
-0.290628
-0.29598
-0.289225
-0.289055
-0.278602
-0.268268
-0.261378
-0.257883
-0.256334
-0.255169
-0.254223
-0.253265
-0.252961
-0.254564
-0.293314
-0.292051
-0.298958
-0.289245
-0.289139
-0.280212
-0.269919
-0.262066
-0.257137
-0.25415
-0.251841
-0.249977
-0.248107
-0.246928
-0.247334
-0.295107
-0.294339
-0.298729
-0.293775
-0.289494
-0.280755
-0.270632
-0.262115
-0.255997
-0.251728
-0.248346
-0.245578
-0.24286
-0.240904
-0.240213
-0.296659
-0.297979
-0.295359
-0.298081
-0.290689
-0.280791
-0.270548
-0.261542
-0.254461
-0.249066
-0.244673
-0.24103
-0.237526
-0.234854
-0.233169
-0.298099
-0.302429
-0.29056
-0.298576
-0.291307
-0.280635
-0.269976
-0.260449
-0.252534
-0.246143
-0.240818
-0.236335
-0.232091
-0.228756
-0.22617
-0.299673
-0.306112
-0.289592
-0.296307
-0.290709
-0.280124
-0.269055
-0.258947
-0.250254
-0.242964
-0.236769
-0.231484
-0.226551
-0.222588
-0.219176
-0.301883
-0.307813
-0.294535
-0.29488
-0.289316
-0.279121
-0.267799
-0.257105
-0.247654
-0.239522
-0.232516
-0.226474
-0.22089
-0.216334
-0.212176
-0.305195
-0.307122
-0.302644
-0.296194
-0.288193
-0.277723
-0.266151
-0.254919
-0.244746
-0.235822
-0.228049
-0.22129
-0.215099
-0.209989
-0.205164
-0.310149
-0.305011
-0.309549
-0.29935
-0.288
-0.27626
-0.264161
-0.252378
-0.241519
-0.231849
-0.223355
-0.215921
-0.209163
-0.203541
-0.198149
-0.317401
-0.303464
-0.313805
-0.302743
-0.288595
-0.274979
-0.261922
-0.249476
-0.237952
-0.227586
-0.218417
-0.210351
-0.20307
-0.196987
-0.191124
-0.326664
-0.30662
-0.316072
-0.305408
-0.289391
-0.27385
-0.259521
-0.246245
-0.234034
-0.223009
-0.213213
-0.204564
-0.196806
-0.190312
-0.184063
-0.337153
-0.315936
-0.318233
-0.30701
-0.289808
-0.272631
-0.256938
-0.242699
-0.229758
-0.218099
-0.207721
-0.198538
-0.190352
-0.1835
-0.176922
-0.34763
-0.32956
-0.321735
-0.307782
-0.289475
-0.271019
-0.254073
-0.238831
-0.225126
-0.212844
-0.201921
-0.192252
-0.183685
-0.17652
-0.169658
-0.356352
-0.343101
-0.326494
-0.308149
-0.288318
-0.2688
-0.250793
-0.234601
-0.220129
-0.207234
-0.195796
-0.185683
-0.176778
-0.169345
-0.162246
-0.361937
-0.353218
-0.330917
-0.308251
-0.286459
-0.2659
-0.246995
-0.229953
-0.21475
-0.20126
-0.189331
-0.178806
-0.169598
-0.16194
-0.154666
-0.363947
-0.358999
-0.333778
-0.307853
-0.284037
-0.262358
-0.24263
-0.224836
-0.208961
-0.194907
-0.182512
-0.171603
-0.162116
-0.15427
-0.146887
-0.363629
-0.361086
-0.334756
-0.306692
-0.281086
-0.258239
-0.237697
-0.21922
-0.202736
-0.188161
-0.175329
-0.16406
-0.154313
-0.146298
-0.138845
-0.362459
-0.360744
-0.334022
-0.304621
-0.277567
-0.253576
-0.232212
-0.213087
-0.196051
-0.181
-0.167767
-0.15617
-0.146186
-0.138006
-0.130433
-0.361518
-0.359145
-0.331941
-0.301625
-0.273416
-0.248364
-0.226181
-0.206431
-0.188886
-0.173406
-0.159812
-0.147927
-0.137746
-0.12941
-0.121524
-0.361311
-0.357008
-0.328857
-0.29775
-0.268581
-0.242571
-0.219596
-0.199242
-0.181226
-0.165362
-0.151448
-0.139323
-0.129008
-0.120569
-0.112027
-0.361864
-0.354671
-0.325024
-0.293061
-0.26303
-0.236154
-0.212434
-0.191505
-0.173056
-0.156852
-0.142667
-0.130355
-0.119978
-0.111529
-0.101988
-0.362901
-0.352241
-0.320589
-0.287605
-0.256733
-0.229066
-0.20466
-0.1832
-0.164362
-0.147871
-0.133467
-0.121029
-0.110659
-0.102246
-0.0916642
-0.363964
-0.349688
-0.315602
-0.281394
-0.249659
-0.221258
-0.196232
-0.174302
-0.155135
-0.138418
-0.123862
-0.111375
-0.101077
-0.0925326
-0.0813981
-0.364548
-0.34682
-0.310014
-0.2744
-0.241764
-0.212682
-0.187115
-0.164792
-0.145372
-0.128499
-0.113869
-0.101422
-0.0912632
-0.08229
-0.0712249
-0.364249
-0.343202
-0.303678
-0.266561
-0.233006
-0.203298
-0.177282
-0.154667
-0.13508
-0.118126
-0.103503
-0.0911704
-0.0810997
-0.0716759
-0.0610454
-0.362691
-0.338427
-0.296402
-0.257791
-0.223337
-0.193079
-0.16673
-0.143936
-0.124268
-0.1073
-0.0927478
-0.0805834
-0.0705361
-0.0608296
-0.0507705
-0.359565
-0.332214
-0.287997
-0.247997
-0.212718
-0.182022
-0.155474
-0.132608
-0.112919
-0.0960019
-0.0816016
-0.0696339
-0.0595886
-0.0498132
-0.0403559
-0.354626
-0.324368
-0.2783
-0.237098
-0.201127
-0.170148
-0.143532
-0.120647
-0.101012
-0.084234
-0.07006
-0.0583172
-0.048314
-0.0386288
-0.0297934
-0.347698
-0.31477
-0.26718
-0.225036
-0.188577
-0.15748
-0.130843
-0.108032
-0.0885497
-0.0720034
-0.0581246
-0.0466454
-0.0367589
-0.0272674
-0.0190951
-0.338674
-0.303372
-0.254522
-0.21179
-0.175103
-0.14395
-0.117393
-0.0947669
-0.0755413
-0.0593199
-0.0458044
-0.0346364
-0.0249443
-0.0157285
-0.00827225
-0.327505
-0.290202
-0.240245
-0.197368
-0.160647
-0.129539
-0.103187
-0.0808612
-0.0620008
-0.0461982
-0.0331152
-0.0223079
-0.0128762
-0.00401088
0.00266711
-0.314187
-0.275333
-0.224365
-0.181716
-0.14515
-0.114258
-0.0882396
-0.0663325
-0.0479464
-0.0326564
-0.0200753
-0.00967606
-0.000558772
0.00788652
0.0137007
-0.298747
-0.258792
-0.207073
-0.164701
-0.128593
-0.0981232
-0.0725762
-0.0512041
-0.0333999
-0.0187146
-0.00670159
0.00324505
0.0119939
0.0199428
0.0247814
-0.281258
-0.240443
-0.188462
-0.146428
-0.110998
-0.0811557
-0.0562252
-0.0355046
-0.018386
-0.00439081
0.00699521
0.0164439
0.024748
0.0320836
0.035856
-0.26184
-0.220019
-0.168691
-0.127051
-0.0924244
-0.0633867
-0.0392191
-0.0192664
-0.00293127
0.0102996
0.0210118
0.0299122
0.037653
0.0441772
0.0468325
-0.240647
-0.197524
-0.147735
-0.106696
-0.0729545
-0.0448617
-0.0215952
-0.00252503
0.0129369
0.0253439
0.0353474
0.0436391
0.0506517
0.0560645
0.0574159
-0.217772
-0.173297
-0.125498
-0.0854325
-0.052676
-0.025639
-0.00339797
0.0146817
0.0291905
0.0407274
0.0499929
0.0575957
0.0636778
0.0675802
0.0670583
-0.193175
-0.147838
-0.102024
-0.0632888
-0.0316637
-0.00578553
0.0153214
0.0323132
0.0458
0.0564285
0.0649157
0.0717175
0.0766349
0.0785896
0.0755653
-0.166826
-0.121546
-0.0774784
-0.0402998
-0.00998142
0.01463
0.0345062
0.0503261
0.0627328
0.0724128
0.0800519
0.085898
0.0894081
0.0891969
0.0840058
-0.13895
-0.0944501
-0.0520329
-0.0165406
0.0123064
0.0355388
0.0540965
0.0686737
0.0799499
0.0886311
0.0953158
0.100021
0.101948
0.0999568
0.0945893
-0.109781
-0.0665419
-0.025831
0.0078832
0.0351254
0.0568714
0.0740305
0.0873047
0.0974031
0.105021
0.110628
0.114032
0.114363
0.111178
0.10924
-0.0795414
-0.0378739
0.0010074
0.0328578
0.0583902
0.0785553
0.0942444
0.106163
0.115035
0.121515
0.125933
0.127965
0.12689
0.123148
0.123508
-0.0484255
-0.00854648
0.0283696
0.0582703
0.0820084
0.100514
0.114671
0.125187
0.13278
0.138048
0.141204
0.141895
0.139683
0.135815
0.136994
-0.0166192
0.0213082
0.0561402
0.0840107
0.105884
0.122667
0.135241
0.144309
0.150576
0.154569
0.156431
0.155852
0.152684
0.148709
0.149765
0.0157017
0.0515474
0.0841987
0.109969
0.129921
0.144931
0.15588
0.163463
0.168358
0.171037
0.171608
0.169846
0.165852
0.161641
0.162032
0.0483644
0.0820229
0.11242
0.136037
0.15402
0.16722
0.176512
0.182578
0.186069
0.187412
0.186708
0.183815
0.179015
0.174388
0.173971
0.0812007
0.112588
0.140679
0.162102
0.178085
0.189449
0.19706
0.201587
0.203653
0.203656
0.201702
0.197725
0.19212
0.186926
0.18562
0.114045
0.143098
0.168848
0.188055
0.202018
0.211529
0.217446
0.220421
0.221053
0.219719
0.216533
0.211482
0.205048
0.199219
0.197022
0.146734
0.173412
0.196802
0.213786
0.22572
0.233375
0.237593
0.239013
0.238214
0.235556
0.231161
0.225056
0.217773
0.211241
0.208143
0.179111
0.203389
0.224419
0.239184
0.249097
0.2549
0.257426
0.257298
0.255076
0.251107
0.245516
0.238364
0.230235
0.222993
0.218982
0.211022
0.232896
0.251578
0.264145
0.272051
0.27602
0.27687
0.27521
0.271584
0.266326
0.259561
0.251379
0.242396
0.234416
0.229497
0.242316
0.261802
0.278161
0.288563
0.294492
0.296652
0.29585
0.292682
0.287675
0.281148
0.273231
0.264043
0.254229
0.245512
0.239666
0.272849
0.289979
0.304056
0.312336
0.316327
0.316715
0.314296
0.309652
0.303295
0.295531
0.286491
0.276317
0.265679
0.256218
0.249456
0.302482
0.317305
0.329153
0.335367
0.337469
0.336132
0.332137
0.326055
0.318382
0.309414
0.299286
0.288164
0.276732
0.266526
0.258838
0.331083
0.343663
0.353348
0.357562
0.357835
0.354826
0.349306
0.341833
0.332888
0.322756
0.311575
0.299536
0.28733
0.27639
0.267787
0.358522
0.368942
0.37654
0.37883
0.377342
0.372724
0.365737
0.356924
0.346755
0.335504
0.323319
0.310407
0.297456
0.285784
0.276276
0.384681
0.393034
0.398633
0.399085
0.395914
0.389759
0.381369
0.371276
0.359936
0.347616
0.334471
0.320729
0.307066
0.29468
0.284281
0.409444
0.415841
0.419537
0.418246
0.413477
0.405863
0.396141
0.384833
0.372383
0.359051
0.345001
0.330476
0.316131
0.303047
0.291782
0.432705
0.437267
0.439169
0.436237
0.429964
0.420976
0.41
0.397547
0.384049
0.369764
0.354865
0.33961
0.324622
0.310863
0.298758
0.454363
0.457225
0.457449
0.452988
0.44531
0.435039
0.422892
0.40937
0.394895
0.379723
0.364036
0.3481
0.332508
0.318103
0.305192
0.474327
0.475634
0.474304
0.468431
0.459456
0.448
0.43477
0.420259
0.40488
0.388889
0.372478
0.355919
0.339765
0.324745
0.31107
0.49251
0.492424
0.489671
0.482509
0.472347
0.459808
0.445589
0.430175
0.41397
0.397232
0.380164
0.363039
0.346367
0.33077
0.316378
0.508835
0.507529
0.50349
0.495166
0.483935
0.470419
0.455309
0.43908
0.422132
0.404723
0.387067
0.369435
0.352292
0.336161
0.321105
0.523237
0.520894
0.51571
0.506352
0.494174
0.479793
0.463894
0.446944
0.429338
0.411336
0.393162
0.375084
0.357521
0.340902
0.325244
0.535674
0.532454
0.526278
0.516024
0.503024
0.487894
0.471311
0.453737
0.435561
0.417047
0.398427
0.379966
0.362035
0.344982
0.328787
0.546114
0.542154
0.53515
0.524141
0.510452
0.494692
0.477535
0.459435
0.44078
0.421837
0.402845
0.384064
0.36582
0.348389
0.331734
0.55452
0.549954
0.542289
0.530674
0.516429
0.500161
0.482541
0.464018
0.444977
0.425689
0.406399
0.38736
0.368861
0.351118
0.334084
0.560856
0.555828
0.547667
0.535595
0.520931
0.504281
0.486312
0.467469
0.448138
0.42859
0.409077
0.389844
0.37115
0.353164
0.335842
0.565095
0.559755
0.551263
0.538886
0.523942
0.507036
0.488833
0.469777
0.450251
0.43053
0.410867
0.391505
0.372678
0.354527
0.33701
0.56722
0.561722
0.553064
0.540534
0.52545
0.508417
0.490096
0.470933
0.451309
0.431501
0.411764
0.392337
0.373444
0.355208
0.337592
0.56722
0.561722
0.553065
0.540534
0.52545
0.508417
0.490096
0.470933
0.451309
0.431501
0.411764
0.392337
0.373444
0.355208
0.337592
0.565095
0.559755
0.551263
0.538886
0.523942
0.507037
0.488833
0.469777
0.450251
0.43053
0.410867
0.391505
0.372678
0.354527
0.33701
0.560856
0.555828
0.547667
0.535595
0.520931
0.504282
0.486312
0.467469
0.448138
0.42859
0.409077
0.389844
0.37115
0.353164
0.335842
0.55452
0.549955
0.54229
0.530674
0.516429
0.500162
0.482541
0.464018
0.444978
0.425689
0.4064
0.387361
0.368861
0.351118
0.334084
0.546115
0.542155
0.535151
0.524142
0.510453
0.494693
0.477535
0.459435
0.44078
0.421837
0.402846
0.384064
0.36582
0.348389
0.331734
0.535675
0.532455
0.526279
0.516024
0.503025
0.487895
0.471312
0.453737
0.435561
0.417048
0.398428
0.379967
0.362035
0.344982
0.328788
0.523238
0.520894
0.51571
0.506353
0.494174
0.479793
0.463894
0.446944
0.429338
0.411336
0.393162
0.375084
0.357521
0.340902
0.325244
0.508836
0.50753
0.503491
0.495166
0.483936
0.470419
0.455309
0.43908
0.422133
0.404724
0.387067
0.369435
0.352293
0.336161
0.321105
0.492511
0.492424
0.489672
0.48251
0.472348
0.459808
0.44559
0.430175
0.413971
0.397233
0.380164
0.363039
0.346367
0.33077
0.316378
0.474328
0.475635
0.474305
0.468432
0.459457
0.448
0.434771
0.420259
0.40488
0.388889
0.372479
0.35592
0.339765
0.324745
0.31107
0.454365
0.457226
0.457449
0.452988
0.445311
0.43504
0.422893
0.409371
0.394896
0.379723
0.364036
0.3481
0.332509
0.318103
0.305193
0.432706
0.437268
0.43917
0.436238
0.429965
0.420977
0.410001
0.397548
0.384049
0.369764
0.354866
0.33961
0.324623
0.310864
0.298758
0.409446
0.415842
0.419538
0.418247
0.413478
0.405864
0.396142
0.384834
0.372383
0.359051
0.345001
0.330476
0.316131
0.303048
0.291782
0.384682
0.393036
0.398634
0.399086
0.395915
0.38976
0.38137
0.371277
0.359937
0.347617
0.334471
0.32073
0.307066
0.29468
0.284282
0.358524
0.368943
0.376541
0.378831
0.377343
0.372725
0.365738
0.356925
0.346756
0.335505
0.323319
0.310408
0.297456
0.285784
0.276276
0.331084
0.343665
0.353349
0.357563
0.357836
0.354827
0.349307
0.341834
0.332889
0.322757
0.311576
0.299537
0.287331
0.27639
0.267788
0.302484
0.317306
0.329155
0.335369
0.337471
0.336133
0.332138
0.326055
0.318383
0.309415
0.299287
0.288165
0.276732
0.266527
0.258839
0.272851
0.28998
0.304058
0.312338
0.316328
0.316716
0.314297
0.309652
0.303296
0.295532
0.286492
0.276317
0.26568
0.256219
0.249456
0.242318
0.261803
0.278163
0.288564
0.294493
0.296653
0.295851
0.292683
0.287675
0.281149
0.273232
0.264043
0.25423
0.245512
0.239667
0.211024
0.232898
0.251579
0.264146
0.272053
0.276021
0.276871
0.275211
0.271585
0.266327
0.259562
0.25138
0.242397
0.234416
0.229497
0.179113
0.203391
0.224421
0.239186
0.249098
0.254901
0.257427
0.257299
0.255077
0.251108
0.245516
0.238365
0.230235
0.222994
0.218983
0.146737
0.173414
0.196804
0.213787
0.225722
0.233376
0.237594
0.239015
0.238215
0.235557
0.231162
0.225056
0.217774
0.211241
0.208144
0.114047
0.143101
0.16885
0.188057
0.202019
0.21153
0.217447
0.220422
0.221054
0.21972
0.216534
0.211483
0.205049
0.199219
0.197022
0.081203
0.11259
0.140681
0.162104
0.178087
0.18945
0.197061
0.201588
0.203654
0.203657
0.201703
0.197725
0.19212
0.186927
0.185621
0.0483668
0.0820251
0.112422
0.136038
0.154022
0.167222
0.176513
0.18258
0.18607
0.187413
0.186709
0.183816
0.179015
0.174389
0.173972
0.0157042
0.0515496
0.0842007
0.109971
0.129922
0.144932
0.155881
0.163464
0.168359
0.171038
0.171609
0.169847
0.165853
0.161642
0.162033
-0.0166167
0.0213105
0.0561423
0.0840126
0.105886
0.122668
0.135242
0.144311
0.150577
0.15457
0.156432
0.155853
0.152685
0.14871
0.149766
-0.0484229
-0.00854414
0.0283717
0.0582723
0.0820102
0.100516
0.114673
0.125188
0.132782
0.138049
0.141205
0.141896
0.139684
0.135816
0.136995
-0.0795388
-0.0378715
0.00100957
0.0328598
0.058392
0.0785569
0.0942459
0.106164
0.115036
0.121516
0.125934
0.127966
0.126891
0.123149
0.123509
-0.109778
-0.0665395
-0.0258288
0.00788521
0.0351272
0.0568731
0.0740321
0.0873061
0.0974044
0.105023
0.110629
0.114033
0.114364
0.111179
0.109241
-0.138947
-0.0944476
-0.0520306
-0.0165386
0.0123083
0.0355405
0.0540981
0.0686751
0.0799512
0.0886323
0.0953169
0.100022
0.101949
0.0999577
0.0945903
-0.166823
-0.121543
-0.0774761
-0.0402977
-0.00997953
0.0146317
0.0345078
0.0503276
0.0627341
0.0724141
0.080053
0.0858991
0.0894091
0.0891978
0.0840068
-0.193172
-0.147835
-0.102022
-0.0632867
-0.0316618
-0.00578377
0.0153231
0.0323147
0.0458014
0.0564298
0.0649169
0.0717186
0.0766359
0.0785906
0.0755663
-0.21777
-0.173294
-0.125495
-0.0854304
-0.0526741
-0.0256372
-0.00339633
0.0146832
0.0291919
0.0407287
0.0499941
0.0575968
0.0636788
0.0675812
0.0670593
-0.240644
-0.197521
-0.147733
-0.106694
-0.0729526
-0.0448599
-0.0215936
-0.0025235
0.0129383
0.0253452
0.0353486
0.0436402
0.0506528
0.0560655
0.0574168
-0.261837
-0.220017
-0.168688
-0.127049
-0.0924224
-0.0633849
-0.0392174
-0.0192649
-0.00292984
0.010301
0.021013
0.0299134
0.0376541
0.0441783
0.0468334
-0.281255
-0.240441
-0.18846
-0.146426
-0.110996
-0.0811539
-0.0562235
-0.035503
-0.0183845
-0.00438946
0.00699646
0.0164451
0.0247491
0.0320846
0.0358569
-0.298745
-0.258789
-0.207071
-0.164698
-0.128591
-0.0981214
-0.0725745
-0.0512025
-0.0333984
-0.0187132
-0.00670032
0.00324623
0.011995
0.0199438
0.0247823
-0.314184
-0.27533
-0.224362
-0.181714
-0.145148
-0.114257
-0.0882379
-0.0663309
-0.0479449
-0.032655
-0.020074
-0.00967486
-0.000557654
0.00788756
0.0137017
-0.327503
-0.290199
-0.240243
-0.197366
-0.160644
-0.129538
-0.103185
-0.0808596
-0.0619993
-0.0461968
-0.0331139
-0.0223067
-0.0128751
-0.00400982
0.00266811
-0.338671
-0.30337
-0.254519
-0.211788
-0.175101
-0.143948
-0.117392
-0.0947653
-0.0755398
-0.0593185
-0.0458031
-0.0346352
-0.0249432
-0.0157274
-0.00827124
-0.347695
-0.314768
-0.267177
-0.225034
-0.188575
-0.157478
-0.130842
-0.108031
-0.0885482
-0.072002
-0.0581233
-0.0466442
-0.0367578
-0.0272663
-0.0190941
-0.354623
-0.324366
-0.278298
-0.237096
-0.201125
-0.170146
-0.14353
-0.120645
-0.101011
-0.0842326
-0.0700587
-0.058316
-0.0483128
-0.0386277
-0.0297924
-0.359563
-0.332211
-0.287995
-0.247995
-0.212716
-0.182021
-0.155473
-0.132607
-0.112918
-0.0960005
-0.0816003
-0.0696327
-0.0595874
-0.0498121
-0.0403548
-0.362689
-0.338424
-0.2964
-0.257789
-0.223335
-0.193077
-0.166728
-0.143934
-0.124267
-0.107299
-0.0927465
-0.0805821
-0.0705349
-0.0608285
-0.0507695
-0.364247
-0.3432
-0.303675
-0.266559
-0.233004
-0.203296
-0.177281
-0.154665
-0.135079
-0.118124
-0.103501
-0.0911692
-0.0810985
-0.0716748
-0.0610443
-0.364546
-0.346818
-0.310011
-0.274398
-0.241762
-0.21268
-0.187113
-0.164791
-0.14537
-0.128498
-0.113868
-0.10142
-0.091262
-0.0822889
-0.0712238
-0.363962
-0.349686
-0.3156
-0.281392
-0.249657
-0.221256
-0.19623
-0.1743
-0.155133
-0.138416
-0.123861
-0.111373
-0.101075
-0.0925314
-0.0813971
-0.362899
-0.352238
-0.320586
-0.287603
-0.256731
-0.229064
-0.204658
-0.183198
-0.16436
-0.147869
-0.133466
-0.121028
-0.110658
-0.102245
-0.0916631
-0.361862
-0.354668
-0.325022
-0.293059
-0.263028
-0.236152
-0.212432
-0.191504
-0.173054
-0.156851
-0.142665
-0.130353
-0.119977
-0.111528
-0.101987
-0.361308
-0.357006
-0.328855
-0.297748
-0.268579
-0.242569
-0.219594
-0.19924
-0.181224
-0.16536
-0.151447
-0.139322
-0.129007
-0.120567
-0.112026
-0.361516
-0.359143
-0.331939
-0.301623
-0.273414
-0.248362
-0.226179
-0.206429
-0.188884
-0.173405
-0.15981
-0.147925
-0.137745
-0.129409
-0.121523
-0.362456
-0.360742
-0.33402
-0.304619
-0.277565
-0.253575
-0.23221
-0.213085
-0.196049
-0.180999
-0.167766
-0.156168
-0.146185
-0.138005
-0.130432
-0.363627
-0.361084
-0.334754
-0.30669
-0.281085
-0.258237
-0.237695
-0.219218
-0.202735
-0.188159
-0.175328
-0.164059
-0.154312
-0.146297
-0.138844
-0.363944
-0.358997
-0.333776
-0.307851
-0.284035
-0.262356
-0.242628
-0.224835
-0.20896
-0.194906
-0.182511
-0.171602
-0.162115
-0.154269
-0.146886
-0.361935
-0.353215
-0.330915
-0.308249
-0.286457
-0.265898
-0.246993
-0.229951
-0.214749
-0.201258
-0.189329
-0.178805
-0.169597
-0.161939
-0.154665
-0.35635
-0.343099
-0.326492
-0.308147
-0.288316
-0.268798
-0.250791
-0.234599
-0.220128
-0.207233
-0.195795
-0.185682
-0.176777
-0.169344
-0.162245
-0.347628
-0.329558
-0.321733
-0.30778
-0.289473
-0.271017
-0.254071
-0.23883
-0.225125
-0.212843
-0.20192
-0.192251
-0.183684
-0.176519
-0.169657
-0.337151
-0.315934
-0.318231
-0.307009
-0.289806
-0.272629
-0.256936
-0.242697
-0.229756
-0.218098
-0.20772
-0.198537
-0.190351
-0.183498
-0.176921
-0.326662
-0.306618
-0.31607
-0.305406
-0.289389
-0.273848
-0.259519
-0.246243
-0.234032
-0.223007
-0.213211
-0.204562
-0.196805
-0.190311
-0.184061
-0.317399
-0.303463
-0.313803
-0.302741
-0.288593
-0.274977
-0.26192
-0.249475
-0.237951
-0.227584
-0.218416
-0.21035
-0.203069
-0.196985
-0.191123
-0.310147
-0.305009
-0.309547
-0.299348
-0.287999
-0.276258
-0.264159
-0.252376
-0.241518
-0.231848
-0.223354
-0.21592
-0.209162
-0.203539
-0.198148
-0.305193
-0.30712
-0.302642
-0.296192
-0.288191
-0.277721
-0.26615
-0.254918
-0.244744
-0.23582
-0.228048
-0.221288
-0.215098
-0.209988
-0.205163
-0.301882
-0.307811
-0.294533
-0.294878
-0.289314
-0.279119
-0.267797
-0.257104
-0.247653
-0.239521
-0.232514
-0.226473
-0.220889
-0.216333
-0.212175
-0.299671
-0.30611
-0.289591
-0.296305
-0.290707
-0.280123
-0.269053
-0.258945
-0.250253
-0.242962
-0.236767
-0.231483
-0.22655
-0.222586
-0.219175
-0.298097
-0.302427
-0.290558
-0.298574
-0.291306
-0.280633
-0.269974
-0.260448
-0.252533
-0.246142
-0.240816
-0.236334
-0.23209
-0.228754
-0.226169
-0.296657
-0.297978
-0.295357
-0.298079
-0.290687
-0.280789
-0.270546
-0.261541
-0.254459
-0.249064
-0.244672
-0.241028
-0.237525
-0.234853
-0.233168
-0.295105
-0.294337
-0.298727
-0.293773
-0.289492
-0.280753
-0.270631
-0.262113
-0.255996
-0.251727
-0.248344
-0.245577
-0.242859
-0.240903
-0.240212
-0.293312
-0.292049
-0.298957
-0.289243
-0.289137
-0.28021
-0.269917
-0.262065
-0.257136
-0.254148
-0.251839
-0.249976
-0.248106
-0.246926
-0.247333
-0.291254
-0.290626
-0.295978
-0.289223
-0.289053
-0.2786
-0.268266
-0.261376
-0.257881
-0.256333
-0.255167
-0.254222
-0.253264
-0.25296
-0.254563
-0.289066
-0.289164
-0.291356
-0.291633
-0.285895
-0.275397
-0.265721
-0.260097
-0.258277
-0.258309
-0.25832
-0.258306
-0.258341
-0.259027
-0.26194
-0.286956
-0.287336
-0.287573
-0.291243
-0.279668
-0.271155
-0.262319
-0.258254
-0.258365
-0.260093
-0.261301
-0.262215
-0.263342
-0.265179
-0.269489
-0.284994
-0.285411
-0.284961
-0.287001
-0.27586
-0.266493
-0.258122
-0.256028
-0.258288
-0.261715
-0.264077
-0.265948
-0.268279
-0.271447
-0.277281
-0.283264
-0.283642
-0.28293
-0.281937
-0.275075
-0.260228
-0.253462
-0.253784
-0.258199
-0.263188
-0.26663
-0.269494
-0.273203
-0.277895
-0.285349
-0.281887
-0.282267
-0.281356
-0.278803
-0.272973
-0.255158
-0.249416
-0.25205
-0.258336
-0.264489
-0.26892
-0.272894
-0.278144
-0.284587
-0.293802
-0.281002
-0.281438
-0.280483
-0.277528
-0.270018
-0.255739
-0.246295
-0.251445
-0.258853
-0.265592
-0.270929
-0.276187
-0.283208
-0.291563
-0.302686
-0.280772
-0.281328
-0.280497
-0.277704
-0.270253
-0.259183
-0.246283
-0.252894
-0.259809
-0.266414
-0.272698
-0.279452
-0.288432
-0.29895
-0.312091
-0.281366
-0.28211
-0.281559
-0.279286
-0.272867
-0.26261
-0.252582
-0.256238
-0.261003
-0.26698
-0.274229
-0.282777
-0.293928
-0.306711
-0.322124
-0.282965
-0.283942
-0.283838
-0.282399
-0.277237
-0.268096
-0.264197
-0.260566
-0.26229
-0.267272
-0.275583
-0.286131
-0.299736
-0.315047
-0.332764
-0.285603
-0.286883
-0.287631
-0.287134
-0.283378
-0.275921
-0.271679
-0.265656
-0.262999
-0.266984
-0.276594
-0.289545
-0.305845
-0.323864
-0.344248
-0.289158
-0.290723
-0.292334
-0.293256
-0.291225
-0.285526
-0.278719
-0.270615
-0.262366
-0.26569
-0.276919
-0.29274
-0.312357
-0.333306
-0.356409
-0.293299
-0.295046
-0.297556
-0.300054
-0.300013
-0.295981
-0.286994
-0.274463
-0.262098
-0.263006
-0.276161