/*--------------------------------*- C++ -*----------------------------------*\
  =========                 |
  \\      /  F ield         | OpenFOAM: The Open Source CFD Toolbox
   \\    /   O peration     | Website:  https://openfoam.org
    \\  /    A nd           | Version:  7
     \\/     M anipulation  |
\*---------------------------------------------------------------------------*/
FoamFile
{
    version     2.0;
    format      ascii;
    class       surfaceScalarField;
    location    "10.9989";
    object      phi;
}
// * * * * * * * * * * * * * * * * * * * * * * * * * * * * * * * * * * * * * //

dimensions      [0 3 -1 0 0 0 0];

internalField   nonuniform List<scalar> 
37105
(
-1.33707e-05
1.33719e-05
-1.21135e-09
-3.06752e-05
1.73062e-05
-1.67497e-09
-4.84729e-05
1.77995e-05
-1.89533e-09
-6.70362e-05
1.85655e-05
-2.20795e-09
-8.6483e-05
1.94494e-05
-2.56796e-09
-0.000106944
2.0464e-05
-2.9549e-09
-0.000128532
2.1591e-05
-3.3465e-09
-0.000151337
2.28095e-05
-3.72098e-09
-0.000175436
2.41022e-05
-4.0582e-09
-0.000200868
2.54362e-05
-4.33841e-09
-0.000227635
2.67717e-05
-4.54296e-09
-0.00025565
2.80197e-05
-4.6508e-09
-0.000284694
2.90489e-05
-4.64305e-09
-0.000314414
2.97241e-05
-4.51033e-09
3.0075e-05
-4.26436e-09
-0.000344484
-1.31547e-05
2.65266e-05
-3.02491e-05
3.44007e-05
-4.78319e-05
3.53823e-05
-6.61492e-05
3.68828e-05
-8.53091e-05
3.86093e-05
-0.000105427
4.05822e-05
-0.000126601
4.27648e-05
-0.000148906
4.5114e-05
-0.000172398
4.75942e-05
-0.000197099
5.01377e-05
-0.000222992
5.2665e-05
-0.00024998
5.50077e-05
-0.000277854
5.69228e-05
-0.000306278
5.81477e-05
5.87032e-05
-0.000334906
-1.27275e-05
3.9254e-05
-2.94077e-05
5.10809e-05
-4.65683e-05
5.25429e-05
-6.44059e-05
5.47204e-05
-8.3011e-05
5.72144e-05
-0.000102472
6.00437e-05
-0.000122863
6.31549e-05
-0.000144231
6.6482e-05
-0.000166608
6.99713e-05
-0.00018999
7.35205e-05
-0.00021434
7.70142e-05
-0.000239553
8.02214e-05
-0.00026545
8.28198e-05
-0.000291728
8.44258e-05
8.4977e-05
-0.000318002
-1.20996e-05
5.13537e-05
-2.81717e-05
6.71529e-05
-4.47161e-05
6.90873e-05
-6.18622e-05
7.18665e-05
-7.96774e-05
7.50296e-05
-9.82165e-05
7.85829e-05
-0.000117522
8.24608e-05
-0.000137618
8.65775e-05
-0.000158512
9.0865e-05
-0.000180182
9.51904e-05
-0.000202578
9.9411e-05
-0.000225609
0.000103252
-0.000249135
0.000106345
-0.000272897
0.000108188
0.000108548
-0.000296467
-1.12899e-05
6.26436e-05
-2.65686e-05
8.24316e-05
-4.23199e-05
8.48386e-05
-5.85915e-05
8.81381e-05
-7.54219e-05
9.18599e-05
-9.28285e-05
9.59894e-05
-0.000110825
0.000100458
-0.000129413
0.000105165
-0.000148586
0.000110038
-0.000168314
0.000114919
-0.000188553
0.000119649
-0.000209223
0.000123923
-0.000230223
0.000127345
-0.000251333
0.000129297
0.000129306
-0.000272091
-1.03433e-05
7.29869e-05
-2.46294e-05
9.67178e-05
-3.94313e-05
9.96405e-05
-5.46775e-05
0.000103384
-7.03699e-05
0.000107552
-8.64877e-05
0.000112107
-0.000103019
0.000116989
-0.000119947
0.000122093
-0.00013726
0.00012735
-0.000154929
0.000132589
-0.000172917
0.000137637
-0.000191157
0.000142163
-0.00020956
0.000145748
-0.000227936
0.000147674
0.000147186
-0.000245816
-9.21473e-06
8.22016e-05
-2.2369e-05
0.000109872
-3.61032e-05
0.000113375
-5.02074e-05
0.000117488
-6.46477e-05
0.000121993
-7.93685e-05
0.000126828
-9.43341e-05
0.000131955
-0.000109514
0.000137273
-0.000124894
0.000142729
-0.000140451
0.000148146
-0.000156151
0.000153337
-0.00017193
0.000157943
-0.000187695
0.000161512
-0.000203285
0.000163263
0.000162184
-0.000218283
-7.9157e-06
9.01173e-05
-1.98114e-05
0.000121768
-3.23893e-05
0.000125953
-4.52666e-05
0.000130366
-5.83763e-05
0.000135102
-7.16326e-05
0.000140084
-8.49779e-05
0.0001453
-9.83689e-05
0.000150664
-0.000111788
0.000156148
-0.000125215
0.000161573
-0.000138621
0.000166743
-0.000151934
0.000171256
-0.000165049
0.000174628
-0.00017785
0.000176064
0.00017439
-0.000190057
-6.46887e-06
9.65862e-05
-1.69875e-05
0.000132286
-2.83435e-05
0.000137309
-3.99363e-05
0.000141959
-5.16671e-05
0.000146833
-6.34253e-05
0.000151843
-7.51317e-05
0.000157006
-8.67271e-05
0.00016226
-9.8187e-05
0.000167608
-0.000109493
0.000172879
-0.000120617
0.000177867
-0.000131483
0.000182122
-0.000141982
0.000185127
-0.000152039
0.000186122
0.000183948
-0.000161597
-4.88785e-06
0.000101474
-1.39308e-05
0.000141329
-2.40205e-05
0.000147398
-3.42913e-05
0.000152229
-4.46199e-05
0.000157162
-5.48751e-05
0.000162098
-6.49527e-05
0.000167084
-7.47741e-05
0.000172081
-8.43029e-05
0.000177137
-9.35165e-05
0.000182093
-0.000102389
0.000186739
-0.000110853
0.000190585
-0.000118803
0.000193077
-0.00012619
0.000193509
0.00019097
-0.000133213
-3.1751e-06
0.000104649
-1.06789e-05
0.000148833
-1.94693e-05
0.000156189
-2.83975e-05
0.000161158
-3.73236e-05
0.000166088
-4.60934e-05
0.000170868
-5.45756e-05
0.000175566
-6.26673e-05
0.000180173
-7.03143e-05
0.000184784
-7.74841e-05
0.000189263
-8.41526e-05
0.000193408
-9.02749e-05
0.000196708
-9.57679e-05
0.00019857
-0.000100564
0.000198305
0.00019546
-0.000105053
-1.30595e-06
0.000105955
-7.28047e-06
0.000154808
-1.47336e-05
0.000163642
-2.23129e-05
0.000168737
-2.98548e-05
0.00017363
-3.71766e-05
0.000178189
-4.41152e-05
0.000182505
-5.05406e-05
0.000186598
-5.63758e-05
0.000190619
-6.15729e-05
0.00019446
-6.61029e-05
0.000197938
-6.99488e-05
0.000200554
-7.30834e-05
0.000201704
-7.53859e-05
0.000200607
0.000197133
-7.70591e-05
6.12896e-07
0.000105342
-3.79075e-06
0.000159211
-9.83844e-06
0.000169689
-1.60885e-05
0.000174987
-2.22814e-05
0.000179823
-2.82064e-05
0.000184114
-3.36668e-05
0.000187965
-3.85058e-05
0.000191437
-4.26171e-05
0.000194731
-4.59319e-05
0.000197775
-4.84085e-05
0.000200414
-5.00415e-05
0.000202187
-5.09e-05
0.000202563
-5.08836e-05
0.000200591
0.000195863
-4.96134e-05
2.37366e-06
0.000102969
-3.00547e-07
0.000161886
-4.81691e-06
0.000174206
-9.7773e-06
0.000179947
-1.46593e-05
0.000184705
-1.92522e-05
0.000188707
-2.33104e-05
0.000192023
-2.66555e-05
0.000194782
-2.91458e-05
0.000197221
-3.06885e-05
0.000199317
-3.12257e-05
0.000200952
-3.0724e-05
0.000201685
-2.93117e-05
0.00020115
-2.73252e-05
0.000198604
0.000191947
-2.34096e-05
4.28147e-06
9.8687e-05
3.56614e-06
0.000162601
2.38944e-07
0.000177533
-3.42667e-06
0.000183613
-7.04655e-06
0.000188324
-1.0372e-05
0.000192033
-1.31097e-05
0.000194761
-1.50632e-05
0.000196736
-1.60471e-05
0.000198205
-1.59383e-05
0.000199208
-1.4666e-05
0.000199679
-1.21461e-05
0.000199165
-8.52822e-06
0.000197533
-3.92733e-06
0.000194003
0.000186885
1.13417e-06
6.24051e-06
9.24465e-05
7.41521e-06
0.000161426
5.57915e-06
0.000179369
3.00736e-06
0.000186185
4.55619e-07
0.000190876
-1.63207e-06
0.00019412
-3.13557e-06
0.000196265
-3.79182e-06
0.000197392
-3.38664e-06
0.0001978
-1.7538e-06
0.000197576
1.22295e-06
0.000196703
5.58561e-06
0.000194802
1.13185e-05
0.0001918
1.81314e-05
0.000187191
0.000178621
2.63957e-05
8.17664e-06
8.42699e-05
1.12762e-05
0.000158327
1.0856e-05
0.000179789
9.49557e-06
0.000187545
8.13324e-06
0.000192239
7.08217e-06
0.000195172
6.66836e-06
0.000196678
7.15768e-06
0.000196903
8.7982e-06
0.000196159
1.17898e-05
0.000194584
1.62334e-05
0.000192259
2.23358e-05
0.0001887
3.02477e-05
0.000183888
3.91198e-05
0.000178318
0.000167749
4.99922e-05
1.00129e-05
7.4257e-05
1.50806e-05
0.000153259
1.6111e-05
0.000178759
1.59153e-05
0.000187741
1.56117e-05
0.000192542
1.56069e-05
0.000195176
1.62163e-05
0.000196069
1.77386e-05
0.00019538
2.04721e-05
0.000193425
2.46965e-05
0.00019036
3.04951e-05
0.000186461
3.80523e-05
0.000181143
4.80686e-05
0.000173871
5.90586e-05
0.000167328
0.000154511
7.22965e-05
1.16368e-05
6.26202e-05
1.87116e-05
0.000146184
2.12882e-05
0.000176182
2.22545e-05
0.000186775
2.2958e-05
0.000191839
2.39165e-05
0.000194218
2.5468e-05
0.000194518
2.79353e-05
0.000192913
3.16296e-05
0.000189731
3.69499e-05
0.000185039
4.40497e-05
0.000179361
5.27443e-05
0.000172448
6.46676e-05
0.000161948
7.76802e-05
0.000154316
0.000138881
9.33096e-05
1.28679e-05
4.97523e-05
2.20098e-05
0.000137042
2.63004e-05
0.000171892
2.84745e-05
0.0001846
3.01527e-05
0.00019016
3.20045e-05
0.000192366
3.44186e-05
0.000192103
3.7751e-05
0.000189581
4.22881e-05
0.000185194
4.8504e-05
0.000178823
5.6934e-05
0.000170931
6.64743e-05
0.000162908
8.01227e-05
0.0001483
9.51363e-05
0.000139302
0.000120853
0.000113164
1.34014e-05
3.63509e-05
2.4773e-05
0.000125671
3.10308e-05
0.000165634
3.45067e-05
0.000181125
3.71542e-05
0.000187513
3.98552e-05
0.000189665
4.30598e-05
0.000188899
4.71858e-05
0.000185455
5.25068e-05
0.000179873
5.93485e-05
0.000171982
6.91373e-05
0.000161142
7.93557e-05
0.00015269
9.41416e-05
0.000133514
0.000111003
0.000122441
9.95541e-05
0.000132302
1.2854e-05
2.34969e-05
2.67963e-05
0.000111728
3.5309e-05
0.000157121
4.02361e-05
0.000176197
4.39046e-05
0.000183844
4.74437e-05
0.000186126
5.13687e-05
0.000184974
5.62e-05
0.000180623
6.2365e-05
0.000173708
6.95508e-05
0.000164796
8.06859e-05
0.000150007
9.18447e-05
0.000141531
0.000107369
0.000117989
0.000124548
0.000105262
7.46619e-05
0.00014944
1.11249e-05
1.2372e-05
2.79384e-05
9.49148e-05
3.88959e-05
0.000146164
4.5513e-05
0.00016958
5.03257e-05
0.000179032
5.47286e-05
0.000181723
5.93435e-05
0.000180359
6.47058e-05
0.000175261
7.1837e-05
0.000166577
7.91839e-05
0.000157449
9.12996e-05
0.000137891
0.000103841
0.000128989
0.000121081
0.00010075
0.000137582
8.87601e-05
4.74745e-05
0.00016477
8.67963e-06
3.6924e-06
2.79717e-05
7.56227e-05
4.14848e-05
0.000132651
5.015e-05
0.000160915
5.63148e-05
0.000172867
6.16248e-05
0.000176413
6.69651e-05
0.000175019
7.26741e-05
0.000169552
8.08676e-05
0.000158383
8.85549e-05
0.000149762
0.000100947
0.000125499
0.000114477
0.000115459
0.000134508
8.07197e-05
0.000151419
7.1849e-05
1.90223e-05
0.000179871
6.08745e-06
-2.39506e-06
2.64876e-05
5.52226e-05
4.27804e-05
0.000116358
5.39329e-05
0.000149762
6.1715e-05
0.000165085
6.79996e-05
0.000170129
7.41835e-05
0.000168835
8.00642e-05
0.000163671
8.91361e-05
0.000149311
9.78581e-05
0.00014104
0.000110365
0.000112993
0.000124064
0.000101759
0.000146392
5.83922e-05
0.000165409
5.28314e-05
-1.00293e-05
0.000194461
3.58134e-06
-5.9764e-06
2.30809e-05
3.5723e-05
4.24888e-05
9.69499e-05
5.65563e-05
0.000135695
6.62897e-05
0.000155352
7.36171e-05
0.000162801
8.08381e-05
0.000161614
8.69873e-05
0.000157522
9.62306e-05
0.000140068
0.000106439
0.000130831
0.000119696
9.97354e-05
0.000133675
8.77799e-05
0.000156504
3.55631e-05
0.000178117
3.12187e-05
-3.97625e-05
0.00020785
1.40681e-06
-7.38321e-06
1.8126e-05
1.90038e-05
4.0431e-05
7.4645e-05
5.75412e-05
0.000118585
6.96822e-05
0.000143211
7.82359e-05
0.000154247
8.65679e-05
0.000153282
9.34702e-05
0.00015062
0.000102216
0.000131323
0.000113438
0.000119609
0.000127486
8.56873e-05
0.000143676
7.15903e-05
0.000163653
1.55854e-05
0.000189171
5.70076e-06
-6.92838e-05
0.000218693
1.43973e-07
-7.52718e-06
1.27142e-05
6.43364e-06
3.62857e-05
5.10734e-05
5.63194e-05
9.8551e-05
7.13857e-05
0.000128144
8.15786e-05
0.000144055
9.09012e-05
0.000143959
9.91206e-05
0.000142401
0.000107335
0.000123108
0.000119378
0.000107566
0.000131687
7.33783e-05
0.000151972
5.13052e-05
0.000167891
-3.33906e-07
0.00019851
-2.49177e-05
-9.62088e-05
0.000225435
-2.30518e-07
-7.29666e-06
8.18093e-06
-1.97781e-06
2.97278e-05
2.95266e-05
5.23363e-05
7.59424e-05
7.072e-05
0.000109761
8.31665e-05
0.000131608
9.32995e-05
0.000133826
0.000103086
0.000132614
0.000110887
0.000115307
0.000124015
9.44377e-05
0.000134732
6.26619e-05
0.000157983
2.80538e-05
0.00017048
-1.28309e-05
0.000205992
-6.04298e-05
-0.000117315
0.000227098
2.9695e-08
-7.32636e-06
5.11019e-06
-7.05831e-06
2.2109e-05
1.25278e-05
4.54916e-05
5.25599e-05
6.68538e-05
8.83983e-05
8.22903e-05
0.000116172
9.30591e-05
0.000123057
0.00010469
0.000120984
0.00011314
0.000106857
0.000126271
8.13065e-05
0.000136472
5.24606e-05
0.000161029
3.49721e-06
0.000171045
-2.28471e-05
0.000207951
-9.73356e-05
-0.000125867
0.000216503
5.12479e-07
-7.83884e-06
3.98244e-06
-1.05283e-05
1.56196e-05
8.90643e-07
3.66313e-05
3.15482e-05
5.91814e-05
6.58482e-05
7.79381e-05
9.74148e-05
9.00942e-05
0.000110901
0.000102147
0.000108931
0.000112188
9.68164e-05
0.000124893
6.86013e-05
0.00013541
4.19443e-05
0.000156421
-1.7514e-05
0.000165806
-3.22318e-05
0.000194812
-0.000126342
-0.000123538
0.000192483
1.12971e-06
-8.96855e-06
4.2003e-06
-1.35989e-05
1.15778e-05
-6.48682e-06
2.778e-05
1.53459e-05
4.85721e-05
4.50561e-05
6.90625e-05
7.69244e-05
8.36482e-05
9.63155e-05
9.54124e-05
9.71663e-05
0.000105888
8.63409e-05
0.000117926
5.65633e-05
0.000128714
3.11561e-05
0.000138339
-2.71394e-05
0.000150676
-4.45684e-05
0.000162896
-0.000138562
-0.000157881
0.000197238
1.6965e-06
-1.0665e-05
4.75308e-06
-1.66554e-05
9.74372e-06
-1.14775e-05
2.07383e-05
4.35132e-06
3.71884e-05
2.86061e-05
5.62629e-05
5.78499e-05
7.21545e-05
8.04238e-05
8.4381e-05
8.49398e-05
9.32988e-05
7.74231e-05
0.000104633
4.52286e-05
0.000113483
2.23063e-05
0.000115492
-2.91484e-05
0.000136863
-6.59391e-05
0.000164211
-0.00016591
-0.000229499
0.000235829
2.02117e-06
-1.26862e-05
4.91608e-06
-1.95503e-05
8.62893e-06
-1.51903e-05
1.54928e-05
-2.5125e-06
2.67948e-05
1.73041e-05
4.17987e-05
4.2846e-05
5.65939e-05
6.56285e-05
6.82632e-05
7.32705e-05
7.651e-05
6.91763e-05
8.36348e-05
3.81039e-05
8.96179e-05
1.63232e-05
9.97289e-05
-3.92594e-05
0.000143752
-0.000109963
0.000199535
-0.000221693
-0.000290175
0.000260212
1.95079e-06
-1.4637e-05
4.24206e-06
-2.18416e-05
6.82017e-06
-1.77684e-05
1.07867e-05
-6.47904e-06
1.75868e-05
1.05039e-05
2.76596e-05
3.27733e-05
3.90329e-05
5.42552e-05
4.88938e-05
6.34096e-05
5.55533e-05
6.25168e-05
5.60458e-05
3.76113e-05
7.03995e-05
1.9695e-06
0.000107541
-7.64011e-05
0.000172452
-0.000174873
0.000222888
-0.000272129
-0.00033369
0.000266402
1.41397e-06
-1.6051e-05
2.57628e-06
-2.30039e-05
3.69974e-06
-1.88919e-05
5.43836e-06
-8.21766e-06
8.7202e-06
7.22209e-06
1.43074e-05
2.7186e-05
2.13171e-05
4.72455e-05
2.74916e-05
5.72352e-05
2.97253e-05
6.02832e-05
3.69546e-05
3.0382e-05
7.58878e-05
-3.69636e-05
0.000136951
-0.000137464
0.00019721
-0.000235132
0.000237159
-0.000312078
-0.00037211
0.000275579
4.499e-07
-1.65009e-05
-1.19788e-09
-2.25528e-05
-6.6464e-07
-1.82284e-05
-1.03739e-06
-7.84491e-06
-7.23269e-07
6.90797e-06
1.11213e-06
2.53506e-05
3.0274e-06
4.53302e-05
4.5674e-06
5.56952e-05
1.12216e-05
5.3629e-05
4.31421e-05
-1.53852e-06
0.000104821
-9.86429e-05
0.000165073
-0.000197716
0.000212902
-0.000282961
0.000248621
-0.000347797
-0.000395556
0.000272068
-7.751e-07
-1.57258e-05
-2.93055e-06
-2.03974e-05
-5.55012e-06
-1.56089e-05
-8.13636e-06
-5.25867e-06
-1.03892e-05
9.16083e-06
-1.24981e-05
2.74595e-05
-1.42412e-05
4.70734e-05
-1.13853e-05
5.28393e-05
1.49666e-05
2.72771e-05
7.12761e-05
-5.78481e-05
0.000134144
-0.000161511
0.00018566
-0.000249232
0.000224632
-0.000321934
0.000248982
-0.000372147
-0.000414934
0.00026836
-2.01963e-06
-1.37061e-05
-5.83053e-06
-1.65865e-05
-1.02246e-05
-1.12149e-05
-1.46861e-05
-7.97079e-07
-1.87258e-05
1.32005e-05
-2.16852e-05
3.0419e-05
-2.20325e-05
4.74206e-05
-7.34341e-06
3.81502e-05
3.98388e-05
-1.99051e-05
0.000102676
-0.000120686
0.000157477
-0.000216311
0.000199522
-0.000291277
0.000227355
-0.000349767
0.000247674
-0.000392466
-0.000430937
0.000263676
-3.00034e-06
-1.07058e-05
-8.00184e-06
-1.1585e-05
-1.35221e-05
-5.69456e-06
-1.85771e-05
4.25785e-06
-2.23226e-05
1.69461e-05
-2.25595e-05
3.06558e-05
-1.67728e-05
4.16339e-05
1.38825e-05
7.49491e-06
7.16922e-05
-7.77149e-05
0.000128693
-0.000177686
0.000173487
-0.000261105
0.000205295
-0.000323085
0.000227696
-0.000372168
0.000243691
-0.000408461
-0.000441969
0.000254723
-3.52101e-06
-7.1848e-06
-9.02038e-06
-6.08561e-06
-1.46537e-05
-6.12416e-08
-1.90558e-05
8.65997e-06
-2.05565e-05
1.84467e-05
-1.66399e-05
2.67392e-05
-1.12837e-06
2.61224e-05
4.22799e-05
-3.59133e-05
9.90365e-05
-0.000134472
0.000147187
-0.000225837
0.000182243
-0.000296161
0.000207386
-0.000348229
0.000224473
-0.000389255
0.000236445
-0.000420432
-0.000453684
0.00024816
-3.55456e-06
-3.63024e-06
-8.88138e-06
-7.58784e-07
-1.38577e-05
4.9151e-06
-1.67168e-05
1.15191e-05
-1.51334e-05
1.68633e-05
-7.71411e-06
1.93199e-05
1.81486e-05
2.5966e-07
6.90722e-05
-8.68369e-05
0.000119404
-0.000184803
0.000158603
-0.000265035
0.000186322
-0.00032388
0.000205518
-0.000367425
0.000218736
-0.000402473
0.00023023
-0.000431926
-0.000462835
0.000239381
-3.22281e-06
-4.0743e-07
-7.93024e-06
3.94864e-06
-1.18777e-05
8.86259e-06
-1.30993e-05
1.27406e-05
-9.36052e-06
1.31245e-05
2.06864e-06
7.89076e-06
3.88793e-05
-3.6551e-05
9.01706e-05
-0.000138128
0.00013328
-0.000227913
0.000164772
-0.000296528
0.000186196
-0.000345304
0.000201307
-0.000382536
0.000212897
-0.000414062
0.000222114
-0.000441143
-0.000471563
0.000230842
-2.71731e-06
2.30988e-06
-6.61875e-06
7.85009e-06
-9.57374e-06
1.18176e-05
-9.68499e-06
1.28519e-05
-5.51722e-06
8.95675e-06
1.30356e-05
-1.0662e-05
5.96302e-05
-8.31456e-05
0.000106142
-0.00018464
0.000141836
-0.000263606
0.000166617
-0.000321309
0.000183564
-0.000362251
0.000196176
-0.000395149
0.000205502
-0.000423388
0.000214297
-0.000449938
-0.000480006
0.00022274
-2.19237e-06
4.50225e-06
-5.32066e-06
1.09784e-05
-7.55609e-06
1.4053e-05
-7.35449e-06
1.26503e-05
-1.88874e-06
3.491e-06
2.70669e-05
-3.96177e-05
7.76525e-05
-0.000133731
0.000117558
-0.000224546
0.000146087
-0.000292135
0.0001657
-0.000340923
0.000179404
-0.000375954
0.000189664
-0.000405408
0.000198278
-0.000432002
0.000206466
-0.000458126
-0.000487289
0.000213748
-1.75894e-06
6.2612e-06
-4.26153e-06
1.3481e-05
-6.06007e-06
1.58516e-05
-6.08338e-06
1.26736e-05
5.61116e-06
-8.20354e-06
4.536e-05
-7.93665e-05
9.08834e-05
-0.000179255
0.000124371
-0.000258034
0.000147302
-0.000315065
0.000162878
-0.000356499
0.000173984
-0.00038706
0.000183107
-0.000414532
0.000190786
-0.000439681
0.00019818
-0.00046552
-0.000494583
0.000205475
-1.45496e-06
7.71616e-06
-3.51205e-06
1.55381e-05
-4.91442e-06
1.72539e-05
-4.50487e-06
1.2264e-05
1.69917e-05
-2.97001e-05
6.25035e-05
-0.000124878
0.000100336
-0.000217087
0.000127783
-0.000285481
0.000146253
-0.000333536
0.000158755
-0.000369001
0.000168211
-0.000396516
0.00017608
-0.000422401
0.000183081
-0.000446681
0.000190297
-0.000472736
-0.000501087
0.000196801
-1.2589e-06
8.97506e-06
-2.9169e-06
1.71961e-05
-4.08866e-06
1.84257e-05
1.23452e-06
6.94084e-06
3.22573e-05
-6.07229e-05
7.42656e-05
-0.000166887
0.000106415
-0.000249236
0.000128679
-0.000307745
0.00014358
-0.000348436
0.000153881
-0.000379303
0.00016189
-0.000404525
0.000168992
-0.000429503
0.000175603
-0.000453292
0.000182154
-0.000479286
-0.000507235
0.000188301
-1.12228e-06
1.00973e-05
-2.36412e-06
1.84379e-05
-3.51591e-06
1.95775e-05
9.52156e-06
-6.09663e-06
4.78967e-05
-9.90981e-05
8.30243e-05
-0.000202014
0.000109721
-0.000275933
0.000127759
-0.000325783
0.000139842
-0.000360519
0.000148407
-0.000387868
0.000155505
-0.000411623
0.000161926
-0.000435924
0.000167936
-0.000459303
0.000174138
-0.000485488
-0.000512906
0.000179809
-9.82509e-07
1.10798e-05
-1.6028e-06
1.90582e-05
-1.60564e-06
1.95803e-05
1.91517e-05
-2.68539e-05
5.86276e-05
-0.000138574
8.92345e-05
-0.000232621
0.000110916
-0.000297614
0.000125437
-0.000340305
0.000135314
-0.000370396
0.000142663
-0.000395217
0.000148953
-0.000417913
0.000154762
-0.000441733
0.00016043
-0.00046497
0.000166136
-0.000491193
-0.000518099
0.000171329
-6.84577e-07
1.17644e-05
-1.09846e-06
1.94721e-05
2.97731e-06
1.55045e-05
3.141e-05
-5.52866e-05
6.6284e-05
-0.000173448
9.28085e-05
-0.000259146
0.000110513
-0.000315318
0.000122171
-0.000351962
0.000130342
-0.000378568
0.000136689
-0.000401564
0.000142373
-0.000423597
0.000147714
-0.000447073
0.000152906
-0.000470163
0.000158146
-0.000496433
-0.000522845
0.000162891
-4.25858e-07
1.21903e-05
-1.08224e-06
2.01285e-05
8.63817e-06
5.78412e-06
4.2657e-05
-8.93055e-05
7.24009e-05
-0.000203192
9.4302e-05
-0.000281047
0.000108714
-0.00032973
0.000118178
-0.000361426
0.00012502
-0.00038541
0.000130623
-0.000407167
0.000135776
-0.000428749
0.000140624
-0.000451921
0.00014543
-0.000474969
0.000150207
-0.000501211
-0.000527159
0.000154522
-2.4827e-07
1.24386e-05
-9.07579e-07
2.07878e-05
1.43981e-05
-9.52155e-06
5.01356e-05
-0.000125043
7.64344e-05
-0.000229491
9.43494e-05
-0.000298962
0.000105964
-0.000341344
0.000113704
-0.000369167
0.000119536
-0.000391242
0.000124501
-0.000412133
0.000129173
-0.000433421
0.000133606
-0.000456354
0.000137997
-0.000479361
0.000142325
-0.000505539
-0.000531068
0.000146234
-2.5163e-08
1.24637e-05
4.46481e-07
2.03161e-05
2.19181e-05
-3.09932e-05
5.48048e-05
-0.00015793
7.8553e-05
-0.000253239
9.33197e-05
-0.000313728
0.000102555
-0.000350579
0.000108893
-0.000375505
0.000113905
-0.000396255
0.000118348
-0.000416575
0.000122584
-0.000437657
0.000126595
-0.000460365
0.000130592
-0.000483357
0.000134442
-0.000509389
-0.000534597
0.000137971
4.72983e-08
1.24164e-05
3.16614e-06
1.71973e-05
2.9832e-05
-5.7659e-05
5.85823e-05
-0.00018668
7.88824e-05
-0.000273539
9.11475e-05
-0.000325994
9.86273e-05
-0.000358059
0.00010388
-0.000380757
0.000108234
-0.000400609
0.000112204
-0.000420545
0.000116017
-0.00044147
0.000119629
-0.000463977
0.00012321
-0.000486939
0.000126637
-0.000512816
-0.000537791
0.000129831
-6.66581e-08
1.24831e-05
6.42398e-06
1.07066e-05
3.65553e-05
-8.77904e-05
6.12022e-05
-0.000211327
7.80528e-05
-0.00029039
8.81611e-05
-0.000336102
9.4314e-05
-0.000364212
9.87347e-05
-0.000385178
0.000102525
-0.000404399
0.000106061
-0.000424081
0.00010947
-0.000444879
0.000112687
-0.000467194
0.000115877
-0.000490129
0.000118841
-0.00051578
-0.000540554
0.000121604
-2.25175e-07
1.27083e-05
9.78384e-06
6.97631e-07
4.10529e-05
-0.000119059
6.27206e-05
-0.000232995
7.6433e-05
-0.000304102
8.46052e-05
-0.000344274
8.97066e-05
-0.000369314
9.34954e-05
-0.000388967
9.68213e-05
-0.000407725
9.99512e-05
-0.000427211
0.000102963
-0.000447891
0.000105791
-0.000470022
0.000108557
-0.000492896
0.000111104
-0.000518326
-0.000542987
0.000113537
-4.40801e-07
1.31491e-05
1.35926e-05
-1.33358e-05
4.30522e-05
-0.000148519
6.29307e-05
-0.000252873
7.42546e-05
-0.000315426
8.07697e-05
-0.000350789
8.49606e-05
-0.000373504
8.82135e-05
-0.000392219
9.11204e-05
-0.000410632
9.38629e-05
-0.000429953
9.64828e-05
-0.000450511
9.89219e-05
-0.000472461
0.000101301
-0.000495275
0.000103422
-0.000520447
-0.000544964
0.000105399
-7.75926e-07
1.3925e-05
1.8027e-05
-3.21387e-05
4.42048e-05
-0.000174697
6.18561e-05
-0.000270524
7.1486e-05
-0.000325056
7.6718e-05
-0.000356021
8.0143e-05
-0.000376929
8.29181e-05
-0.000394995
8.54426e-05
-0.000413156
8.78137e-05
-0.000432324
9.00515e-05
-0.000452749
9.2109e-05
-0.000474518
9.40666e-05
-0.000497233
9.57733e-05
-0.000522154
-0.00054662
9.74295e-05
-2.9139e-07
1.42164e-05
2.1878e-05
-5.43081e-05
4.49267e-05
-0.000197746
6.00287e-05
-0.000285626
6.81877e-05
-0.000333215
7.25079e-05
-0.000360342
7.53231e-05
-0.000379745
7.7656e-05
-0.000397327
7.97987e-05
-0.000415299
8.17993e-05
-0.000434325
8.36549e-05
-0.000454604
8.53241e-05
-0.000476187
8.6893e-05
-0.000498802
8.82063e-05
-0.000523467
-0.000547867
8.94533e-05
6.03603e-07
1.36128e-05
2.49947e-05
-7.86992e-05
4.50388e-05
-0.00021779
5.77468e-05
-0.000298334
6.45366e-05
-0.000340005
6.81429e-05
-0.000363948
7.04884e-05
-0.00038209
7.24271e-05
-0.000399266
7.42e-05
-0.000417072
7.58323e-05
-0.000435957
7.73109e-05
-0.000456083
7.8602e-05
-0.000477478
7.97576e-05
-0.000499958
8.06661e-05
-0.000524375
-0.00054879
8.15892e-05
1.91055e-06
1.17022e-05
2.71289e-05
-0.000103918
4.47294e-05
-0.00023539
5.52141e-05
-0.000308819
6.07293e-05
-0.00034552
6.371e-05
-0.000366929
6.56634e-05
-0.000384043
6.72458e-05
-0.000400849
6.86541e-05
-0.00041848
6.99151e-05
-0.000437218
7.10125e-05
-0.00045718
7.19144e-05
-0.00047838
7.26792e-05
-0.000500722
7.32119e-05
-0.000524908
-0.000549312
7.37335e-05
3.82678e-06
7.87543e-06
2.82606e-05
-0.000128351
4.40068e-05
-0.000251136
5.25302e-05
-0.000317342
5.6875e-05
-0.000349865
5.92585e-05
-0.000369312
6.08483e-05
-0.000385633
6.20993e-05
-0.0004021
6.31584e-05
-0.00041954
6.40527e-05
-0.000438113
6.47723e-05
-0.0004579
6.52955e-05
-0.000478903
6.56545e-05
-0.000501081
6.57735e-05
-0.000525027
-0.00054942
6.58814e-05
6.15399e-06
1.72145e-06
2.8305e-05
-0.000150502
4.27284e-05
-0.00026556
4.9738e-05
-0.000324352
5.30415e-05
-0.000353168
5.48517e-05
-0.000371122
5.60763e-05
-0.000386858
5.70019e-05
-0.000403025
5.77177e-05
-0.000420255
5.82478e-05
-0.000438643
5.85877e-05
-0.00045824
5.87208e-05
-0.000479037
5.86833e-05
-0.000501044
5.84061e-05
-0.00052475
-0.000549065
5.8052e-05
8.84055e-06
-7.1191e-06
2.83164e-05
-0.000169978
4.0915e-05
-0.000278158
4.67589e-05
-0.000330196
4.92277e-05
-0.000355637
5.05057e-05
-0.0003724
5.13559e-05
-0.000387708
5.19516e-05
-0.000403621
5.23302e-05
-0.000420634
5.25023e-05
-0.000438815
5.24666e-05
-0.000458204
5.22171e-05
-0.000478787
5.17745e-05
-0.000500601
5.10763e-05
-0.000524052
-0.000548265
5.02762e-05
1.1065e-05
-1.81841e-05
2.82403e-05
-0.000187154
3.88362e-05
-0.000288754
4.35746e-05
-0.000334934
4.54017e-05
-0.000357464
4.62261e-05
-0.000373225
4.67081e-05
-0.00038819
4.69667e-05
-0.000403879
4.70056e-05
-0.000420673
4.68214e-05
-0.000438631
4.641e-05
-0.000457793
4.57662e-05
-0.000478143
4.49182e-05
-0.000499753
4.38222e-05
-0.000522956
-0.000547004
4.25606e-05
1.25997e-05
-3.07838e-05
2.77647e-05
-0.000202319
3.65437e-05
-0.000297533
4.025e-05
-0.00033864
4.15463e-05
-0.00035876
4.19938e-05
-0.000373672
4.21288e-05
-0.000388325
4.20482e-05
-0.000403799
4.17463e-05
-0.000420371
4.12087e-05
-0.000438093
4.04259e-05
-0.00045701
3.93938e-05
-0.000477111
3.81318e-05
-0.000498491
3.662e-05
-0.000521444
-0.000545294
3.49106e-05
1.34001e-05
-4.41839e-05
2.68905e-05
-0.000215809
3.40991e-05
-0.000304742
3.68744e-05
-0.000341416
3.76984e-05
-0.000359584
3.78132e-05
-0.000373787
3.76232e-05
-0.000388135
3.72073e-05
-0.000403383
3.65623e-05
-0.000419726
3.56709e-05
-0.000437202
3.45189e-05
-0.000455858
3.30953e-05
-0.000475688
3.14146e-05
-0.00049681
2.94796e-05
-0.000519509
-0.000543145
2.733e-05
1.35757e-05
-5.77595e-05
2.56393e-05
-0.000227873
3.15208e-05
-0.000310623
3.34958e-05
-0.000343391
3.38866e-05
-0.000359975
3.36874e-05
-0.000373588
3.31862e-05
-0.000387634
3.24414e-05
-0.000402638
3.1455e-05
-0.00041874
3.02115e-05
-0.000435958
2.86953e-05
-0.000454341
2.68962e-05
-0.000473888
2.4807e-05
-0.000494721
2.23957e-05
-0.000517098
-0.000540561
1.98118e-05
1.33229e-05
-7.10825e-05
2.41039e-05
-0.000238654
2.88592e-05
-0.000315379
3.0148e-05
-0.000344679
3.0137e-05
-0.000359964
2.96311e-05
-0.000373082
2.88253e-05
-0.000386828
2.77574e-05
-0.00040157
2.64317e-05
-0.000417414
2.4836e-05
-0.000434362
2.29561e-05
-0.000452462
2.07853e-05
-0.000471718
1.83157e-05
-0.000492252
1.54133e-05
-0.000514195
-0.00053749
1.23426e-05
1.27863e-05
-8.38688e-05
2.23585e-05
-0.000248226
2.6141e-05
-0.000319161
2.68443e-05
-0.000345383
2.64631e-05
-0.000359583
2.56522e-05
-0.000372271
2.45423e-05
-0.000385718
2.31547e-05
-0.000400183
2.14934e-05
-0.000415753
1.9548e-05
-0.000432417
1.73058e-05
-0.000450219
1.47668e-05
-0.000469179
1.19386e-05
-0.000489423
8.61951e-06
-0.000510876
-0.000533746
4.87542e-06
1.20617e-05
-9.59305e-05
2.04807e-05
-0.000256645
2.34107e-05
-0.000322091
2.36048e-05
-0.000345577
2.28774e-05
-0.000358856
2.17615e-05
-0.000371155
2.03458e-05
-0.000384302
1.86399e-05
-0.000398477
1.66452e-05
-0.000413758
1.43515e-05
-0.000430123
1.17486e-05
-0.000447617
8.83352e-06
-0.000466264
5.60625e-06
-0.000486196
2.1562e-06
-0.000507426
-0.00052918
-2.4094e-06
1.12006e-05
-0.000107131
1.85228e-05
-0.000263967
2.06996e-05
-0.000324268
2.04429e-05
-0.00034532
1.93867e-05
-0.000357799
1.79639e-05
-0.000369732
1.62388e-05
-0.000382577
1.42138e-05
-0.000396452
1.18867e-05
-0.000411431
9.24802e-06
-0.000427485
6.2904e-06
-0.000444659
2.99142e-06
-0.000462965
-7.19737e-07
-0.000482485
-4.49109e-06
-0.000503655
-0.000524534
-9.13738e-06
1.01704e-05
-0.000117301
1.65358e-05
-0.000270332
1.80448e-05
-0.000325777
1.73756e-05
-0.000344651
1.59966e-05
-0.00035642
1.42642e-05
-0.000368
1.22267e-05
-0.00038054
9.87979e-06
-0.000394105
7.21785e-06
-0.000408769
4.2357e-06
-0.000424502
9.19539e-07
-0.000441343
-2.71735e-06
-0.000459328
-6.59185e-06
-0.000478611
-1.10836e-05
-0.000499163
-0.000519755
-1.58622e-05
9.18751e-06
-0.000126489
1.45705e-05
-0.000275715
1.54616e-05
-0.000326668
1.44071e-05
-0.000343596
1.27082e-05
-0.000354721
1.06641e-05
-0.000365956
8.30929e-06
-0.000378185
5.63379e-06
-0.000391429
2.62969e-06
-0.000405765
-6.8827e-07
-0.000421184
-4.30611e-06
-0.000437725
-8.2453e-06
-0.000455389
-1.25023e-05
-0.000474354
-1.74412e-05
-0.000494224
-0.000514685
-2.25117e-05
8.25531e-06
-0.000134744
1.26649e-05
-0.000280125
1.29629e-05
-0.000326966
1.15345e-05
-0.000342168
9.52102e-06
-0.000352708
7.1633e-06
-0.000363598
4.48287e-06
-0.000375505
1.46162e-06
-0.000388408
-1.8415e-06
-0.000402462
-5.45773e-06
-0.000417568
-9.41807e-06
-0.000433765
-1.36948e-05
-0.000451112
-1.83631e-05
-0.000469685
-2.36271e-05
-0.00048896
-0.000509262
-2.905e-05
7.34636e-06
-0.000142091
1.08329e-05
-0.000283611
1.05581e-05
-0.000326691
8.76188e-06
-0.000340372
6.43449e-06
-0.000350381
3.75478e-06
-0.000360918
7.20575e-07
-0.00037247
-2.56282e-06
-0.000385125
-6.17646e-06
-0.000398848
-1.01353e-05
-0.000413609
-1.4424e-05
-0.000429476
-1.90539e-05
-0.000446482
-2.41405e-05
-0.000464599
-2.96747e-05
-0.000483426
-0.000503466
-3.54709e-05
6.46521e-06
-0.000148556
9.08318e-06
-0.000286229
8.25088e-06
-0.000325859
6.09299e-06
-0.000338214
3.44291e-06
-0.00034773
4.02011e-07
-0.000357877
-2.86302e-06
-0.000369205
-6.47327e-06
-0.000381514
-1.04218e-05
-0.0003949
-1.47078e-05
-0.000409323
-1.93255e-05
-0.000424858
-2.43098e-05
-0.000441498
-2.97617e-05
-0.000459147
-3.55939e-05
-0.000477594
-0.000497303
-4.17572e-05
5.61716e-06
-0.000154173
7.41713e-06
-0.000288029
6.05189e-06
-0.000324494
3.52903e-06
-0.000335691
5.12761e-07
-0.000344714
-2.7482e-06
-0.000354616
-6.35434e-06
-0.000365599
-1.02932e-05
-0.000377575
-1.45666e-05
-0.000390626
-1.91744e-05
-0.000404716
-2.41215e-05
-0.000419911
-2.94485e-05
-0.000436171
-3.52211e-05
-0.000453374
-4.13865e-05
-0.000471428