/*--------------------------------*- C++ -*----------------------------------*\
  =========                 |
  \\      /  F ield         | OpenFOAM: The Open Source CFD Toolbox
   \\    /   O peration     | Website:  https://openfoam.org
    \\  /    A nd           | Version:  7
     \\/     M anipulation  |
\*---------------------------------------------------------------------------*/
FoamFile
{
    version     2.0;
    format      ascii;
    class       volVectorField;
    location    "10.9989";
    object      U;
}
// * * * * * * * * * * * * * * * * * * * * * * * * * * * * * * * * * * * * * //

dimensions      [0 1 -1 0 0 0 0];

internalField   nonuniform List<vector> 
18750
(
(-0.0459791 0.028403 -2.3925e-20)
(-0.158536 0.0336302 7.29084e-21)
(-0.276308 0.0313245 6.41495e-20)
(-0.37986 0.0297146 1.33193e-20)
(-0.482485 0.0282699 -2.83101e-20)
(-0.578395 0.0270647 -6.63759e-20)
(-0.672258 0.0259823 6.51774e-20)
(-0.761514 0.0250067 4.20522e-20)
(-0.848674 0.0240681 -3.12479e-20)
(-0.932233 0.0231317 -8.31139e-20)
(-1.01367 0.0221201 3.15453e-19)
(-1.09134 0.0209471 -2.59543e-19)
(-1.16511 0.0194897 1.5459e-19)
(-1.23232 0.0177047 -3.02659e-19)
(-1.29207 0.0157168 7.0696e-20)
(-0.0478026 0.0847225 1.52199e-20)
(-0.159786 0.100471 1.74727e-20)
(-0.276115 0.0936165 5.14219e-21)
(-0.378254 0.0888008 8.31574e-20)
(-0.47937 0.0844717 1.63789e-19)
(-0.573653 0.0808463 2.09303e-19)
(-0.665683 0.0775812 -1.72033e-19)
(-0.752856 0.0746305 2.73974e-19)
(-0.837624 0.0717884 2.52513e-19)
(-0.918459 0.0689516 -7.90628e-20)
(-0.996842 0.0658941 -3.34219e-19)
(-1.07115 0.0623698 1.6674e-20)
(-1.14123 0.0580292 7.54388e-20)
(-1.20428 0.0527358 1.97652e-19)
(-1.2593 0.0468065 -3.01348e-19)
(-0.0513784 0.139626 3.92378e-20)
(-0.162251 0.166103 4.81457e-20)
(-0.275746 0.154892 -1.50928e-19)
(-0.375117 0.146922 5.33985e-21)
(-0.4733 0.139734 -3.07969e-19)
(-0.564447 0.133672 9.57408e-20)
(-0.652986 0.128186 -2.60585e-19)
(-0.736251 0.123208 -3.17864e-20)
(-0.816602 0.118405 -1.94287e-19)
(-0.892504 0.113612 5.74518e-19)
(-0.96547 0.10847 7.58562e-19)
(-1.03397 0.102606 6.68074e-19)
(-1.09787 0.0954911 3.93454e-19)
(-1.1542 0.0868802 2.66557e-19)
(-1.20169 0.0771416 -4.9243e-19)
(-0.056569 0.192212 -1.7435e-19)
(-0.165859 0.22975 1.95303e-19)
(-0.275232 0.214507 -1.38302e-19)
(-0.370581 0.203482 -2.72544e-19)
(-0.464551 0.193493 4.47611e-19)
(-0.551259 0.184988 -4.04695e-19)
(-0.634931 0.177244 5.76291e-19)
(-0.712856 0.170185 -4.78421e-19)
(-0.787305 0.163373 3.31245e-19)
(-0.856779 0.156594 -8.06241e-19)
(-0.922881 0.149371 -1.15153e-18)
(-0.98427 0.141246 6.38978e-20)
(-1.0409 0.131562 -2.18874e-19)
(-1.08959 0.119946 -4.77961e-19)
(-1.12874 0.106653 1.81165e-18)
(-0.0631715 0.241637 -1.1828e-19)
(-0.170493 0.290669 2.62217e-19)
(-0.274597 0.271864 6.55517e-20)
(-0.364804 0.257948 2.21998e-19)
(-0.453473 0.24526 -2.71743e-19)
(-0.534676 0.234332 1.1546e-19)
(-0.612423 0.22432 1.36056e-18)
(-0.683984 0.21516 2.04563e-19)
(-0.751565 0.206338 3.61697e-19)
(-0.813748 0.197603 -1.25787e-19)
(-0.872268 0.188382 1.09087e-19)
(-0.926024 0.178156 -4.40149e-20)
(-0.97511 0.166174 -1.24644e-18)
(-1.01613 0.151924 -7.00579e-19)
(-1.04695 0.135401 -2.05922e-18)
(-0.0709771 0.287187 2.71424e-19)
(-0.176032 0.348152 6.74207e-20)
(-0.273846 0.326424 -1.23159e-19)
(-0.357948 0.309869 -8.8221e-20)
(-0.440435 0.294636 8.2621e-20)
(-0.515313 0.281349 -1.18935e-18)
(-0.58637 0.269099 -1.49591e-19)
(-0.650898 0.257866 7.46267e-20)
(-0.711047 0.24709 -5.3486e-19)
(-0.765515 0.236499 -7.30978e-19)
(-0.816162 0.225435 5.31559e-19)
(-0.862122 0.213323 -5.2702e-19)
(-0.903631 0.199336 1.63782e-18)
(-0.937097 0.182819 -1.28351e-18)
(-0.959759 0.163415 2.81552e-18)
(-0.0797343 0.328165 -2.27533e-19)
(-0.182275 0.401527 -3.9682e-19)
(-0.272918 0.377751 1.4978e-19)
(-0.350155 0.358879 1.11078e-18)
(-0.425792 0.341312 1.09291e-18)
(-0.493749 0.325777 -3.67328e-19)
(-0.557605 0.311367 1.85442e-19)
(-0.614701 0.298135 1.1631e-19)
(-0.667141 0.285509 1.14923e-18)
(-0.713734 0.273215 1.5823e-18)
(-0.756426 0.260514 -7.69061e-19)
(-0.794538 0.246762 -1.47757e-18)
(-0.828434 0.231048 -2.75598e-18)
(-0.854441 0.2126 4.76549e-19)
(-0.869218 0.190702 -3.44684e-18)
(-0.0891374 0.363849 -1.87279e-19)
(-0.188986 0.450263 -2.24161e-19)
(-0.271719 0.425514 -1.62111e-18)
(-0.341544 0.404704 5.5801e-19)
(-0.40986 0.385058 -6.64419e-19)
(-0.470505 0.367437 4.34586e-19)
(-0.526855 0.350989 4.49535e-19)
(-0.576328 0.335869 -1.96539e-18)
(-0.620972 0.321534 -1.29518e-18)
(-0.659686 0.307718 -2.17482e-18)
(-0.694441 0.293604 -3.62597e-19)
(-0.724683 0.278459 1.5689e-18)
(-0.750911 0.261269 6.16984e-18)
(-0.76958 0.241214 -9.47805e-19)
(-0.777008 0.217315 1.69606e-18)
(-0.0987941 0.39356 1.01643e-18)
(-0.195864 0.49391 4.0988e-19)
(-0.270133 0.469489 1.76872e-18)
(-0.332206 0.447154 -1.2785e-18)
(-0.392915 0.425728 5.87349e-19)
(-0.446024 0.406227 -9.63099e-19)
(-0.494731 0.387894 -2.18042e-18)
(-0.536542 0.371021 1.92642e-18)
(-0.573429 0.355127 2.26544e-19)
(-0.604352 0.339968 3.24465e-18)
(-0.631249 0.324657 -1.05573e-18)
(-0.653645 0.308358 -4.77655e-18)
(-0.672181 0.289956 -2.92733e-18)
(-0.683691 0.268657 3.09289e-19)
(-0.684521 0.243374 -1.43177e-18)
(-0.108241 0.416726 -8.30111e-19)
(-0.202552 0.532148 -4.7629e-19)
(-0.268032 0.50953 5.88521e-19)
(-0.322213 0.486111 9.07658e-20)
(-0.375168 0.463236 -2.29449e-19)
(-0.420674 0.442098 -2.60601e-19)
(-0.461742 0.422063 9.98299e-19)
(-0.495964 0.403579 -1.16467e-18)
(-0.525226 0.386268 1.14062e-18)
(-0.548521 0.36993 1.41419e-18)
(-0.567705 0.353627 -2.51131e-18)
(-0.58235 0.336431 4.77158e-18)
(-0.593234 0.317115 5.64588e-19)
(-0.597756 0.29494 7.70533e-19)
(-0.59277 0.26891 1.76507e-18)
(-0.116929 0.432831 1.52471e-18)
(-0.20862 0.564685 -4.99354e-19)
(-0.26526 0.545564 -2.22397e-18)
(-0.311595 0.521513 8.6435e-19)
(-0.356798 0.497566 -4.98211e-19)
(-0.394753 0.475073 5.79955e-19)
(-0.428294 0.453526 4.21637e-18)
(-0.455095 0.433567 2.00631e-18)
(-0.476933 0.414961 1.32165e-18)
(-0.492816 0.397579 -4.41528e-18)
(-0.504483 0.380461 4.81381e-18)
(-0.511542 0.362597 1.76065e-18)
(-0.514884 0.34266 -2.84872e-18)
(-0.512521 0.319962 3.4645e-18)
(-0.502299 0.293832 -1.27208e-19)
(-0.124232 0.441484 2.90257e-19)
(-0.213643 0.591488 8.19059e-20)
(-0.261674 0.577522 -1.38382e-19)
(-0.300382 0.553362 -1.54052e-18)
(-0.337909 0.528753 3.04155e-18)
(-0.368486 0.5052 -1.53849e-18)
(-0.39472 0.482345 -4.46325e-18)
(-0.414339 0.461038 1.34288e-18)
(-0.429008 0.441231 -2.14431e-18)
(-0.437747 0.422896 3.30932e-18)
(-0.442156 0.405093 -5.94443e-18)
(-0.441869 0.386784 4.60567e-19)
(-0.437873 0.366579 2.53615e-18)
(-0.428635 0.343765 -5.33517e-18)
(-0.413368 0.317846 -1.26379e-18)
(-0.129335 0.442243 -9.91906e-19)
(-0.217122 0.612399 2.87205e-19)
(-0.257131 0.605343 8.74395e-19)
(-0.28852 0.581702 -3.84753e-20)
(-0.318592 0.556893 -4.1162e-18)
(-0.342057 0.532603 3.96684e-19)
(-0.36127 0.50863 1.45179e-18)
(-0.374013 0.486087 -3.89814e-18)
(-0.381818 0.465136 2.88715e-18)
(-0.383721 0.445895 -2.64559e-18)
(-0.381163 0.427489 7.23305e-18)
(-0.37381 0.408897 -3.01439e-18)
(-0.362762 0.38872 3.65462e-18)
(-0.346682 0.36605 7.46218e-18)
(-0.325594 0.340542 3.22566e-18)
(-0.131619 0.43554 -3.85623e-19)
(-0.218698 0.627603 -3.45444e-21)
(-0.251536 0.628876 -3.81306e-20)
(-0.275994 0.606672 -9.83e-20)
(-0.298872 0.582117 -1.97808e-18)
(-0.315582 0.557395 -8.69346e-19)
(-0.328146 0.5325 1.411e-18)
(-0.334365 0.508826 8.45392e-19)
(-0.33565 0.486764 -4.89673e-18)
(-0.331063 0.466613 -2.70854e-19)
(-0.321885 0.447615 -1.41983e-18)
(-0.307771 0.428825 2.87495e-18)
(-0.290008 0.408924 -4.05136e-18)
(-0.267268 0.38702 -5.93081e-19)
(-0.239014 0.361933 -3.64375e-18)
(-0.130545 0.421579 1.70719e-18)
(-0.217892 0.636606 -1.51063e-18)
(-0.244728 0.648133 -2.07157e-18)
(-0.26264 0.62844 3.67797e-18)
(-0.278798 0.6046 3.23608e-18)
(-0.289171 0.57977 4.11655e-18)
(-0.295482 0.554133 1.73005e-19)
(-0.295577 0.529424 2.75859e-18)
(-0.29072 0.506247 3.68432e-18)
(-0.280017 0.485131 5.47257e-18)
(-0.264586 0.465494 -2.52556e-18)
(-0.243996 0.446494 5.28902e-18)
(-0.219735 0.427034 -4.13381e-20)
(-0.191128 0.406044 -2.71448e-18)
(-0.153561 0.381914 -6.70854e-18)
(-0.125792 0.400274 -1.06885e-18)
(-0.214231 0.638991 1.68221e-18)
(-0.236594 0.663379 1.11621e-18)
(-0.24847 0.647218 -3.45367e-18)
(-0.258379 0.624547 -1.60887e-18)
(-0.262865 0.599869 -2.93093e-19)
(-0.263378 0.573686 -2.13594e-18)
(-0.257772 0.548037 -3.64347e-18)
(-0.247181 0.523738 -6.17052e-18)
(-0.230747 0.50157 -2.66601e-18)
(-0.209492 0.481185 3.72216e-18)
(-0.182753 0.461862 -7.79387e-18)
(-0.152149 0.442789 2.55454e-19)
(-0.118105 0.422942 4.9524e-18)
(-0.0714061 0.401378 7.16974e-18)
(-0.117117 0.371524 -2.55411e-18)
(-0.20743 0.634626 1.99337e-18)
(-0.226887 0.674554 -3.44881e-18)
(-0.233505 0.663255 -1.65066e-18)
(-0.237718 0.642244 -9.16496e-20)
(-0.236744 0.617915 2.26506e-18)
(-0.231895 0.5914 3.63698e-18)
(-0.221023 0.5649 1.18911e-18)
(-0.205118 0.539449 1.72303e-18)
(-0.183341 0.516106 -4.84931e-18)
(-0.156651 0.494779 1.14636e-19)
(-0.124151 0.474998 -3.69625e-18)
(-0.0871958 0.456054 -2.75241e-18)
(-0.0485192 0.437051 -7.89779e-18)
(0.00885908 0.418694 -1.20987e-19)
(-0.104417 0.335454 2.24815e-18)
(-0.197391 0.623418 3.54967e-19)
(-0.215492 0.681519 5.42529e-19)
(-0.217732 0.676603 4.10377e-18)
(-0.216844 0.657783 1.72519e-18)
(-0.210893 0.634134 -2.10158e-18)
(-0.201099 0.60751 1.64853e-18)
(-0.185397 0.580237 -9.47986e-19)
(-0.164592 0.553622 -1.87741e-18)
(-0.137836 0.528955 2.14614e-18)
(-0.106113 0.506504 -7.15751e-18)
(-0.068298 0.48599 -2.6943e-19)
(-0.0246285 0.466628 -4.01819e-18)
(0.0170408 0.448669 6.25897e-18)
(0.0879492 0.434253 5.43989e-19)
(-0.0879598 0.292464 -8.53957e-19)
(-0.184199 0.605104 -2.40082e-18)
(-0.202457 0.683939 6.37272e-19)
(-0.201178 0.687188 -4.71149e-18)
(-0.195772 0.671277 -3.20733e-18)
(-0.185352 0.648714 -1.798e-18)
(-0.171039 0.622235 -3.12093e-18)
(-0.150917 0.594316 3.00737e-18)
(-0.125617 0.56652 4.19565e-18)
(-0.0941764 0.540377 8.12305e-18)
(-0.057732 0.516558 -3.43072e-19)
(-0.0154038 0.49515 9.07274e-18)
(0.0362501 0.474576 3.58271e-18)
(0.0780111 0.456082 2.76734e-18)
(0.165509 0.447884 -6.20221e-18)
(-0.0686613 0.243195 1.46628e-18)
(-0.168161 0.579138 3.65055e-18)
(-0.187943 0.681186 2.50694e-18)
(-0.183955 0.694802 3.27897e-18)
(-0.174559 0.682794 8.23441e-21)
(-0.160143 0.661805 1.2767e-18)
(-0.141735 0.635716 4.1748e-20)
(-0.117581 0.607284 -2.29586e-18)
(-0.0881933 0.578385 3.57733e-18)
(-0.0523409 0.550635 -1.23883e-17)
(-0.0110939 0.52511 3.60546e-18)
(0.034189 0.50294 -2.3866e-18)
(0.0960746 0.480695 4.67639e-19)
(0.134388 0.460191 -3.52938e-18)
(0.242712 0.460091 -3.94888e-18)
(-0.0488667 0.188381 -2.3944e-18)
(-0.14986 0.544544 3.19746e-18)
(-0.172125 0.67219 -8.04884e-19)
(-0.166187 0.699025 -1.38332e-18)
(-0.153303 0.69233 2.88818e-18)
(-0.135331 0.673471 2.94879e-19)
(-0.113235 0.648108 -8.54806e-19)
(-0.0853465 0.619345 -1.0067e-19)
(-0.0522423 0.589386 -2.30187e-18)
(-0.0124405 0.560062 5.934e-18)
(0.0345698 0.532151 3.5913e-18)
(0.08018 0.509539 1.8911e-18)
(0.155955 0.485584 -1.65648e-19)
(0.184408 0.457597 4.46876e-18)
(0.319305 0.471675 -3.89904e-19)
(-0.0330573 0.130074 7.0148e-19)
(-0.130189 0.499904 -7.60544e-19)
(-0.155146 0.655519 5.98203e-19)
(-0.148012 0.69911 2.56266e-18)
(-0.13214 0.69964 -1.63435e-18)
(-0.110999 0.683706 -1.06251e-18)
(-0.0856167 0.659417 -1.96847e-18)
(-0.0542517 0.63054 1.54571e-18)
(-0.0175708 0.599664 -1.59529e-18)
(0.0250895 0.569049 -1.82156e-18)
(0.0801836 0.538044 -3.11306e-18)
(0.122263 0.515014 -1.80412e-18)
(0.218107 0.493708 6.45258e-18)
(0.229427 0.449664 -8.87293e-18)
(0.392022 0.472508 -2.27118e-19)
(-0.0240941 0.0736 3.00736e-18)
(-0.110216 0.443482 -1.1666e-18)
(-0.136998 0.629442 -3.03852e-18)
(-0.129491 0.693954 -8.10926e-19)
(-0.111238 0.704214 4.27547e-18)
(-0.0872963 0.692327 -9.33697e-20)
(-0.0590164 0.66973 2.04762e-18)
(-0.0244509 0.640989 -1.12336e-18)
(0.0162843 0.609 -4.29429e-18)
(0.0596084 0.577784 9.87776e-18)
(0.126576 0.543005 -7.18176e-18)
(0.159286 0.51627 2.10412e-18)
(0.283234 0.506457 -9.18158e-18)
(0.274316 0.448028 3.24957e-18)
(0.46234 0.467291 2.63582e-18)
(-0.0186467 0.0259929 -1.06911e-18)
(-0.0899337 0.373421 -3.45418e-18)
(-0.117639 0.592331 1.56336e-18)
(-0.110686 0.681881 2.76893e-19)
(-0.0907464 0.705068 -3.84875e-18)
(-0.064357 0.698949 2.37363e-18)
(-0.0335555 0.678755 1.18616e-19)
(0.00345701 0.650743 -5.87128e-19)
(0.0499288 0.617436 -4.41862e-18)
(0.0905912 0.586199 -5.21882e-19)
(0.175112 0.550109 5.69595e-18)
(0.190606 0.510483 4.73987e-19)
(0.349226 0.515379 1.32535e-18)
(0.320873 0.452287 3.7595e-18)
(0.533478 0.465114 -9.50832e-18)
(-0.0111641 -0.00779811 -1.63079e-18)
(-0.0693697 0.288962 4.93332e-20)
(-0.096772 0.542591 -1.98168e-18)
(-0.0916482 0.660782 1.60912e-18)
(-0.0708902 0.700762 2.1787e-18)
(-0.0424897 0.702907 -1.62696e-18)
(-0.00920385 0.686277 -2.7815e-19)
(0.0286626 0.659547 -1.33302e-18)
(0.0836498 0.624437 3.31508e-18)
(0.117035 0.592158 6.4627e-19)
(0.226622 0.563242 -8.24656e-18)
(0.218937 0.503241 2.22583e-18)
(0.41367 0.516671 1.35604e-18)
(0.368799 0.455107 -6.0851e-18)
(0.603085 0.462862 1.39133e-18)
(-0.000891612 -0.0262502 3.69965e-19)
(-0.0515294 0.195735 9.90477e-19)
(-0.0751503 0.478191 1.8662e-18)
(-0.07238 0.62775 -1.57336e-18)
(-0.0518042 0.689226 -5.73109e-20)
(-0.022202 0.703036 3.95887e-18)
(0.0140808 0.691432 -1.71978e-19)
(0.0501785 0.667385 7.65353e-21)
(0.11768 0.631361 5.35761e-18)
(0.138101 0.59074 -3.03761e-18)
(0.27802 0.57912 2.11131e-18)
(0.249503 0.501293 -5.90825e-18)
(0.472081 0.513575 4.98988e-19)
(0.421303 0.456156 -1.50462e-18)
(0.666724 0.458065 2.62797e-18)
(0.00833849 -0.032271 -2.72917e-19)
(-0.0372057 0.108897 1.24793e-18)
(-0.0543125 0.398005 -1.64993e-18)
(-0.053454 0.579765 3.48933e-18)
(-0.0337474 0.667769 -2.92165e-18)
(-0.00438853 0.697672 -2.60791e-18)
(0.0362897 0.693033 -1.6189e-18)
(0.0671684 0.671922 -3.44486e-18)
(0.150936 0.641299 -6.54543e-18)
(0.15544 0.582721 9.77017e-19)
(0.32163 0.586493 4.97282e-18)
(0.287844 0.504764 3.88223e-18)
(0.514421 0.505076 6.25578e-19)
(0.479804 0.45623 -3.1599e-18)
(0.721342 0.447275 -1.54128e-18)
(0.0142748 -0.0314354 6.67703e-19)
(-0.0208124 0.0447993 1.17563e-18)
(-0.0344742 0.301111 -5.00011e-18)
(-0.0352902 0.514115 -3.45945e-18)
(-0.0169746 0.632852 -1.03629e-19)
(0.00975997 0.684112 2.75631e-18)
(0.0566941 0.690064 -9.91534e-19)
(0.0792923 0.670068 7.64593e-18)
(0.18013 0.652287 5.92777e-19)
(0.175254 0.576176 -4.10482e-18)
(0.34532 0.579822 -3.83309e-18)
(0.338292 0.508112 -5.93558e-18)
(0.534324 0.490123 6.55279e-18)
(0.544776 0.452985 4.20957e-18)
(0.763783 0.430139 -4.70635e-21)
(0.017432 -0.0281828 -1.85738e-18)
(-0.000780348 0.00671367 -3.45915e-18)
(-0.0171149 0.194787 2.4919e-18)
(-0.0193557 0.428795 3.06863e-18)
(-0.00172327 0.580502 1.9104e-18)
(0.0191494 0.657918 -1.91185e-18)
(0.0734464 0.680725 4.87716e-18)
(0.0874056 0.659408 -6.82444e-18)
(0.197409 0.657126 7.48548e-18)
(0.205522 0.57607 4.66806e-18)
(0.345434 0.56153 -1.43831e-18)
(0.40139 0.511854 -1.93356e-18)
(0.532492 0.467856 -2.643e-18)
(0.622832 0.449987 -5.05282e-18)
(0.784018 0.404032 6.01602e-18)
(0.0195534 -0.0252354 5.25571e-18)
(0.0178887 -0.0118732 4.04251e-18)
(-0.000597017 0.105162 9.24731e-19)
(-0.00725748 0.327382 -4.7594e-20)
(0.0106187 0.506597 -6.53267e-19)
(0.0234417 0.614124 -7.89389e-19)
(0.0829081 0.661368 -3.81263e-18)
(0.0940168 0.639826 6.51303e-18)
(0.195949 0.645359 -5.01251e-18)
(0.241998 0.581471 -2.69707e-20)
(0.328863 0.532369 4.6721e-18)
(0.469297 0.515043 3.14914e-18)
(0.512891 0.437599 3.15081e-18)
(0.705346 0.44309 -2.72884e-20)
(0.767979 0.358669 -3.66357e-18)
(0.022793 -0.0233129 -3.15688e-18)
(0.0335081 -0.0192259 -3.27761e-18)
(0.0192484 0.0499309 1.03328e-18)
(0.00271984 0.222796 -1.6725e-18)
(0.0191903 0.412133 -7.76377e-19)
(0.0222063 0.546 2.83629e-18)
(0.0809421 0.626034 -7.57089e-19)
(0.0994993 0.612159 -6.74376e-19)
(0.175911 0.61084 -2.03232e-18)
(0.272548 0.580262 -4.52099e-18)
(0.302001 0.496089 2.07082e-18)
(0.521427 0.500405 -2.42777e-18)
(0.469285 0.396263 -3.6584e-18)
(0.769036 0.404277 -1.6225e-18)
(0.660254 0.301372 6.49312e-18)
(0.0280365 -0.022798 3.56655e-18)
(0.0478244 -0.0223024 -2.80853e-18)
(0.0402949 0.0228489 -4.64533e-18)
(0.0155736 0.13744 4.76883e-19)
(0.0232925 0.309788 1.15082e-18)
(0.0180274 0.454692 -7.84891e-19)
(0.0634923 0.563216 2.1765e-18)
(0.100019 0.575884 4.72511e-19)
(0.14389 0.555783 -3.27002e-19)
(0.274151 0.552322 6.07228e-20)
(0.282557 0.456294 -2.15395e-18)
(0.505604 0.454554 2.62743e-19)
(0.41358 0.322962 1.17391e-18)
(0.74963 0.355087 -8.95549e-19)
(0.5309 0.189942 6.33783e-18)
(0.0352494 -0.0239902 7.48471e-19)
(0.0615166 -0.025091 -1.60593e-18)
(0.0579448 0.00973984 4.52218e-18)
(0.0315458 0.0839611 3.53816e-18)
(0.0237124 0.21756 -3.57908e-18)
(0.0112883 0.353135 -2.32517e-19)
(0.0366086 0.473824 -1.64218e-18)
(0.0801038 0.514536 -5.84463e-19)
(0.116919 0.498344 4.25273e-18)
(0.226404 0.475057 2.09831e-18)
(0.28128 0.423503 2.84546e-18)
(0.400194 0.354826 -2.29074e-18)
(0.413331 0.279387 1.46599e-18)
(0.678604 0.277041 -8.76249e-19)
(0.757767 0.229086 -8.10904e-18)
(0.0436544 -0.0268122 5.95598e-19)
(0.07353 -0.0295452 9.64471e-19)
(0.0699313 -0.000180137 -2.48916e-18)
(0.0441255 0.053113 -2.87054e-18)
(0.0217551 0.146111 -2.6616e-18)
(-0.000272986 0.257683 2.3053e-19)
(0.00692742 0.372594 1.92612e-18)
(0.0408415 0.424666 -3.4568e-18)
(0.0783025 0.42964 -1.79402e-18)
(0.168883 0.38135 9.84728e-19)
(0.223424 0.344973 -2.66135e-18)
(0.315777 0.263813 2.25624e-19)
(0.454656 0.239305 1.81784e-18)
(0.79538 0.275534 -2.5142e-18)
(1.03033 0.323286 1.9937e-18)
(0.0518635 -0.0307278 -1.33781e-18)
(0.0818119 -0.0361771 3.03966e-18)
(0.0748185 -0.012327 2.02903e-18)
(0.0475844 0.0293512 1.37919e-18)
(0.0153906 0.0931457 2.27634e-18)
(-0.0175264 0.176793 -2.28616e-19)
(-0.0252812 0.273538 -1.79559e-18)
(-0.0112796 0.319603 3.87977e-19)
(0.030099 0.343116 2.33743e-18)
(0.0931414 0.282299 -3.86046e-18)
(0.129846 0.227127 -1.87269e-18)
(0.336535 0.217307 1.05021e-19)
(0.620738 0.240229 -5.59381e-19)
(0.988715 0.32662 3.1182e-18)
(1.12007 0.316239 -2.75502e-18)
(0.0581282 -0.0348595 1.44813e-18)
(0.0843179 -0.0444029 9.57581e-19)
(0.0713161 -0.0278818 -1.26597e-19)
(0.0400451 0.00419362 -8.92506e-19)
(0.00113295 0.0492441 2.05081e-19)
(-0.0407453 0.108657 -2.62646e-18)
(-0.0622333 0.182395 5.92209e-19)
(-0.064753 0.215169 -1.17958e-18)
(-0.03777 0.240632 -1.27232e-18)
(-0.00461168 0.170063 2.67511e-18)
(0.155592 0.161121 3.9816e-18)
(0.491696 0.218334 1.93247e-18)
(0.851154 0.292302 1.91593e-18)
(1.07906 0.327749 -2.42064e-18)
(1.22718 0.345185 -2.45316e-18)
(0.0607959 -0.0381606 1.18361e-18)
(0.0797522 -0.052857 -2.29173e-18)
(0.0591088 -0.0456317 -1.10968e-18)
(0.0220736 -0.0240606 -2.46698e-18)
(-0.0229093 0.00704075 1.11861e-18)
(-0.0716985 0.0472143 2.78278e-18)
(-0.108903 0.0983455 -3.1882e-18)
(-0.13069 0.114649 1.12578e-18)
(-0.12273 0.129504 2.13771e-18)
(-0.00216855 0.104424 6.31996e-19)
(0.335023 0.170237 -2.73302e-18)
(0.718201 0.265664 -1.11319e-18)
(0.984526 0.307622 4.61196e-21)
(1.18057 0.352262 1.36871e-18)
(1.2861 0.362034 5.17854e-18)
(0.0588406 -0.0396013 -1.92951e-18)
(0.0682382 -0.0598711 -1.93173e-18)
(0.0393235 -0.0630899 1.07455e-18)
(-0.00412407 -0.0529283 4.38098e-18)
(-0.055961 -0.0344093 -2.85112e-18)
(-0.112801 -0.00890617 8.40485e-19)
(-0.165253 0.0230175 1.24436e-18)
(-0.188677 0.0290321 -8.86535e-20)
(-0.131352 0.0502249 2.56754e-19)
(0.167867 0.117834 1.31381e-18)
(0.572969 0.218888 -1.26818e-18)
(0.883005 0.294876 -2.54882e-18)
(1.1071 0.336256 -2.19788e-18)
(1.23997 0.366083 1.80144e-18)
(1.29475 0.352027 5.09806e-19)
(0.0521101 -0.0384974 -4.69741e-19)
(0.0511655 -0.0635585 3.78511e-18)
(0.0147297 -0.0765153 7.76553e-19)
(-0.0340617 -0.0767422 1.11315e-18)
(-0.0907687 -0.0673409 1.02573e-18)
(-0.150732 -0.0497294 1.01614e-18)
(-0.201675 -0.0266396 -3.82406e-19)
(-0.185912 -0.0168153 6.70139e-19)
(0.00632817 0.0509613 3.5375e-19)
(0.410904 0.172428 1.6725e-18)
(0.766981 0.263478 9.78805e-20)
(1.02177 0.327437 1.78003e-18)
(1.18146 0.352901 -1.35888e-18)
(1.26083 0.36263 -1.26092e-18)
(1.32271 0.364988 8.20707e-19)
(0.0415085 -0.034602 1.68507e-18)
(0.0309412 -0.0622791 -1.55771e-18)
(-0.0104396 -0.0822726 1.39616e-19)
(-0.0609546 -0.0886976 -2.28567e-18)
(-0.114651 -0.0824685 -1.865e-18)
(-0.163408 -0.0630295 3.1701e-18)
(-0.192343 -0.0346413 9.33804e-19)
(-0.0977214 -0.00690117 -1.39823e-18)
(0.236723 0.114455 3.39245e-19)
(0.626714 0.228835 -4.48558e-18)
(0.923747 0.302912 1.61913e-18)
(1.11444 0.348574 -1.86161e-18)
(1.22153 0.357133 2.17229e-18)
(1.29005 0.37258 -2.68684e-19)
(1.31667 0.357863 -1.20639e-18)
(0.0286808 -0.0283378 -2.62258e-18)
(0.010423 -0.0556499 -2.65924e-18)
(-0.031787 -0.0786388 -2.72638e-18)
(-0.07834 -0.0870335 -2.00738e-18)
(-0.119789 -0.0792213 1.35148e-18)
(-0.144352 -0.0506315 -5.35661e-18)
(-0.141758 -0.0172067 4.93241e-19)
(0.0685767 0.0510241 4.42252e-19)
(0.461547 0.181864 2.67013e-19)
(0.803424 0.27454 2.10855e-18)
(1.03675 0.331668 -1.68799e-18)
(1.17295 0.358819 4.05835e-18)
(1.25595 0.366628 -8.27395e-19)
(1.28866 0.366752 -1.54861e-18)
(1.31385 0.354772 8.59502e-19)
(0.0153888 -0.0206922 4.61616e-19)
(-0.00822096 -0.0448957 2.15246e-18)
(-0.0472648 -0.0675874 3.04206e-18)
(-0.0839061 -0.0752477 5.08789e-19)
(-0.106721 -0.0632443 2.33894e-18)
(-0.103248 -0.0247742 1.28693e-18)
(-0.0535376 0.00310725 3.78595e-19)
(0.27217 0.117856 -2.13789e-18)
(0.654194 0.234217 -1.44514e-19)
(0.939132 0.308762 1.03132e-18)
(1.11432 0.349066 4.12513e-18)
(1.21625 0.368535 -5.7426e-19)
(1.26363 0.363963 1.39225e-18)
(1.29168 0.365515 1.28581e-18)
(1.31371 0.355221 1.9857e-18)
(0.00296102 -0.0128556 8.43197e-19)
(-0.0239311 -0.0322099 -2.81678e-18)
(-0.0570306 -0.0526758 -6.11997e-19)
(-0.0806803 -0.0589373 3.48076e-20)
(-0.0825645 -0.0437644 -4.32398e-18)
(-0.0584043 -0.00783748 1.08395e-18)
(0.070281 0.0368429 -5.41445e-19)
(0.470371 0.172882 6.60391e-19)
(0.812058 0.274251 2.39378e-18)
(1.03813 0.331265 -9.14225e-19)
(1.16975 0.36238 -3.10029e-18)
(1.23512 0.368417 -4.46936e-19)
(1.27227 0.364631 -4.64649e-19)
(1.29076 0.3639 -1.0008e-18)
(1.30128 0.347539 -2.15792e-18)
(-0.00779449 -0.00591389 1.75757e-19)
(-0.0366637 -0.0198405 7.61025e-19)
(-0.0626663 -0.0374426 -1.95218e-18)
(-0.0732136 -0.0433674 8.04731e-19)
(-0.0574013 -0.0290029 1.78714e-18)
(-0.00709747 -0.011683 -7.26292e-19)
(0.245433 0.0876825 -1.16778e-19)
(0.648107 0.21675 -1.67021e-18)
(0.934604 0.302727 3.8631e-19)
(1.11009 0.34753 -1.41307e-18)
(1.20148 0.367135 1.44748e-18)
(1.2504 0.369558 -1.19129e-18)
(1.27301 0.363128 2.05197e-18)
(1.28321 0.358209 -7.42437e-19)
(1.29871 0.346813 -1.52902e-18)
(-0.0166787 -0.000409973 9.01825e-19)
(-0.0469074 -0.00930005 5.65758e-19)
(-0.0661595 -0.0242726 5.08098e-19)
(-0.0655836 -0.031102 1.23492e-19)
(-0.0384511 -0.026592 8.18983e-19)
(0.0735836 -0.00802298 -1.82946e-18)
(0.448429 0.139877 9.88181e-19)
(0.798313 0.252188 2.43817e-18)
(1.02694 0.323837 -2.93653e-19)
(1.15714 0.356135 2.07748e-18)
(1.22436 0.371077 1.26326e-18)
(1.25538 0.367457 2.35605e-19)
(1.26997 0.360012 3.9942e-19)
(1.28126 0.356713 7.90887e-19)
(1.28981 0.342449 1.78323e-18)
(-0.0240319 0.00352835 1.36804e-18)
(-0.0553659 -0.00135063 1.94291e-18)
(-0.0690819 -0.0140876 -1.73934e-18)
(-0.060437 -0.0224246 1.55724e-18)
(-0.0116966 -0.036865 -3.49895e-18)
(0.224142 0.0408941 7.75785e-19)
(0.625372 0.186595 -2.80378e-19)
(0.915763 0.28072 -1.5068e-18)
(1.09285 0.337622 -2.88904e-18)
(1.19059 0.362319 -1.18472e-18)
(1.2355 0.371209 -3.01152e-18)
(1.2574 0.364891 1.86025e-18)
(1.26861 0.359308 -2.47569e-18)
(1.27411 0.352273 1.64347e-18)
(1.28286 0.339253 1.08932e-18)
(-0.0302692 0.00605615 -3.24116e-18)
(-0.0626593 0.00402136 1.13952e-19)
(-0.0719688 -0.00634142 2.25566e-19)
(-0.0581309 -0.0192895 4.30635e-19)
(0.0471305 -0.0375933 2.26366e-19)
(0.418304 0.1078 1.55914e-18)
(0.771803 0.225849 8.61646e-19)
(1.00626 0.302546 -2.53119e-19)
(1.14158 0.347992 1.29259e-18)
(1.21075 0.364975 8.81443e-19)
(1.24242 0.370909 4.03691e-19)
(1.25759 0.363082 -1.04165e-18)
(1.2632 0.356632 3.38282e-18)
(1.26949 0.349419 5.62446e-19)
(1.27686 0.337399 -1.19814e-18)
(-0.0357975 0.00749858 2.98336e-18)
(-0.069052 0.0073352 -2.13014e-18)
(-0.0746695 0.0004238 6.74121e-19)
(-0.0501529 -0.0226429 -6.79741e-20)
(0.159663 0.00920934 3.36782e-18)
(0.583396 0.160507 -2.80772e-19)
(0.888116 0.258109 -1.03422e-18)
(1.07474 0.320322 2.61024e-18)
(1.1747 0.354758 2.53799e-19)
(1.2242 0.366746 1.13045e-18)
(1.24499 0.369845 -2.31631e-18)
(1.25482 0.360316 5.22124e-20)
(1.25983 0.355735 -1.05473e-18)
(1.26426 0.346679 -2.16251e-19)
(1.26912 0.334554 -6.8546e-19)
(-0.0408901 0.00814757 -7.96618e-19)
(-0.0742585 0.00959522 2.2327e-18)
(-0.0774637 0.00497054 1.3517e-18)
(-0.0185806 -0.0316526 1.08229e-18)
(0.324857 0.0813376 -5.30144e-19)
(0.721844 0.204723 -2.25309e-19)
(0.980652 0.285534 1.42865e-18)
(1.12562 0.334316 -1.09862e-18)
(1.1983 0.360029 3.51126e-19)
(1.23148 0.367441 -1.89652e-18)
(1.24506 0.368411 1.44751e-19)
(1.25267 0.359012 2.89672e-19)
(1.25491 0.354371 -4.33311e-19)
(1.25861 0.34375 -2.52723e-18)
(1.26316 0.333411 1.04119e-18)
(-0.0455409 0.0081903 -1.40917e-18)
(-0.0773607 0.0125165 -1.76486e-18)
(-0.079064 0.00593902 9.49118e-19)
(0.0488473 -0.0213046 -1.24482e-19)
(0.488649 0.137104 -1.42874e-18)
(0.839845 0.241362 -6.24129e-20)
(1.05203 0.307868 -9.87133e-19)
(1.16246 0.345696 -1.98518e-18)
(1.21321 0.363714 -8.26183e-19)
(1.23536 0.367864 7.77696e-19)
(1.24408 0.3674 7.25443e-19)
(1.24871 0.357346 -7.81592e-20)
(1.25032 0.35347 -1.1521e-18)
(1.25373 0.341785 2.07825e-18)
(1.25617 0.332035 6.28931e-19)
(-0.0493307 0.00754958 1.39027e-18)
(-0.0785958 0.0166488 -9.81389e-22)
(-0.0737648 0.00161324 -2.3234e-18)
(0.153062 0.0283052 -4.92733e-20)
(0.62018 0.182904 3.50901e-19)
(0.933085 0.273562 6.12863e-19)
(1.10613 0.327041 -1.09104e-18)
(1.18839 0.354843 5.54668e-19)
(1.22307 0.366839 -2.46324e-20)
(1.23675 0.368339 6.33215e-19)
(1.24163 0.366327 -5.74773e-19)
(1.24522 0.356657 -1.61503e-18)
(1.24568 0.352865 -7.51117e-20)
(1.24824 0.339721 -9.99055e-19)
(1.2499 0.331504 -8.5032e-19)
(-0.0519019 0.00679619 5.67573e-19)
(-0.0803145 0.0188606 -1.15672e-18)
(-0.0506097 -0.0103009 1.18565e-18)
(0.296375 0.0909226 -3.70264e-19)
(0.738791 0.222653 -2.01114e-19)
(1.00978 0.300137 -5.54534e-19)
(1.14687 0.342359 8.62913e-19)
(1.20622 0.362279 5.56388e-19)
(1.22844 0.369398 -3.31691e-19)
(1.23636 0.368823 -9.48912e-19)
(1.23904 0.365853 -3.45114e-19)
(1.24099 0.356108 1.64858e-18)
(1.24074 0.352315 1.00312e-18)
(1.24302 0.338337 9.79175e-19)
(1.24322 0.331212 -2.96322e-19)
(-0.0531761 0.00768406 -3.56271e-19)
(-0.0831268 0.0170177 1.27308e-19)
(-0.00174468 -0.0169788 -4.88322e-19)
(0.446858 0.140842 -1.37977e-20)
(0.840843 0.255182 -3.71683e-19)
(1.06826 0.321983 -5.46003e-19)
(1.1756 0.35518 1.85788e-19)
(1.21756 0.368538 -1.11091e-18)
(1.2312 0.371883 9.86524e-19)
(1.23502 0.369714 1.26309e-18)
(1.23567 0.365603 1.62826e-19)
(1.2368 0.356138 -1.42284e-18)
(1.23593 0.35208 -1.37766e-18)
(1.23765 0.337224 -1.03125e-18)
(1.2371 0.331497 4.09398e-19)
(-0.0531658 0.0115284 -1.14712e-18)
(-0.08476 0.0112351 3.14468e-19)
(0.0719301 -0.000381908 -2.22707e-19)
(0.573483 0.182514 2.16266e-21)
(0.925881 0.285149 -9.85024e-20)
(1.11452 0.340726 -2.09304e-19)
(1.19638 0.365597 3.82296e-19)
(1.22466 0.373819 -2.2188e-19)
(1.23178 0.374265 -2.82421e-19)
(1.2327 0.370743 -5.48962e-19)
(1.23223 0.365849 -4.87307e-19)
(1.23233 0.356424 -2.22253e-19)
(1.23091 0.351967 8.54065e-19)
(1.23219 0.336605 -3.21022e-20)
(1.23038 0.331827 6.547e-19)
(-0.0524441 0.0172922 4.77473e-19)
(-0.079963 0.000601106 8.08689e-19)
(0.173098 0.0426168 1.29147e-19)
(0.682984 0.2198 5.02976e-19)
(0.996103 0.310754 1.08394e-18)
(1.14926 0.356228 3.91579e-19)
(1.20996 0.374315 1.43041e-18)
(1.22808 0.378505 7.44346e-19)
(1.23096 0.376759 4.71731e-19)
(1.22996 0.37221 1.07775e-18)
(1.22835 0.366433 3.33865e-19)
(1.22775 0.357131 6.09001e-19)
(1.22582 0.35207 3.00725e-19)
(1.22661 0.336279 1.3995e-19)
(1.22443 0.332668 4.50491e-19)
(-0.0522324 0.0213395 6.63547e-19)
(-0.0623659 -0.0117708 -1.14231e-18)
(0.297579 0.0940382 -2.15779e-19)
(0.778407 0.250781 5.15717e-19)
(1.05175 0.332539 -1.09074e-18)
(1.17514 0.369523 -4.39025e-19)
(1.21908 0.381785 -8.81552e-19)
(1.2295 0.382801 -2.84312e-20)
(1.22912 0.379361 -2.32834e-19)
(1.22662 0.373864 -9.083e-19)
(1.22433 0.367406 6.89348e-19)
(1.22294 0.35804 5.17991e-20)
(1.22064 0.352372 -2.94782e-20)
(1.22101 0.336459 2.43802e-19)
(1.21771 0.333383 -5.5397e-19)
(-0.0533668 0.0197976 -4.83912e-20)
(-0.028933 -0.019011 4.92809e-19)
(0.427963 0.140923 1.3217e-19)
(0.862228 0.278274 -7.18857e-19)
(1.09603 0.350589 4.79764e-19)
(1.19363 0.380438 1.51312e-19)
(1.22416 0.388277 -3.95183e-19)
(1.22894 0.386909 -1.86323e-19)
(1.22646 0.382154 -5.59895e-19)
(1.223 0.375901 9.84156e-20)
(1.21997 0.368708 -6.67427e-19)
(1.21801 0.359306 -4.70298e-19)
(1.21526 0.352885 1.24507e-19)
(1.21508 0.336794 1.27418e-19)
(1.21167 0.334427 -2.20464e-19)
(-0.0560071 0.0101842 -2.46368e-19)
(0.0196302 -0.0167186 -1.54764e-19)
(0.5462 0.181867 3.48079e-19)
(0.935373 0.303721 6.17681e-19)
(1.13074 0.366222 1.19281e-19)
(1.20632 0.389883 -3.27232e-19)
(1.22666 0.394196 4.08469e-19)
(1.22741 0.390991 3.53574e-19)
(1.2233 0.385168 1.82485e-19)
(1.21896 0.378146 3.42997e-20)
(1.21543 0.370329 2.14589e-19)
(1.21281 0.360714 9.44652e-20)
(1.20978 0.353582 -6.5375e-20)
(1.20929 0.337631 -8.20336e-20)
(1.20506 0.335393 7.14307e-20)
(-0.0593326 -0.00689608 -1.14949e-19)
(0.0863301 -0.0020328 -1.33618e-19)
(0.647605 0.217009 1.08839e-19)
(0.996985 0.327693 -1.4702e-19)
(1.15823 0.3803 -3.10962e-19)
(1.21483 0.398085 2.39815e-20)
(1.22696 0.39963 1.88968e-19)
(1.22472 0.395076 -1.69348e-19)
(1.21954 0.388387 1.11444e-19)
(1.21462 0.380712 2.23711e-19)
(1.21055 0.37223 3.55899e-20)
(1.20749 0.362422 8.81029e-20)
(1.2041 0.354526 -1.05548e-19)
(1.20304 0.338507 7.14505e-20)
(1.19881 0.336422 -5.15781e-20)