/*--------------------------------*- C++ -*----------------------------------*\
  =========                 |
  \\      /  F ield         | OpenFOAM: The Open Source CFD Toolbox
   \\    /   O peration     | Website:  https://openfoam.org
    \\  /    A nd           | Version:  7
     \\/     M anipulation  |
\*---------------------------------------------------------------------------*/
FoamFile
{
    version     2.0;
    format      ascii;
    class       volScalarField;
    location    "22.0011";
    object      p;
}
// * * * * * * * * * * * * * * * * * * * * * * * * * * * * * * * * * * * * * //

dimensions      [0 2 -2 0 0 0 0];

internalField   nonuniform List<scalar> 
18750
(
-0.0246013
-0.0346241
-0.0521491
-0.0779173
-0.110314
-0.148611
-0.191831
-0.23921
-0.289973
-0.343493
-0.399154
-0.456308
-0.514152
-0.571761
-0.628223
-0.0284453
-0.0382051
-0.0554908
-0.0810522
-0.113278
-0.151436
-0.194545
-0.241829
-0.292504
-0.345939
-0.401528
-0.458634
-0.51643
-0.573933
-0.630192
-0.0359862
-0.0452343
-0.0620496
-0.0872034
-0.11909
-0.15697
-0.199849
-0.246935
-0.297423
-0.350674
-0.406099
-0.463077
-0.520753
-0.578042
-0.633925
-0.046917
-0.0554324
-0.0715621
-0.0961196
-0.127506
-0.164967
-0.207495
-0.254271
-0.304462
-0.357414
-0.412554
-0.46929
-0.526747
-0.583724
-0.639106
-0.0608012
-0.0683986
-0.0836503
-0.107444
-0.13818
-0.175087
-0.217139
-0.263485
-0.313257
-0.36578
-0.420492
-0.476839
-0.533949
-0.590523
-0.645332
-0.0770999
-0.0836245
-0.0978416
-0.120736
-0.150692
-0.186919
-0.22837
-0.274161
-0.323389
-0.375346
-0.429473
-0.485263
-0.54188
-0.597969
-0.652178
-0.0952164
-0.100506
-0.113594
-0.135498
-0.164571
-0.200007
-0.240739
-0.285856
-0.334415
-0.385671
-0.439062
-0.494125
-0.550097
-0.605625
-0.659245
-0.114484
-0.118403
-0.130335
-0.151205
-0.179324
-0.213879
-0.25379
-0.298121
-0.345898
-0.396334
-0.448854
-0.503035
-0.558217
-0.613114
-0.666184
-0.134183
-0.136674
-0.147495
-0.167333
-0.194458
-0.228068
-0.267075
-0.310526
-0.357423
-0.406944
-0.458486
-0.511661
-0.565924
-0.620127
-0.672699
-0.153593
-0.154693
-0.164531
-0.183375
-0.209499
-0.242131
-0.280178
-0.322677
-0.368617
-0.41715
-0.467644
-0.519726
-0.572967
-0.62641
-0.678539
-0.172028
-0.171885
-0.180945
-0.198863
-0.224011
-0.255664
-0.292721
-0.33422
-0.379149
-0.42665
-0.476059
-0.527002
-0.579146
-0.631761
-0.683483
-0.188863
-0.187771
-0.196295
-0.213375
-0.237608
-0.268308
-0.304374
-0.34485
-0.388738
-0.43518
-0.483498
-0.533297
-0.584303
-0.636009
-0.687334
-0.203574
-0.202024
-0.210187
-0.226544
-0.249959
-0.279762
-0.314856
-0.354308
-0.397144
-0.44252
-0.489756
-0.538439
-0.588307
-0.639021
-0.689893
-0.215765
-0.214414
-0.222278
-0.238076
-0.260799
-0.289774
-0.323933
-0.362382
-0.404171
-0.448484
-0.494656
-0.542269
-0.591045
-0.640705
-0.690952
-0.225429
-0.22458
-0.2323
-0.247755
-0.269926
-0.298151
-0.331421
-0.3689
-0.409661
-0.452922
-0.498046
-0.544633
-0.592402
-0.641018
-0.69028
-0.232592
-0.23234
-0.240198
-0.255453
-0.277203
-0.304751
-0.337184
-0.373727
-0.413482
-0.455711
-0.499802
-0.545383
-0.592226
-0.639929
-0.687852
-0.237381
-0.237761
-0.245956
-0.26118
-0.28255
-0.309485
-0.341132
-0.376764
-0.415534
-0.456749
-0.499826
-0.544405
-0.590344
-0.637285
-0.683908
-0.240106
-0.241094
-0.249637
-0.264901
-0.285973
-0.312341
-0.343235
-0.377954
-0.415733
-0.455947
-0.498034
-0.541624
-0.586641
-0.632909
-0.67844
-0.241254
-0.242683
-0.251393
-0.266656
-0.287473
-0.313302
-0.343445
-0.377252
-0.414041
-0.45325
-0.494371
-0.536982
-0.581018
-0.62675
-0.671231
-0.241406
-0.242897
-0.25142
-0.266557
-0.287104
-0.312387
-0.34176
-0.374643
-0.410428
-0.448603
-0.488765
-0.530447
-0.573394
-0.618741
-0.66212
-0.24109
-0.242028
-0.249918
-0.264767
-0.284977
-0.309662
-0.338216
-0.370135
-0.404879
-0.441963
-0.481121
-0.521988
-0.563702
-0.608793
-0.651051
-0.240588
-0.240201
-0.247092
-0.261493
-0.281238
-0.305227
-0.332881
-0.363755
-0.397392
-0.433311
-0.471334
-0.511557
-0.551896
-0.596817
-0.638011
-0.239806
-0.237345
-0.243197
-0.256978
-0.276054
-0.299208
-0.325854
-0.355557
-0.387973
-0.422675
-0.459306
-0.499076
-0.537942
-0.58276
-0.622975
-0.238356
-0.233435
-0.238602
-0.251489
-0.269607
-0.291758
-0.317264
-0.345628
-0.376624
-0.410112
-0.444983
-0.484436
-0.52179
-0.56658
-0.60601
-0.235923
-0.228936
-0.233769
-0.245301
-0.262121
-0.283073
-0.307269
-0.334108
-0.363346
-0.395662
-0.428384
-0.467519
-0.50339
-0.548114
-0.587243
-0.232481
-0.224898
-0.229078
-0.238707
-0.253897
-0.273419
-0.296053
-0.321191
-0.348177
-0.379314
-0.409612
-0.448232
-0.482791
-0.527143
-0.566574
-0.228541
-0.22213
-0.224677
-0.23207
-0.245354
-0.263149
-0.28383
-0.307102
-0.331256
-0.360998
-0.388811
-0.426438
-0.460283
-0.503697
-0.543846
-0.22475
-0.22047
-0.22064
-0.225895
-0.237003
-0.252718
-0.270881
-0.292031
-0.312887
-0.340637
-0.366232
-0.401861
-0.436018
-0.478046
-0.51925
-0.221655
-0.219178
-0.217332
-0.220792
-0.229389
-0.242649
-0.257624
-0.276158
-0.293472
-0.318213
-0.342289
-0.37447
-0.409868
-0.450089
-0.493569
-0.219381
-0.217851
-0.215297
-0.21714
-0.223008
-0.233514
-0.244653
-0.259696
-0.273564
-0.293755
-0.317365
-0.344533
-0.382248
-0.418554
-0.467728
-0.217831
-0.216593
-0.214479
-0.214905
-0.218261
-0.225807
-0.232777
-0.24302
-0.253671
-0.267764
-0.2916
-0.312893
-0.353208
-0.384264
-0.435555
-0.21681
-0.215702
-0.214247
-0.213885
-0.215408
-0.219913
-0.222737
-0.226978
-0.234218
-0.241298
-0.265008
-0.281573
-0.322212
-0.352072
-0.401784
-0.216126
-0.21519
-0.214262
-0.213865
-0.214391
-0.216043
-0.215055
-0.212512
-0.215802
-0.215888
-0.238008
-0.252097
-0.294264
-0.321872
-0.37395
-0.215608
-0.214929
-0.214518
-0.214527
-0.214737
-0.214115
-0.209715
-0.200994
-0.198609
-0.193977
-0.210132
-0.226314
-0.264791
-0.296824
-0.352091
-0.215098
-0.214756
-0.214929
-0.215517
-0.215741
-0.213684
-0.206194
-0.193174
-0.183398
-0.176278
-0.184494
-0.203873
-0.237364
-0.276123
-0.329351
-0.214461
-0.214517
-0.215285
-0.216435
-0.216788
-0.214035
-0.204044
-0.188538
-0.171954
-0.162442
-0.166052
-0.185707
-0.2166
-0.260356
-0.305922
-0.213608
-0.214081
-0.215358
-0.217
-0.217486
-0.214477
-0.202953
-0.186036
-0.164782
-0.152719
-0.154391
-0.173737
-0.20257
-0.247221
-0.288924
-0.212515
-0.213381
-0.21502
-0.217015
-0.217654
-0.214557
-0.202655
-0.184896
-0.161613
-0.147736
-0.148349
-0.167299
-0.194698
-0.23621
-0.277134
-0.211244
-0.212423
-0.214237
-0.216436
-0.217266
-0.214299
-0.20315
-0.184991
-0.162237
-0.147841
-0.14754
-0.164986
-0.191512
-0.228544
-0.267862
-0.209961
-0.211338
-0.213164
-0.21541
-0.21649
-0.214289
-0.205239
-0.188061
-0.165962
-0.152359
-0.151386
-0.166395
-0.191341
-0.223863
-0.260048
-0.208916
-0.210391
-0.212146
-0.214407
-0.215991
-0.215376
-0.209951
-0.195022
-0.172805
-0.159838
-0.158331
-0.170679
-0.192827
-0.221093
-0.253351
-0.208358
-0.209867
-0.211583
-0.214032
-0.216399
-0.217836
-0.216778
-0.203474
-0.182036
-0.16857
-0.166473
-0.17626
-0.195105
-0.219345
-0.247471
-0.208429
-0.209938
-0.211706
-0.214448
-0.217784
-0.221359
-0.223034
-0.211529
-0.19122
-0.177452
-0.174536
-0.181994
-0.197569
-0.217981
-0.242173
-0.209103
-0.210577
-0.212442
-0.215482
-0.219666
-0.225354
-0.225773
-0.217672
-0.199049
-0.185587
-0.181835
-0.187172
-0.199751
-0.216671
-0.23729
-0.210218
-0.211602
-0.213525
-0.216689
-0.221399
-0.228403
-0.22713
-0.220656
-0.204792
-0.192352
-0.187965
-0.191454
-0.201407
-0.215208
-0.232646
-0.211556
-0.212777
-0.214634
-0.217596
-0.222948
-0.22794
-0.227998
-0.221548
-0.208415
-0.197458
-0.192764
-0.194729
-0.202397
-0.213479
-0.228144
-0.212916
-0.213896
-0.215532
-0.217873
-0.224205
-0.225404
-0.227321
-0.221201
-0.210285
-0.200891
-0.196181
-0.19697
-0.202692
-0.211436
-0.223688
-0.214164
-0.214842
-0.216023
-0.218001
-0.223318
-0.223754
-0.225211
-0.219861
-0.210821
-0.202842
-0.198302
-0.198231
-0.202306
-0.209055
-0.219218
-0.215246
-0.215596
-0.216064
-0.218309
-0.219362
-0.222712
-0.222815
-0.217961
-0.210406
-0.203584
-0.19927
-0.198572
-0.201273
-0.206347
-0.214687
-0.216172
-0.21617
-0.21584
-0.218788
-0.215278
-0.220715
-0.220311
-0.215793
-0.20932
-0.20337
-0.199264
-0.198094
-0.199646
-0.203319
-0.210058
-0.217023
-0.216575
-0.21602
-0.217674
-0.214672
-0.218353
-0.217682
-0.213517
-0.207787
-0.202432
-0.19846
-0.196891
-0.197479
-0.199989
-0.205306
-0.217926
-0.216863
-0.217313
-0.214073
-0.215799
-0.216715
-0.215176
-0.211174
-0.205926
-0.200931
-0.197003
-0.195068
-0.194833
-0.196366
-0.200408
-0.21891
-0.217188
-0.219557
-0.210395
-0.215554
-0.215426
-0.212965
-0.208851
-0.203827
-0.198997
-0.195021
-0.192718
-0.191764
-0.192466
-0.195348
-0.219988
-0.218242
-0.220636
-0.211342
-0.214666
-0.21408
-0.210991
-0.206577
-0.201544
-0.196711
-0.192602
-0.189921
-0.18833
-0.188303
-0.190115
-0.221207
-0.22063
-0.219559
-0.216399
-0.215082
-0.212862
-0.2091
-0.204314
-0.199113
-0.194139
-0.18982
-0.186743
-0.184573
-0.183893
-0.184713
-0.222609
-0.224422
-0.216784
-0.220039
-0.21635
-0.212044
-0.20732
-0.202043
-0.196545
-0.19132
-0.186723
-0.183233
-0.180529
-0.179252
-0.179153
-0.224262
-0.228636
-0.215011
-0.220631
-0.217094
-0.211498
-0.2057
-0.199768
-0.19385
-0.188281
-0.183347
-0.179428
-0.176223
-0.174393
-0.173462
-0.226472
-0.231739
-0.217765
-0.22025
-0.217018
-0.210873
-0.204167
-0.197489
-0.191034
-0.185037
-0.179713
-0.17535
-0.171672
-0.169327
-0.167661
-0.22961
-0.23302
-0.224702
-0.2214
-0.216688
-0.210006
-0.202572
-0.195154
-0.18809
-0.181593
-0.175835
-0.171018
-0.166888
-0.164067
-0.16177
-0.234001
-0.232641
-0.231962
-0.224459
-0.21688
-0.209016
-0.200818
-0.192687
-0.184985
-0.177945
-0.171716
-0.166436
-0.161877
-0.15862
-0.15579
-0.240093
-0.231521
-0.237408
-0.228156
-0.217749
-0.208116
-0.198904
-0.190024
-0.181675
-0.174071
-0.167353
-0.161609
-0.156643
-0.152991
-0.149711
-0.247845
-0.232935
-0.240793
-0.231454
-0.218927
-0.207354
-0.196869
-0.187134
-0.178118
-0.169945
-0.162733
-0.156533
-0.151183
-0.147173
-0.143509
-0.256918
-0.239016
-0.243269
-0.233842
-0.219904
-0.206578
-0.194702
-0.184004
-0.174281
-0.165538
-0.157838
-0.151199
-0.14549
-0.141155
-0.13715
-0.266462
-0.249489
-0.246246
-0.235303
-0.220281
-0.205533
-0.192325
-0.180611
-0.170145
-0.160826
-0.15265
-0.145592
-0.139552
-0.13492
-0.130611
-0.275113
-0.261563
-0.250261
-0.236151
-0.219889
-0.203987
-0.189615
-0.176912
-0.165688
-0.155791
-0.147149
-0.139697
-0.133351
-0.128451
-0.123883
-0.28163
-0.271897
-0.254642
-0.236662
-0.21876
-0.201815
-0.186455
-0.172848
-0.160886
-0.150416
-0.141319
-0.133491
-0.126863
-0.121733
-0.116962
-0.285326
-0.278845
-0.258045
-0.236762
-0.217011
-0.198999
-0.18277
-0.16836
-0.155707
-0.144683
-0.135145
-0.126957
-0.120066
-0.11474
-0.109835
-0.286515
-0.282448
-0.259869
-0.23621
-0.214705
-0.195582
-0.178532
-0.163403
-0.150119
-0.138573
-0.128613
-0.12008
-0.112939
-0.107445
-0.102459
-0.286409
-0.283545
-0.260095
-0.234831
-0.211826
-0.191597
-0.173739
-0.157948
-0.144094
-0.132067
-0.12171
-0.112852
-0.105473
-0.0998193
-0.0947482
-0.285999
-0.283066
-0.258941
-0.232555
-0.208322
-0.187048
-0.168395
-0.151979
-0.137606
-0.125144
-0.114422
-0.105267
-0.0976764
-0.0918624
-0.0865674
-0.285861
-0.281716
-0.256686
-0.229396
-0.204143
-0.181914
-0.162494
-0.145485
-0.130638
-0.117784
-0.106734
-0.0973216
-0.0895657
-0.0836162
-0.0777836
-0.286159
-0.279871
-0.253551
-0.225392
-0.199249
-0.17616
-0.156018
-0.138451
-0.123172
-0.109971
-0.0986363
-0.0890133
-0.0811557
-0.075146
-0.0683674
-0.286762
-0.277697
-0.249686
-0.220583
-0.193612
-0.169745
-0.148939
-0.130858
-0.115193
-0.101696
-0.0901264
-0.0803491
-0.072458
-0.0664587
-0.0585234
-0.287343
-0.275223
-0.245162
-0.214984
-0.187202
-0.162626
-0.141222
-0.122684
-0.106691
-0.0929559
-0.0812147
-0.0713518
-0.0635001
-0.0574186
-0.0487191
-0.287489
-0.272353
-0.239971
-0.208581
-0.179983
-0.15476
-0.132833
-0.113911
-0.0976585
-0.0837555
-0.0719189
-0.0620531
-0.0543206
-0.0478583
-0.0390528
-0.286828
-0.268795
-0.23402
-0.201332
-0.171914
-0.146108
-0.123749
-0.104532
-0.0881026
-0.074106
-0.0622538
-0.052475
-0.0448247
-0.0378972
-0.0294244
-0.285039
-0.264182
-0.227164
-0.193169
-0.162956
-0.136646
-0.11396
-0.0945559
-0.0780332
-0.0640169
-0.0522097
-0.0425809
-0.0349556
-0.0276837
-0.0197378
-0.28183
-0.258245
-0.21924
-0.18402
-0.153076
-0.126366
-0.103482
-0.0839933
-0.0674477
-0.0534644
-0.0417861
-0.0323403
-0.0247117
-0.0173025
-0.00994297
-0.276973
-0.2508
-0.210105
-0.173816
-0.142256
-0.115287
-0.0923282
-0.0728223
-0.0563207
-0.0424545
-0.0309802
-0.0217422
-0.0141325
-0.00677131
-2.68328e-05
-0.270296
-0.241728
-0.19964
-0.162509
-0.130508
-0.103431
-0.0804609
-0.0610216
-0.0446548
-0.0309968
-0.0197936
-0.0107939
-0.00326639
0.00392698
0.0100108
-0.261691
-0.230976
-0.187745
-0.150077
-0.117864
-0.0907514
-0.067862
-0.0485928
-0.0324608
-0.0191022
-0.00823453
0.000488955
0.0078655
0.0148064
0.0201693
-0.251104
-0.218566
-0.174346
-0.13652
-0.104287
-0.0772298
-0.054536
-0.0355468
-0.0197536
-0.00678534
0.00368289
0.0120896
0.0192563
0.0258754
0.0304378
-0.238523
-0.204567
-0.159441
-0.121802
-0.0897261
-0.0628775
-0.0404999
-0.0219016
-0.00655156
0.00593751
0.0159442
0.0239938
0.0308965
0.0371215
0.0407822
-0.223971
-0.189012
-0.14317
-0.105824
-0.0741692
-0.0477134
-0.0257787
-0.00768147
0.00712388
0.0190499
0.0285389
0.0361912
0.04276
0.0484836
0.0511495
-0.207505
-0.171789
-0.125644
-0.0886593
-0.0576361
-0.0317614
-0.0104027
0.00708426
0.0212488
0.0325375
0.0414632
0.0486743
0.0548024
0.0598423
0.0614414
-0.189236
-0.152648
-0.107032
-0.0704442
-0.04018
-0.0150534
0.00559389
0.0223624
0.0357976
0.0463878
0.054716
0.0614324
0.0669674
0.0710419
0.0713837
-0.169305
-0.131571
-0.0873295
-0.0513025
-0.0218787
0.0023657
0.0221726
0.0381173
0.0507435
0.0605875
0.068289
0.0744362
0.0791855
0.0819139
0.08049
-0.147807
-0.108867
-0.0664457
-0.0313088
-0.00281675
0.0204387
0.0392888
0.0543111
0.0660587
0.0751167
0.0821534
0.0876233
0.0913574
0.0923178
0.0885935
-0.124705
-0.0850041
-0.0444214
-0.0104996
0.0169304
0.0391001
0.0568918
0.0709037
0.0817125
0.0899447
0.0962509
0.100894
0.10337
0.102343
0.0966632
-0.0999743
-0.0603685
-0.0214054
0.011086
0.037297
0.0582817
0.0749258
0.0878518
0.0976687
0.105026
0.110502
0.114139
0.115179
0.112508
0.106676
-0.0738424
-0.0349798
0.0024407
0.0333746
0.0582174
0.077915
0.0933313
0.105107
0.113882
0.120303
0.12483
0.127304
0.126886
0.123104
0.120401
-0.0465299
-0.00883941
0.0269806
0.0562657
0.0796172
0.0979305
0.112047
0.122616
0.130299
0.135711
0.139181
0.140418
0.13871
0.134402
0.133804
-0.0182474
0.017991
0.0520967
0.0796498
0.101413
0.118256
0.131007
0.14032
0.146859
0.151187
0.153524
0.153543
0.150792
0.146361
0.146525
0.0108202
0.0454086
0.077677
0.103418
0.123513
0.138815
0.150145
0.158155
0.163498
0.16668
0.167847
0.166706
0.163073
0.158543
0.158641
0.0404934
0.0732825
0.103607
0.127461
0.145825
0.159528
0.169389
0.176054
0.180156
0.182147
0.18214
0.179914
0.175516
0.170776
0.17031
0.0706025
0.101473
0.129767
0.151672
0.168252
0.180312
0.188666
0.19395
0.196774
0.197549
0.196375
0.193106
0.187963
0.182857
0.181681
0.10098
0.129836
0.156036
0.175944
0.1907
0.201083
0.2079
0.211777
0.213297
0.212845
0.210523
0.206251
0.200364
0.194754
0.192781
0.131461
0.15823
0.182289
0.200168
0.213072
0.221755
0.227016
0.229467
0.22967
0.227988
0.224528
0.219261
0.212608
0.206429
0.203647
0.161886
0.186512
0.208404
0.224235
0.235272
0.242243
0.245938
0.246954
0.245837
0.242931
0.23835
0.232104
0.224667
0.217851
0.214244
0.192098
0.214546
0.234259
0.248039
0.257205
0.262463
0.264591
0.264174
0.261738
0.257616
0.251923
0.244703
0.236482
0.229017
0.224569
0.221942
0.242198
0.259734
0.271474
0.278778
0.282332
0.282902
0.28106
0.27732
0.271998
0.265211
0.257029
0.248015
0.239871
0.234581
0.251271
0.269336
0.284713
0.294436
0.299898
0.301767
0.300798
0.297549
0.29252
0.286014
0.27815
0.269027
0.259237
0.250411
0.24426
0.279939
0.295835
0.309084
0.316825
0.320477
0.320689
0.318207
0.313578
0.307286
0.299622
0.290705
0.280658
0.270099
0.260581
0.253573
0.307809
0.321574
0.332737
0.338543
0.340426
0.33902
0.335062
0.329084
0.321558
0.312764
0.302824
0.291886
0.280581
0.270369
0.262494
0.334748
0.346434
0.355569
0.359497
0.359662
0.356687
0.351295
0.34401
0.335288
0.325398
0.314467
0.302665
0.290634
0.279732
0.270999
0.360628
0.370306
0.377479
0.379598
0.378106
0.373616
0.366842
0.358295
0.348419
0.337474
0.325595
0.31297
0.300236
0.288647
0.279061
0.385329
0.393082
0.398373
0.398759
0.39568
0.38974
0.381642
0.371887
0.360906
0.34895
0.336164
0.322754
0.309347
0.297086
0.286661
0.408737
0.414664
0.418161
0.416901
0.412313
0.404994
0.395637
0.384733
0.3727
0.359787
0.346144
0.331992
0.317941
0.305022
0.293778
0.430746
0.434957
0.436759
0.433948
0.427937
0.419318
0.408773
0.396784
0.383759
0.369943
0.355495
0.340649
0.325989
0.312432
0.300394
0.451256
0.453874
0.454089
0.44983
0.442488
0.432653
0.420998
0.407995
0.394043
0.379384
0.364187
0.348695
0.333463
0.319293
0.306493
0.470174
0.471335
0.470079
0.464481
0.455909
0.444948
0.432266
0.418323
0.403513
0.388075
0.37219
0.356105
0.340338
0.325586
0.312063
0.487417
0.48727
0.484664
0.477843
0.468145
0.456155
0.442532
0.427731
0.412135
0.395987
0.379475
0.362851
0.346592
0.331293
0.31709
0.502906
0.501615
0.497788
0.489862
0.479147
0.466229
0.451758
0.436182
0.419878
0.40309
0.386017
0.36891
0.352204
0.336398
0.321566
0.516578
0.514311
0.509396
0.500488
0.488872
0.475131
0.459908
0.443645
0.426714
0.409361
0.391794
0.374262
0.357156
0.340886
0.325483
0.528391
0.525297
0.519439
0.509678
0.497281
0.482826
0.466952
0.450093
0.432619
0.414777
0.396785
0.378887
0.36143
0.344747
0.328836
0.538312
0.534517
0.527872
0.517393
0.504339
0.489284
0.472862
0.455502
0.437571
0.419319
0.400972
0.382768
0.365013
0.347972
0.331623
0.546301
0.541932
0.534659
0.523603
0.510019
0.49448
0.477617
0.459853
0.441553
0.422972
0.40434
0.38589
0.367892
0.350553
0.333845
0.552324
0.547518
0.539772
0.528281
0.514298
0.498395
0.481198
0.46313
0.444552
0.425722
0.406876
0.388242
0.370058
0.352488
0.335506
0.556354
0.551252
0.543192
0.531409
0.51716
0.501012
0.483593
0.46532
0.446556
0.427561
0.408572
0.389814
0.371504
0.353777
0.336609
0.558374
0.553122
0.544904
0.532976
0.518593
0.502323
0.484791
0.466417
0.447559
0.428481
0.409421
0.390602
0.372228
0.35442
0.337158
0.558372
0.553121
0.544903
0.532975
0.518592
0.502322
0.48479
0.466415
0.447558
0.428479
0.409419
0.3906
0.372227
0.354418
0.337157
0.556351
0.551248
0.543188
0.531405
0.517156
0.501008
0.483589
0.465316
0.446552
0.427557
0.408568
0.38981
0.3715
0.353773
0.336605
0.552318
0.547511
0.539766
0.528274
0.514292
0.498388
0.481191
0.463123
0.444545
0.425715
0.406869
0.388235
0.370051
0.352481
0.3355
0.546292
0.541924
0.534651
0.523594
0.51001
0.494471
0.477607
0.459844
0.441544
0.422962
0.40433
0.38588
0.367882
0.350543
0.333836
0.538301
0.534506
0.527861
0.517382
0.504327
0.489272
0.47285
0.45549
0.437559
0.419307
0.400959
0.382755
0.365001
0.347959
0.331611
0.528378
0.525283
0.519425
0.509664
0.497266
0.482811
0.466937
0.450078
0.432604
0.414762
0.39677
0.378872
0.361415
0.344732
0.328822
0.516562
0.514295
0.50938
0.500471
0.488855
0.475113
0.459891
0.443627
0.426696
0.409343
0.391776
0.374244
0.357138
0.340869
0.325466
0.502887
0.501596
0.497769
0.489842
0.479127
0.466209
0.451737
0.436161
0.419857
0.403069
0.385997
0.36889
0.352184
0.336377
0.321546
0.487396
0.487248
0.484642
0.477821
0.468122
0.456132
0.442509
0.427707
0.412112
0.395963
0.379451
0.362827
0.346569
0.33127
0.317067
0.47015
0.471311
0.470054
0.464456
0.455883
0.444922
0.432239
0.418297
0.403486
0.388048
0.372163
0.356078
0.340312
0.32556
0.312037
0.451228
0.453846
0.454061
0.449801
0.44246
0.432624
0.420969
0.407966
0.394014
0.379355
0.364158
0.348666
0.333433
0.319264
0.306465
0.430715
0.434926
0.436728
0.433917
0.427905
0.419286
0.408741
0.396752
0.383727
0.36991
0.355462
0.340616
0.325957
0.3124
0.300363
0.408703
0.41463
0.418127
0.416866
0.412278
0.404959
0.395602
0.384697
0.372665
0.359752
0.346109
0.331957
0.317906
0.304987
0.293744
0.385292
0.393045
0.398336
0.398721
0.395642
0.389702
0.381604
0.371849
0.360867
0.348912
0.336126
0.322715
0.309309
0.297049
0.286624
0.360587
0.370265
0.377438
0.379556
0.378064
0.373574
0.3668
0.358253
0.348377
0.337432
0.325553
0.312928
0.300195
0.288606
0.279022
0.334704
0.34639
0.355525
0.359453
0.359617
0.356641
0.35125
0.343965
0.335243
0.325352
0.314422
0.302621
0.290589
0.279688
0.270956
0.307761
0.321526
0.332689
0.338495
0.340377
0.338972
0.335013
0.329036
0.32151
0.312715
0.302776
0.291839
0.280534
0.270322
0.262449
0.279887
0.295784
0.309032
0.316773
0.320424
0.320637
0.318155
0.313526
0.307234
0.29957
0.290654
0.280607
0.270048
0.260531
0.253525
0.251214
0.26928
0.284657
0.29438
0.299842
0.301711
0.300742
0.297493
0.292465
0.285959
0.278096
0.268973
0.259184
0.250358
0.244209
0.221881
0.242137
0.259673
0.271414
0.278718
0.282272
0.282842
0.281001
0.277261
0.271939
0.265153
0.256972
0.247958
0.239814
0.234526
0.192032
0.214482
0.234194
0.247975
0.257141
0.262399
0.264528
0.26411
0.261676
0.257554
0.251862
0.244642
0.236421
0.228958
0.224511
0.161816
0.186443
0.208335
0.224167
0.235204
0.242175
0.24587
0.246887
0.24577
0.242865
0.238285
0.23204
0.224603
0.217788
0.214183
0.131385
0.158155
0.182215
0.200095
0.212999
0.221682
0.226944
0.229396
0.2296
0.227919
0.224459
0.219193
0.212541
0.206363
0.203583
0.100898
0.129757
0.155957
0.175866
0.190623
0.201006
0.207824
0.211702
0.213223
0.212772
0.210451
0.20618
0.200294
0.194685
0.192714
0.0705155
0.101388
0.129683
0.151589
0.16817
0.180231
0.188585
0.193871
0.196696
0.197472
0.196299
0.193032
0.187889
0.182785
0.181611
0.0404003
0.0731918
0.103518
0.127373
0.145738
0.159442
0.169304
0.175971
0.180073
0.182066
0.18206
0.179835
0.175439
0.1707
0.170236
0.0107208
0.045312
0.0775821
0.103324
0.123421
0.138724
0.150056
0.158067
0.163411
0.166595
0.167764
0.166624
0.162992
0.158464
0.158564
-0.0183533
0.0178883
0.0519961
0.079551
0.101315
0.11816
0.130913
0.140228
0.146768
0.151098
0.153437
0.153457
0.150707
0.146278
0.146445
-0.0466428
-0.00894835
0.026874
0.0561613
0.0795148
0.0978301
0.111948
0.122519
0.130204
0.135618
0.13909
0.140328
0.138622
0.134315
0.133719
-0.0739626
-0.0350951
0.00232804
0.0332644
0.0581096
0.0778094
0.0932279
0.105006
0.113783
0.120206
0.124735
0.127211
0.126794
0.123013
0.120312
-0.100102
-0.0604902
-0.0215245
0.0109698
0.0371836
0.0581709
0.0748173
0.0877456
0.0975646
0.104924
0.110402
0.114042
0.115084
0.112414
0.106582
-0.124841
-0.0851322
-0.0445471
-0.010622
0.0168113
0.038984
0.0567783
0.0707927
0.0816039
0.0898385
0.096147
0.100792
0.103271
0.102246
0.0965662
-0.147951
-0.109002
-0.0665784
-0.0314374
-0.00294161
0.0203171
0.0391701
0.0541952
0.0659455
0.0750061
0.0820453
0.0875178
0.0912545
0.0922173
0.0884941
-0.169457
-0.131715
-0.0874693
-0.0514373
-0.0220095
0.00223848
0.0220487
0.0379965
0.0506257
0.0604725
0.0681767
0.0743267
0.0790788
0.08181
0.0803881
-0.189396
-0.1528
-0.107178
-0.0705853
-0.0403169
-0.0151863
0.00546473
0.0222367
0.0356751
0.0462684
0.0545994
0.0613188
0.0668569
0.0709346
0.0712787
-0.207674
-0.17195
-0.125797
-0.0888071
-0.0577792
-0.0319
-0.0105372
0.00695352
0.0211216
0.0324136
0.0413424
0.0485567
0.054688
0.0597313
0.0613331
-0.224148
-0.189181
-0.14333
-0.105978
-0.0743186
-0.0478577
-0.0259186
-0.00781726
0.00699189
0.0189215
0.0284139
0.0360695
0.0426417
0.048369
0.0510378
-0.238709
-0.204744
-0.159608
-0.121964
-0.0898816
-0.0630276
-0.0406452
-0.0220425
-0.00668832
0.00580461
0.0158149
0.0238681
0.0307744
0.0370031
0.0406671
-0.251299
-0.218751
-0.174521
-0.136688
-0.104449
-0.0773857
-0.0546867
-0.0356927
-0.0198951
-0.00692276
0.00354937
0.0119598
0.0191303
0.0257533
0.0303192
-0.261895
-0.23117
-0.187928
-0.150252
-0.118032
-0.090913
-0.0680181
-0.0487438
-0.0326071
-0.0192442
-0.00837234
0.000355091
0.00773559
0.0146806
0.0200471
-0.270508
-0.241929
-0.199831
-0.162691
-0.130682
-0.103599
-0.0806225
-0.0611778
-0.0448059
-0.0311432
-0.0199356
-0.0109318
-0.00340015
0.00379747
0.00988513
-0.277194
-0.25101
-0.210303
-0.174005
-0.142436
-0.115459
-0.0924951
-0.0729835
-0.0564766
-0.0426054
-0.0311266
-0.0218842
-0.0142701
-0.00690449
-0.000156077
-0.282059
-0.258462
-0.219445
-0.184214
-0.153262
-0.126544
-0.103653
-0.0841594
-0.0676083
-0.0536197
-0.0419368
-0.0324864
-0.0248532
-0.0174394
-0.0100758
-0.285275
-0.264407
-0.227375
-0.19337
-0.163148
-0.13683
-0.114138
-0.0947268
-0.0781984
-0.0641766
-0.0523646
-0.042731
-0.0351009
-0.0278241
-0.0198744
-0.287071
-0.269027
-0.234238
-0.201538
-0.172111
-0.146298
-0.123931
-0.104708
-0.0882724
-0.07427
-0.0624129
-0.052629
-0.0449738
-0.0380413
-0.0295647
-0.287738
-0.27259
-0.240194
-0.208794
-0.180186
-0.154955
-0.133021
-0.114091
-0.0978329
-0.083924
-0.072082
-0.062211
-0.0544734
-0.0480062
-0.0391968
-0.287597
-0.275464
-0.24539
-0.215202
-0.187411
-0.162826
-0.141414
-0.122869
-0.106869
-0.0931287
-0.0813818
-0.0715135
-0.0636565
-0.0575704
-0.0488665
-0.287019
-0.277943
-0.249919
-0.220806
-0.193827
-0.16995
-0.149136
-0.131048
-0.115377
-0.101873
-0.0902976
-0.0805146
-0.0726183
-0.0666142
-0.0586735
-0.286419
-0.280121
-0.253789
-0.225621
-0.199468
-0.17637
-0.15622
-0.138646
-0.12336
-0.110153
-0.0988114
-0.0891827
-0.0813198
-0.0753047
-0.0685193
-0.286122
-0.28197
-0.25693
-0.22963
-0.204367
-0.182129
-0.162701
-0.145684
-0.13083
-0.117969
-0.106913
-0.0974948
-0.0897334
-0.0837779
-0.0779384
-0.286262
-0.283324
-0.25919
-0.232795
-0.208551
-0.187267
-0.168606
-0.152183
-0.137803
-0.125334
-0.114605
-0.105444
-0.0978476
-0.0920275
-0.086726
-0.286673
-0.283809
-0.26035
-0.235075
-0.21206
-0.191821
-0.173954
-0.158155
-0.144294
-0.132261
-0.121897
-0.113032
-0.105648
-0.099988
-0.0949108
-0.286783
-0.28272
-0.260131
-0.23646
-0.214943
-0.19581
-0.178751
-0.163614
-0.150324
-0.138771
-0.128804
-0.120265
-0.113117
-0.107617
-0.102626
-0.2856
-0.279128
-0.258314
-0.237016
-0.217254
-0.199232
-0.182994
-0.168576
-0.155915
-0.144884
-0.135339
-0.127145
-0.120248
-0.114916
-0.110005
-0.281914
-0.272192
-0.254918
-0.236921
-0.219007
-0.202052
-0.186683
-0.173067
-0.161098
-0.15062
-0.141517
-0.133683
-0.127049
-0.121912
-0.117135
-0.275406
-0.261868
-0.250541
-0.236413
-0.220141
-0.204229
-0.189847
-0.177135
-0.165903
-0.155999
-0.14735
-0.139892
-0.133539
-0.128634
-0.12406
-0.26676
-0.249798
-0.246525
-0.235569
-0.220538
-0.205779
-0.192561
-0.180838
-0.170364
-0.161038
-0.152854
-0.145791
-0.139744
-0.135106
-0.130791
-0.257218
-0.239317
-0.243548
-0.234113
-0.220164
-0.206828
-0.194941
-0.184234
-0.174503
-0.165753
-0.158046
-0.1514
-0.145686
-0.141344
-0.137333
-0.248142
-0.233224
-0.241074
-0.23173
-0.219192
-0.207606
-0.197111
-0.187367
-0.178343
-0.170164
-0.162944
-0.156738
-0.151381
-0.147365
-0.143694
-0.240384
-0.231799
-0.237696
-0.228437
-0.218015
-0.20837
-0.199149
-0.19026
-0.181904
-0.174293
-0.167568
-0.161817
-0.156845
-0.153186
-0.1499
-0.23429
-0.232916
-0.232259
-0.224741
-0.217147
-0.209272
-0.201065
-0.192926
-0.185217
-0.178169
-0.171934
-0.166647
-0.162082
-0.158819
-0.155982
-0.229897
-0.233298
-0.225005
-0.221679
-0.216955
-0.210265
-0.202822
-0.195396
-0.188323
-0.18182
-0.176056
-0.171232
-0.167096
-0.164269
-0.161965
-0.226757
-0.232023
-0.218061
-0.220525
-0.217286
-0.211134
-0.204419
-0.197733
-0.191271
-0.185266
-0.179936
-0.175568
-0.171884
-0.169533
-0.16786
-0.224545
-0.228926
-0.215292
-0.220906
-0.217367
-0.211762
-0.205954
-0.200013
-0.194088
-0.188513
-0.183574
-0.179649
-0.176439
-0.174602
-0.173664
-0.222892
-0.224714
-0.217054
-0.220324
-0.216627
-0.212309
-0.207575
-0.20229
-0.196785
-0.191555
-0.186952
-0.183457
-0.180748
-0.179465
-0.179359
-0.221491
-0.220919
-0.219833
-0.216696
-0.215361
-0.213128
-0.209356
-0.204562
-0.199354
-0.194376
-0.190053
-0.186971
-0.184796
-0.18411
-0.184922
-0.220271
-0.218526
-0.220917
-0.211637
-0.214943
-0.214347
-0.211248
-0.206825
-0.201787
-0.19695
-0.192837
-0.190152
-0.188557
-0.188524
-0.190328
-0.219193
-0.21747
-0.219845
-0.210674
-0.21583
-0.215694
-0.213222
-0.209099
-0.204071
-0.199238
-0.19526
-0.192954
-0.191996
-0.192691
-0.195566
-0.218208
-0.217143
-0.217601
-0.214342
-0.216083
-0.216985
-0.215431
-0.211422
-0.20617
-0.201174
-0.197245
-0.195308
-0.195069
-0.196596
-0.20063
-0.217305
-0.216856
-0.216304
-0.217948
-0.21496
-0.218619
-0.217936
-0.213763
-0.208031
-0.202677
-0.198706
-0.197137
-0.197721
-0.200225
-0.205534
-0.216454
-0.216451
-0.21612
-0.21907
-0.215552
-0.220979
-0.220563
-0.216037
-0.209563
-0.203617
-0.199514
-0.198345
-0.199895
-0.203562
-0.210291
-0.215528
-0.215878
-0.216344
-0.218591
-0.219624
-0.222979
-0.223065
-0.218202
-0.210649
-0.203833
-0.199526
-0.198831
-0.201529
-0.206597
-0.214927
-0.214447
-0.215124
-0.216303
-0.21828
-0.223585
-0.224019
-0.225455
-0.220098
-0.211063
-0.203095
-0.198564
-0.198498
-0.202571
-0.209313
-0.219465
-0.2132
-0.21418
-0.215812
-0.218149
-0.224479
-0.225659
-0.227562
-0.221433
-0.210526
-0.201148
-0.196451
-0.197247
-0.202968
-0.211703
-0.223943
-0.211841
-0.213061
-0.214915
-0.217872
-0.223221
-0.228189
-0.228237
-0.221776
-0.208658
-0.197722
-0.193044
-0.195017
-0.202684
-0.213757
-0.228408
-0.210505
-0.211888
-0.213807
-0.216966
-0.221669
-0.228657
-0.227364
-0.220881
-0.205038
-0.192623
-0.188257
-0.191756
-0.201708
-0.215498
-0.23292
-0.209391
-0.210863
-0.212725
-0.215759
-0.219935
-0.225611
-0.226001
-0.2179
-0.199302
-0.185868
-0.18214
-0.187489
-0.200068
-0.216975
-0.237573
-0.208718
-0.210225
-0.211989
-0.214725
-0.218052
-0.221615
-0.223265
-0.211765
-0.19148
-0.177744
-0.174857
-0.18233
-0.197903
-0.218299
-0.242467
-0.208647
-0.210154
-0.211865
-0.214307
-0.216665
-0.218091
-0.217019
-0.203716
-0.182306
-0.168874
-0.166811
-0.176616
-0.195459
-0.21968
-0.247777
-0.209204
-0.210676
-0.212426
-0.214679
-0.216254
-0.215628
-0.210196
-0.195277
-0.173084
-0.160156
-0.158689
-0.171056
-0.193201
-0.221444
-0.253667
-0.210248
-0.211621
-0.213441
-0.215679
-0.216749
-0.214539
-0.205483
-0.188314
-0.166247
-0.152691
-0.151762
-0.166789
-0.191736
-0.224229
-0.260376
-0.211528
-0.212704
-0.214513
-0.216703
-0.217522