/*--------------------------------*- C++ -*----------------------------------*\
  =========                 |
  \\      /  F ield         | OpenFOAM: The Open Source CFD Toolbox
   \\    /   O peration     | Website:  https://openfoam.org
    \\  /    A nd           | Version:  7
     \\/     M anipulation  |
\*---------------------------------------------------------------------------*/
FoamFile
{
    version     2.0;
    format      ascii;
    class       surfaceScalarField;
    location    "22.0011";
    object      phi;
}
// * * * * * * * * * * * * * * * * * * * * * * * * * * * * * * * * * * * * * //

dimensions      [0 3 -1 0 0 0 0];

internalField   nonuniform List<scalar> 
37105
(
-1.1168e-05
1.11634e-05
4.60804e-09
-2.60528e-05
1.48958e-05
-1.09989e-08
-4.14577e-05
1.54383e-05
-3.34553e-08
-5.75283e-05
1.6131e-05
-6.04097e-08
-7.43624e-05
1.69248e-05
-9.07334e-08
-9.20341e-05
1.77952e-05
-1.2353e-07
-0.000110608
1.87318e-05
-1.58078e-07
-0.000130129
1.97152e-05
-1.9355e-07
-0.000150645
2.07451e-05
-2.29214e-07
-0.000172198
2.18171e-05
-2.64276e-07
-0.000194834
2.29337e-05
-2.98018e-07
-0.000218576
2.40716e-05
-3.29541e-07
-0.000243417
2.5199e-05
-3.57934e-07
-0.00026933
2.6295e-05
-3.82311e-07
2.742e-05
-4.01578e-07
-0.000296348
-1.09987e-05
2.21621e-05
-2.57199e-05
2.9617e-05
-4.09634e-05
3.06819e-05
-5.68548e-05
3.20224e-05
-7.34862e-05
3.35563e-05
-9.09229e-05
3.52319e-05
-0.00010922
3.7029e-05
-0.000128413
3.89079e-05
-0.000148535
4.08672e-05
-0.000169614
4.28966e-05
-0.000191682
4.50016e-05
-0.000214751
4.71403e-05
-0.000238808
4.92564e-05
-0.000263819
5.13061e-05
5.33893e-05
-0.000289789
-1.06628e-05
3.28249e-05
-2.50601e-05
4.40143e-05
-3.99848e-05
4.56066e-05
-5.55236e-05
4.75612e-05
-7.17586e-05
4.97912e-05
-8.87382e-05
5.22115e-05
-0.000106501
5.47913e-05
-0.000125062
5.74692e-05
-0.000144435
6.024e-05
-0.000164622
6.3084e-05
-0.000185631
6.60102e-05
-0.000207457
6.89662e-05
-0.000230081
7.18812e-05
-0.00025346
7.46843e-05
7.74778e-05
-0.000277548
-1.01667e-05
4.29916e-05
-2.40855e-05
5.79331e-05
-3.85411e-05
6.00622e-05
-5.35656e-05
6.25857e-05
-6.92267e-05
6.54523e-05
-8.55503e-05
6.85351e-05
-0.000102552
7.17931e-05
-0.000120225
7.51422e-05
-0.000138556
7.85709e-05
-0.00015752
8.20483e-05
-0.000177098
8.55883e-05
-0.00019727
8.91379e-05
-0.000218015
9.2626e-05
-0.000239282
9.59519e-05
9.91821e-05
-0.000260987
-9.5219e-06
5.25135e-05
-2.28133e-05
7.12245e-05
-3.66587e-05
7.39076e-05
-5.10231e-05
7.69501e-05
-6.59548e-05
8.03841e-05
-8.14535e-05
8.40337e-05
-9.75098e-05
8.78494e-05
-0.000114092
9.17249e-05
-0.000131164
9.56422e-05
-0.000148674
9.95586e-05
-0.000166582
0.000103496
-0.000184855
0.000107411
-0.000203479
0.00011125
-0.000222413
0.000114886
0.00011832
-0.000241551
-8.75871e-06
6.12722e-05
-2.12634e-05
8.37292e-05
-3.4369e-05
8.70132e-05
-4.79468e-05
9.05279e-05
-6.20188e-05
9.4456e-05
-7.65563e-05
9.85713e-05
-9.15256e-05
0.000102819
-0.000106873
0.000107072
-0.00012254
0.000111309
-0.000138459
0.000115478
-0.000154573
0.00011961
-0.000170848
0.000123686
-0.00018728
0.000127683
-0.000203854
0.000131459
0.000134941
-0.000220474
-7.85333e-06
6.91255e-05
-1.94452e-05
9.53211e-05
-3.17054e-05
9.92733e-05
-4.43923e-05
0.000103215
-5.74999e-05
0.000107564
-7.09732e-05
0.000112045
-8.47553e-05
0.000116601
-9.87736e-05
0.00012109
-0.000112956
0.000125492
-0.000127224
0.000129745
-0.000141514
0.0001339
-0.000155793
0.000137965
-0.000170076
0.000141966
-0.000184383
0.000145767
0.000149209
-0.000198651
-6.8026e-06
7.59281e-05
-1.73723e-05
0.000105891
-2.87029e-05
0.000110604
-4.0417e-05
0.000114929
-5.24807e-05
0.000119627
-6.48166e-05
0.000124381
-7.73483e-05
0.000129132
-8.9988e-05
0.00013373
-0.000102655
0.000138159
-0.000115268
0.000142358
-0.000127764
0.000146397
-0.000140115
0.000150316
-0.000152352
0.000154202
-0.000164532
0.000157947
0.000161308
-0.000176632
-5.62468e-06
8.15528e-05
-1.5065e-05
0.000115331
-2.53979e-05
0.000120937
-3.60775e-05
0.000125608
-4.70402e-05
0.00013059
-5.81923e-05
0.000135533
-6.9441e-05
0.000140381
-8.06869e-05
0.000144976
-9.18444e-05
0.000149316
-0.000102836
0.00015335
-0.000113605
0.000157165
-0.000124124
0.000160835
-0.000134431
0.000164509
-0.000144613
0.000168129
0.000171381
-0.000154685
-4.3312e-06
8.5884e-05
-1.25462e-05
0.000123546
-2.18291e-05
0.00013022
-3.14282e-05
0.000135208
-4.12523e-05
0.000140414
-5.11965e-05
0.000145477
-6.11537e-05
0.000150338
-7.10155e-05
0.000154838
-8.06938e-05
0.000158994
-9.01171e-05
0.000162774
-9.92359e-05
0.000166284
-0.000108023
0.000169623
-0.000116507
0.000172993
-0.000124784
0.000176406
0.000179502
-0.000132905
-2.92702e-06
8.8811e-05
-9.84127e-06
0.00013046
-1.80333e-05
0.000138412
-2.65196e-05
0.000143694
-3.51841e-05
0.000149079
-4.39139e-05
0.000154207
-5.25889e-05
0.000159013
-6.10935e-05
0.000163342
-6.93366e-05
0.000167237
-7.72515e-05
0.000170689
-8.47973e-05
0.00017383
-9.19441e-05
0.000176769
-9.86917e-05
0.00017974
-0.000105107
0.000182822
0.00018569
-0.000111295
-1.40216e-06
9.02132e-05
-6.9866e-06
0.000136045
-1.40465e-05
0.000145472
-2.13967e-05
0.000151044
-2.88957e-05
0.000156578
-3.64184e-05
0.000161729
-4.38325e-05
0.000166427
-5.10166e-05
0.000170526
-5.78758e-05
0.000174097
-6.43422e-05
0.000177155
-7.03798e-05
0.000179867
-7.5959e-05
0.000182349
-8.10383e-05
0.00018482
-8.56147e-05
0.000187398
0.000189923
-8.9848e-05
2.49474e-07
8.99637e-05
-4.02474e-06
0.000140319
-9.89322e-06
0.00015134
-1.61004e-05
0.000157251
-2.24411e-05
0.000162918
-2.87734e-05
0.000168062
-3.4955e-05
0.000172609
-4.08609e-05
0.000176432
-4.63894e-05
0.000179625
-5.14644e-05
0.00018223
-5.60452e-05
0.000184448
-6.01075e-05
0.000186411
-6.35865e-05
0.000188298
-6.63472e-05
0.000190159
0.00019211
-6.85338e-05
1.69762e-06
8.82661e-05
-1.00765e-06
0.000143024
-5.6041e-06
0.000155937
-1.06708e-05
0.000162318
-1.58687e-05
0.000168116
-2.10336e-05
0.000173227
-2.60152e-05
0.000177591
-3.06869e-05
0.000181104
-3.49357e-05
0.000183874
-3.86738e-05
0.000185968
-4.18406e-05
0.000187615
-4.44079e-05
0.000188978
-4.63375e-05
0.000190228
-4.73937e-05
0.000191215
0.000191903
-4.71867e-05
3.27706e-06
8.4989e-05
2.18676e-06
0.000144115
-1.23315e-06
0.000159357
-5.14904e-06
0.000166234
-9.2246e-06
0.000172192
-1.32468e-05
0.000177249
-1.70626e-05
0.000181406
-2.05442e-05
0.000184586
-2.35601e-05
0.00018689
-2.60111e-05
0.000188419
-2.78089e-05
0.000189413
-2.88867e-05
0.000190056
-2.92356e-05
0.000190577
-2.87369e-05
0.000190716
0.000189545
-2.63788e-05
4.89426e-06
8.00948e-05
5.45199e-06
0.000143557
3.30361e-06
0.000161505
4.00868e-07
0.000169137
-2.56214e-06
0.000175155
-5.46169e-06
0.000180148
-8.14679e-06
0.000184091
-1.04776e-05
0.000186917
-1.23022e-05
0.000188714
-1.35075e-05
0.000189624
-1.39825e-05
0.000189888
-1.3604e-05
0.000189677
-1.23036e-05
0.000189277
-1.00928e-05
0.000188505
0.000185818
-6.3661e-06
6.48635e-06
7.36084e-05
8.73137e-06
0.000141312
7.88644e-06
0.00016235
6.12732e-06
0.000170896
4.18137e-06
0.000177101
2.30566e-06
0.000182024
6.53403e-07
0.000185744
-5.63701e-07
0.000188134
-1.2258e-06
0.000189377
-1.20857e-06
0.000189607
-3.84262e-07
0.000189064
1.3887e-06
0.000187905
4.21009e-06
0.000186455
8.22348e-06
0.000184492
0.000180452
1.35899e-05
7.98862e-06
6.56198e-05
1.19674e-05
0.000137333
1.24588e-05
0.000161858
1.17935e-05
0.000171561
1.09106e-05
0.000177984
1.0092e-05
0.000182843
9.52429e-06
0.000186311
9.35963e-06
0.000188298
9.7798e-06
0.000188956
1.09381e-05
0.000188449
1.29699e-05
0.000187032
1.61109e-05
0.000184764
2.05282e-05
0.000182038
2.59136e-05
0.000179107
0.000173118
3.3247e-05
9.3127e-06
5.63071e-05
1.50677e-05
0.000131578
1.69736e-05
0.000159953
1.74155e-05
0.000171119
1.75525e-05
0.000177847
1.77459e-05
0.000182649
1.81923e-05
0.000185865
1.90638e-05
0.000187427
2.05488e-05
0.000187471
2.28356e-05
0.000186162
2.60568e-05
0.000183811
3.04642e-05
0.000180356
3.64642e-05
0.000176038
4.33527e-05
0.000172218
0.000164131
5.23401e-05
1.03286e-05
4.59786e-05
1.79135e-05
0.000123993
2.13581e-05
0.000156508
2.29487e-05
0.000169528
2.40815e-05
0.000176714
2.52512e-05
0.000181479
2.66819e-05
0.000184434
2.8556e-05
0.000185553
3.1068e-05
0.000184959
3.44611e-05
0.000182769
3.88714e-05
0.0001794
4.44304e-05
0.000174797
5.20147e-05
0.000168453
6.04751e-05
0.000163758
0.00015368
7.09263e-05
1.08515e-05
3.51271e-05
2.03609e-05
0.000114484
2.55148e-05
0.000151354
2.8324e-05
0.000166719
3.04519e-05
0.000174586
3.25723e-05
0.000179359
3.49586e-05
0.000182048
3.78066e-05
0.000182705
4.13083e-05
0.000181458
4.57678e-05
0.00017831
5.14021e-05
0.000173766
5.8004e-05
0.000168195
6.71015e-05
0.000159356
7.7183e-05
0.000153676
0.000141703
8.91591e-05
1.06714e-05
2.44556e-05
2.226e-05
0.000102895
2.93114e-05
0.000144303
3.34483e-05
0.000162582
3.66034e-05
0.000171431
3.96623e-05
0.0001763
4.29756e-05
0.000178735
4.67742e-05
0.000178906
5.12377e-05
0.000176994
5.66676e-05
0.00017288
6.36047e-05
0.000166829
7.11748e-05
0.000160625
8.16673e-05
0.000148864
9.34577e-05
0.000141886
0.000127944
0.000107217
9.68653e-06
1.47691e-05
2.3471e-05
8.91108e-05
3.25711e-05
0.000135202
3.81987e-05
0.000156955
4.24621e-05
0.000167168
4.64655e-05
0.000172297
5.06709e-05
0.000174529
5.53907e-05
0.000174186
6.08324e-05
0.000171552
6.70994e-05
0.000166613
7.54269e-05
0.000158501
8.3991e-05
0.000152061
9.55467e-05
0.000137308
0.000108936
0.000128496
0.000111681
0.000125199
8.05687e-06
6.71222e-06
2.38201e-05
7.33476e-05
3.50738e-05
0.000123949
4.24279e-05
0.000149601
4.79315e-05
0.000161664
5.2907e-05
0.000167321
5.79816e-05
0.000169455
6.35627e-05
0.000168605
7.00415e-05
0.000165074
7.70085e-05
0.000159646
8.67049e-05
0.000148805
9.65656e-05
0.0001422
0.000109137
0.000124736
0.000123152
0.000114481
9.24598e-05
0.000142373
6.1203e-06
5.91917e-07
2.30638e-05
5.64041e-05
3.65808e-05
0.000110432
4.59549e-05
0.000140227
5.28825e-05
0.000154736
5.88859e-05
0.000161318
6.48279e-05
0.000163513
7.11523e-05
0.000162281
7.87777e-05
0.000157448
8.63879e-05
0.000152035
9.71667e-05
0.000138026
0.000108483
0.000130884
0.000122974
0.000110245
0.000136963
0.000100492
7.10211e-05
0.000158402
4.15888e-06
-3.56697e-06
2.09776e-05
3.95853e-05
3.68603e-05
9.45491e-05
4.85561e-05
0.000128531
5.71252e-05
0.000146167
6.42531e-05
0.00015419
7.11398e-05
0.000156626
7.80563e-05
0.000155364
8.68264e-05
0.000148678
9.52604e-05
0.000143601
0.000106807
0.00012648
0.000119066
0.000118625
0.000136255
9.30566e-05
0.000150888
8.58587e-05
4.79252e-05
0.000173984
2.33619e-06
-5.90316e-06
1.76057e-05
2.43159e-05
3.57145e-05
7.64402e-05
4.99127e-05
0.000114333
6.04058e-05
0.000135674
6.87912e-05
0.000145804
7.67584e-05
0.000148659
8.42185e-05
0.000147904
9.39255e-05
0.000138971
0.000103443
0.000134083
0.000115876
0.000114047
0.000128358
0.000106143
0.000147816
7.35985e-05
0.000163874
6.98009e-05
2.32157e-05
0.000188583
9.2095e-07
-6.82411e-06
1.34262e-05
1.18106e-05
3.29972e-05
5.68691e-05
4.96358e-05
9.76941e-05
6.23705e-05
0.00012294
7.22123e-05
0.000135963
8.14459e-05
0.000139425
8.95303e-05
0.00013982
9.97735e-05
0.000128728
0.000110459
0.000123398
0.000124179
0.000100327
0.00013701
9.33113e-05
0.000157374
5.32352e-05
0.000175234
5.19402e-05
-2.78579e-06
0.000201236
1.13485e-07
-6.93759e-06
9.2794e-06
2.64471e-06
2.85101e-05
3.76385e-05
4.72973e-05
7.89068e-05
6.26064e-05
0.00010763
7.4123e-05
0.000124446
8.47729e-05
0.000128775
9.39356e-05
0.000130657
0.000104281
0.000118382
0.00011572
0.000111959
0.000130476
8.55716e-05
0.000145207
7.85798e-05
0.000164157
3.42853e-05
0.000184677
3.14202e-05
-2.99231e-05
0.000211814
-2.4146e-07
-6.69613e-06
5.80074e-06
-3.39749e-06
2.25122e-05
2.09271e-05
4.26078e-05
5.88111e-05
6.05591e-05
8.96792e-05
7.41458e-05
0.000110859
8.61098e-05
0.000116811
9.67863e-05
0.000119981
0.000107497
0.000107672
0.000119863
9.95938e-05
0.000132924
7.251e-05
0.000151661
5.98438e-05
0.000166946
1.9e-05
0.000192376
5.99017e-06
-5.39484e-05
0.000216401
-2.74745e-07
-6.42139e-06
3.41113e-06
-7.08337e-06
1.62083e-05
8.12991e-06
3.57506e-05
3.92688e-05
5.56976e-05
6.97322e-05
7.16269e-05
9.49301e-05
8.50291e-05
0.000103409
9.72695e-05
0.00010774
0.000107967
9.69744e-05
0.000122883
8.46778e-05
0.000133285
6.21077e-05
0.000155105
3.80234e-05
0.00016835
5.75543e-06
0.000194633
-2.02927e-05
-7.29966e-05
0.000213681
-8.90697e-08
-6.33232e-06
2.29552e-06
-9.46795e-06
1.10402e-05
-6.1482e-07
2.77384e-05
2.25707e-05
4.79234e-05
4.95472e-05
6.59694e-05
7.68842e-05
8.0455e-05
8.89233e-05
9.52888e-05
9.29066e-05
0.000105146
8.71176e-05
0.000122925
6.68984e-05
0.000131151
5.38816e-05
0.000156314
1.28604e-05
0.000164345
-2.27575e-06
0.000195132
-5.10791e-05
-8.79361e-05
0.000210071
2.26289e-07
-6.55861e-06
2.09784e-06
-1.13395e-05
7.74497e-06
-6.26195e-06
2.02831e-05
1.00325e-05
3.81283e-05
3.1702e-05
5.7039e-05
5.79735e-05
7.22283e-05
7.3734e-05
8.85894e-05
7.65455e-05
9.97928e-05
7.59142e-05
0.000117042
4.96487e-05
0.000128036
4.28884e-05
0.000152461
-1.15646e-05
0.000159401
-9.21647e-06
0.000195526
-8.72042e-05
-8.37146e-05
0.000191305
5.67371e-07
-7.12598e-06
2.26864e-06
-1.30408e-05
6.03777e-06
-1.00311e-05
1.45481e-05
1.52214e-06
2.81484e-05
1.81017e-05
4.5448e-05
4.06739e-05
6.09398e-05
5.82421e-05
7.65266e-05
6.09587e-05
8.99925e-05
6.24484e-05
0.000104999
3.46417e-05
0.000119212
2.86761e-05
0.000135902
-2.82545e-05
0.000149084
-2.23986e-05
0.000174798
-0.000112919
-8.25517e-05
0.000173635
7.95028e-07
-7.92101e-06
2.30168e-06
-1.45474e-05
4.90536e-06
-1.26347e-05
1.02577e-05
-3.83022e-06
1.9322e-05
9.03741e-06
3.26785e-05
2.73175e-05
4.6948e-05
4.39726e-05
6.05519e-05
4.73548e-05
7.38492e-05
4.91511e-05
8.73209e-05
2.117e-05
0.000102374
1.36228e-05
0.000111771
-3.76513e-05
0.000130992
-4.16195e-05
0.000142847
-0.000124774
-0.000124277
0.000184572
7.75434e-07
-8.69644e-06
1.79909e-06
-1.55711e-05
3.32789e-06
-1.41636e-05
6.31804e-06
-6.82036e-06
1.14992e-05
3.85629e-06
2.01631e-05
1.86535e-05
3.12928e-05
3.28429e-05
4.20578e-05
3.65899e-05
5.36407e-05
3.75681e-05
6.46538e-05
1.01569e-05
7.98859e-05
-1.60932e-06
9.05079e-05
-4.82733e-05
0.000122164
-7.3276e-05
0.000155939
-0.000158548
-0.000195556
0.000227218
4.36879e-07
-9.13332e-06
5.8305e-07
-1.57173e-05
7.86922e-07
-1.43674e-05
1.70775e-06
-7.74119e-06
3.70103e-06
1.863e-06
8.1637e-06
1.41909e-05
1.4978e-05
2.60285e-05
2.25588e-05
2.90091e-05
3.16169e-05
2.851e-05
4.0429e-05
1.34483e-06
5.99757e-05
-2.1156e-05
8.72061e-05
-7.55038e-05
0.000140173
-0.000126243
0.000193272
-0.000211647
-0.000257353
0.000255069
-2.09321e-07
-8.924e-06
-1.26018e-06
-1.46664e-05
-2.61717e-06
-1.30104e-05
-3.77439e-06
-6.58397e-06
-4.57657e-06
2.66519e-06
-3.97039e-06
1.35847e-05
-1.66646e-06
2.37246e-05
2.90613e-06
2.44365e-05
1.07278e-05
2.06883e-05
2.55331e-05
-1.34604e-05
6.20709e-05
-5.76938e-05
0.000111707
-0.00012514
0.000173975
-0.000188511
0.000219946
-0.000257618
-0.000299985
0.000262578
-1.06837e-06
-7.85563e-06
-3.49887e-06
-1.22359e-05
-6.56307e-06
-9.94623e-06
-9.84035e-06
-3.30669e-06
-1.32218e-05
6.04659e-06
-1.63118e-05
1.66747e-05
-1.77682e-05
2.5181e-05
-1.41877e-05
2.0856e-05
2.12781e-06
4.3728e-06
3.57767e-05
-4.71093e-05
8.96743e-05
-0.000111591
0.000145402
-0.000180868
0.00019652
-0.000239629
0.000231525
-0.000292623
-0.000332299
0.000263839
-1.96949e-06
-5.88614e-06
-5.73612e-06
-8.46926e-06
-1.03874e-05
-5.29499e-06
-1.55419e-05
1.84785e-06
-2.09709e-05
1.14756e-05
-2.60079e-05
2.17117e-05
-2.78178e-05
2.6991e-05
-1.80832e-05
1.11214e-05
1.46108e-05
-2.83212e-05
6.53239e-05
-9.78223e-05
0.000121074
-0.000167342
0.000168147
-0.00022794
0.000206712
-0.000278194
0.000235573
-0.000321484
-0.000356693
0.000259968
-2.69861e-06
-3.18753e-06
-7.45687e-06
-3.71099e-06
-1.31765e-05
4.2459e-07
-1.92862e-05
7.95755e-06
-2.52045e-05
1.73939e-05
-2.90271e-05
2.55343e-05
-2.60865e-05
2.40504e-05
-3.30963e-06
-1.16555e-05
4.25497e-05
-7.41806e-05
9.5322e-05
-0.000150595
0.00014248
-0.0002145
0.000180544
-0.000266004
0.00021107
-0.000308719
0.000234232
-0.000344646
-0.000376568
0.000254106
-3.07378e-06
-1.13748e-07
-8.25412e-06
1.46935e-06
-1.41477e-05
6.31818e-06
-1.9965e-05
1.37749e-05
-2.44585e-05
2.18874e-05
-2.45859e-05
2.56616e-05
-1.30554e-05
1.25199e-05
2.20969e-05
-4.68078e-05
7.17357e-05
-0.000123819
0.000117629
-0.000196488
0.00015619
-0.000253061
0.000187091
-0.000296905
0.000211114
-0.000332743
0.000230254
-0.000363786
-0.000393349
0.000247035
-3.02415e-06
2.91041e-06
-7.98745e-06
6.43264e-06
-1.32631e-05
1.15938e-05
-1.76749e-05
1.81866e-05
-1.95053e-05
2.37178e-05
-1.54676e-05
2.1624e-05
6.39007e-06
-9.33783e-06
4.87756e-05
-8.91933e-05
9.42473e-05
-0.000169291
0.000133267
-0.000235508
0.000164488
-0.000284281
0.000189037
-0.000321454
0.000208492
-0.000352197
0.000224463
-0.000379758
-0.000407882
0.000238996
-2.61305e-06
5.52346e-06
-6.86792e-06
1.06875e-05
-1.09724e-05
1.56983e-05
-1.34579e-05
2.06721e-05
-1.23537e-05
2.26137e-05
-3.34346e-06
1.26137e-05
2.76448e-05
-4.03261e-05
7.12079e-05
-0.000132756
0.000111141
-0.000209224
0.000143505
-0.000267872
0.000168427
-0.000309204
0.000188141
-0.000341168
0.000204057
-0.000368113
0.000217903
-0.000393603
-0.000421085
0.000231106
-1.97824e-06
7.5017e-06
-5.24658e-06
1.39558e-05
-7.96752e-06
1.84192e-05
-8.51203e-06
2.12166e-05
-5.42057e-06
1.95222e-05
1.07755e-05
-3.58233e-06
4.92333e-05
-7.87839e-05
8.89897e-05
-0.000172513
0.000123044
-0.000243278
0.000149345
-0.000294174
0.000169271
-0.000329129
0.000185199
-0.000357096
0.000198644
-0.000381559
0.000210919
-0.000405878
-0.00043282
0.000222653
-1.27519e-06
8.77689e-06
-3.48366e-06
1.61643e-05
-4.89231e-06
1.98279e-05
-3.70666e-06
2.0031e-05
1.3727e-06
1.44428e-05
2.55934e-05
-2.7803e-05
6.71902e-05
-0.000120381
0.000102695
-0.000208018
0.000130777
-0.00027136
0.000151824
-0.00031522
0.000167804
-0.000345109
0.000181036
-0.000370328
0.00019257
-0.000393092
0.000203569
-0.000416877
-0.000443713
0.000214462
-6.35893e-07
9.41278e-06
-1.86435e-06
1.73928e-05
-2.08444e-06
2.0048e-05
-2.15163e-07
1.81617e-05
9.52863e-06
4.69906e-06
4.19361e-05
-6.02104e-05
8.10503e-05
-0.000159495
0.000112164
-0.000239131
0.000135066
-0.000294263
0.000151808
-0.000331962
0.000164819
-0.00035812
0.000175969
-0.000381478
0.000186128
-0.000403251
0.000196241
-0.000426991
-0.000453565
0.000206093
-1.52417e-07
9.5652e-06
-5.89774e-07
1.78301e-05
1.78488e-07
1.92797e-05
2.50476e-06
1.58354e-05
1.87934e-05
-1.15896e-05
5.72358e-05
-9.86528e-05
9.20217e-05
-0.000194281
0.000118181
-0.000265291
0.00013666
-0.000312741
0.000150014
-0.000345317
0.000160734
-0.00036884
0.0001704
-0.000391143
0.000179499
-0.000412351
0.000188691
-0.000436182
-0.000462629
0.000197755
1.3165e-07
9.43355e-06
3.09367e-07
1.76524e-05
1.55126e-06
1.80378e-05
5.50713e-06
1.18796e-05
3.00656e-05
-3.61481e-05
6.89101e-05
-0.000137497
9.96525e-05
-0.000225023
0.000121227
-0.000286866
0.000136089
-0.000327603
0.000146901
-0.000356129
0.000155988
-0.000377926
0.000164459
-0.000399614
0.000172675
-0.000420567
0.000181203
-0.000444711
-0.000470935
0.000189509
2.07386e-07
9.22616e-06
7.7709e-07
1.70827e-05
1.90135e-06
1.69136e-05
1.05199e-05
3.26103e-06
4.27891e-05
-6.84173e-05
7.79821e-05
-0.00017269
0.000104371
-0.000251412
0.000122039
-0.000304534
0.000134015
-0.000339579
0.000142927
-0.000365041
0.00015074
-0.000385739
0.000158292
-0.000407166
0.000165823
-0.000428097
0.000173615
-0.000452503
-0.000478462
0.000181142
1.13709e-07
9.11245e-06
8.39913e-07
1.63565e-05
1.75709e-06
1.59964e-05
1.68469e-05
-1.18288e-05
5.40489e-05
-0.000105619
8.47831e-05
-0.000203424
0.00010665
-0.000273279
0.000121012
-0.000318896
0.000130772
-0.00034934
0.00013828
-0.000372549
0.000145187
-0.000392645
0.000151983
-0.000413963
0.000158845
-0.00043496
0.000166022
-0.00045968
-0.000485394
0.000172955
1.82887e-08
9.09416e-06
6.91202e-07
1.56836e-05
2.83026e-06
1.38573e-05
2.55844e-05
-3.45829e-05
6.19759e-05
-0.000142011
8.91321e-05
-0.000230581
0.000107116
-0.000291263
0.000118727
-0.000330507
0.000126776
-0.000357389
0.000133252
-0.000379024
0.000139407
-0.0003988
0.000145547
-0.000420103
0.000151869
-0.000441281
0.000158415
-0.000466227
-0.000491617
0.000164638
-8.61491e-08
9.18031e-06
-1.03916e-08
1.56078e-05
6.3364e-06
7.51053e-06
3.58008e-05
-6.40474e-05
6.78999e-05
-0.00017411
9.12401e-05
-0.000253921
0.000106055
-0.000306078
0.000115478
-0.00033993
0.000122219
-0.000364131
0.000127895
-0.0003847
0.000133465
-0.00040437
0.000139058
-0.000425696
0.000144821
-0.000447043
0.000150755
-0.000472161
-0.000497321
0.000156458
-2.53834e-07
9.43415e-06
-5.73742e-07
1.59277e-05
1.09644e-05
-4.02763e-06
4.47468e-05
-9.78297e-05
7.23076e-05
-0.000201671
9.163e-05
-0.000273243
0.000103802
-0.00031825
0.000111575
-0.000347703
0.000117325
-0.00036988
0.000122382
-0.000389758
0.00012743
-0.000409418
0.000132496
-0.000430763
0.000137769
-0.000452316
0.00014314
-0.000477532
-0.000502407
0.000148227
-3.28429e-07
9.76257e-06
-3.50107e-07
1.59494e-05
1.66523e-05
-2.103e-05
5.05529e-05
-0.00013173
7.50417e-05
-0.000226159
9.08836e-05
-0.000289085
0.000100741
-0.000328107
0.000107188
-0.00035415
0.000112176
-0.000374867
0.000116713
-0.000394294
0.0001213
-0.000414005
0.000125913
-0.000435376
0.000130694
-0.000457097
0.000135478
-0.000482316
-0.00050699
0.000140061
-2.92566e-07
1.00551e-05
1.41831e-06
1.42385e-05
2.41075e-05
-4.37192e-05
5.42831e-05
-0.000161906
7.59599e-05
-0.000247836
8.91336e-05
-0.000302259
9.71066e-05
-0.00033608
0.000102502
-0.000359546
0.00010688
-0.000379245
0.000110981
-0.000398395
0.00011514
-0.000418164
0.000119292
-0.000439528
0.000123603
-0.000461408
0.000127873
-0.000486586
-0.000511049
0.000131932
-3.42158e-07
1.03973e-05
4.35858e-06
9.53781e-06
3.12691e-05
-7.06297e-05
5.72412e-05
-0.000187878
7.54978e-05
-0.000266093
8.64768e-05
-0.000313238
9.30498e-05
-0.000342653
9.76178e-05
-0.000364114
0.000101485
-0.000383113
0.00010518
-0.00040209
0.000108925
-0.000421909
0.000112661
-0.000443264
0.000116512
-0.000465259
0.000120244
-0.000490318
-0.000514628
0.000123823
-4.04107e-07
1.08014e-05
7.62031e-06
1.51339e-06
3.67178e-05
-9.97273e-05
5.91345e-05
-0.000210295
7.41612e-05
-0.000281119
8.31786e-05
-0.000322255
8.86653e-05
-0.00034814
9.26078e-05
-0.000368057
9.60416e-05
-0.000386546
9.93615e-05
-0.00040541
0.000102713
-0.000425261
0.00010602
-0.000446571
0.00010941
-0.000468649
0.000112662
-0.00049357
-0.000517767
0.000115801
-3.9952e-07
1.12009e-05
1.10699e-05
-9.95606e-06
3.99634e-05
-0.000128621
5.99678e-05
-0.000230299
7.22257e-05
-0.000293377
7.94988e-05
-0.000329528
8.40808e-05
-0.000352722
8.75131e-05
-0.000371489
9.05662e-05
-0.000389599
9.35221e-05
-0.000408366
9.64778e-05
-0.000428216
9.93803e-05
-0.000449473
0.00010233
-0.000471598
0.000105094
-0.000496335
-0.000520459
0.000107786
-4.84865e-07
1.16858e-05
1.52769e-05
-2.57178e-05
4.13596e-05
-0.000154703
5.94872e-05
-0.000248427
6.97679e-05
-0.000303658
7.56029e-05
-0.000335363
7.93962e-05
-0.000356515
8.2381e-05
-0.000374474
8.50821e-05
-0.000392301
8.76866e-05
-0.000410971
9.02618e-05
-0.000430792
9.27546e-05
-0.000451966
9.52542e-05
-0.000474098
9.75693e-05
-0.00049865
-0.000522759
9.98694e-05
-1.03211e-07
1.1789e-05
1.91295e-05
-4.49506e-05
4.23496e-05
-0.000177923
5.80466e-05
-0.000264124
6.67718e-05
-0.000312383
7.15456e-05
-0.000340137
7.46849e-05
-0.000359655
7.72486e-05
-0.000377037
7.96025e-05
-0.000394654
8.18568e-05
-0.000413225
8.40468e-05
-0.000432981
8.61395e-05
-0.000454059
8.82122e-05
-0.000476171
9.00818e-05
-0.000500519
-0.000524623
9.19459e-05
5.52285e-07
1.12367e-05
2.23675e-05
-6.67658e-05
4.27409e-05
-0.000198297
5.60652e-05
-0.000277448
6.33757e-05
-0.000319694
6.73466e-05
-0.000344108
6.99679e-05
-0.000362276
7.2142e-05
-0.000379211
7.41476e-05
-0.00039666
7.60482e-05
-0.000415126
7.78617e-05
-0.000434795
7.95554e-05
-0.000455753
8.11926e-05
-0.000477808
8.26339e-05
-0.000501961
-0.000526091
8.41013e-05
1.59556e-06
9.64116e-06
2.4756e-05
-8.99263e-05
4.26166e-05
-0.000216157
5.3737e-05
-0.000288569
5.97454e-05
-0.000325702
6.30512e-05
-0.000347414
6.5254e-05
-0.000364479
6.70703e-05
-0.000381028
6.87255e-05
-0.000398315
7.02672e-05
-0.000416667
7.16979e-05
-0.000436226
7.29941e-05
-0.000457049
7.42122e-05
-0.000479026
7.52278e-05
-0.000502976
-0.000527111
7.62478e-05
3.14657e-06
6.49459e-06
2.62263e-05
-0.000113006
4.20712e-05
-0.000232002
5.12066e-05
-0.000297704
5.60252e-05
-0.000330521
5.87222e-05
-0.000350111
6.055e-05
-0.000366307
6.20335e-05
-0.000382511
6.33447e-05
-0.000399626
6.45241e-05
-0.000417847
6.55752e-05
-0.000437277
6.64764e-05
-0.00045795
6.72673e-05
-0.000479817
6.78476e-05
-0.000503556
-0.000527678
6.84146e-05
5.12792e-06
1.36667e-06
2.68381e-05
-0.000134716
4.10843e-05
-0.000246248
4.85344e-05
-0.000305154
5.22864e-05
-0.000334273
5.44084e-05
-0.000352233
5.58751e-05
-0.000367773
5.70348e-05
-0.000383671
5.80053e-05
-0.000400597
5.88229e-05
-0.000418664
5.94905e-05
-0.000437944
5.9994e-05
-0.000458454
6.03666e-05
-0.000480189
6.05149e-05
-0.000503705
-0.000527768
6.06053e-05
7.32293e-06
-5.95626e-06
2.67052e-05
-0.000154098
3.95345e-05
-0.000259078
4.57194e-05
-0.000311339
4.85664e-05
-0.00033712
5.01467e-05
-0.000353813
5.1245e-05
-0.000368872
5.20789e-05
-0.000384505
5.27127e-05
-0.000401231
5.31697e-05
-0.000419121
5.34561e-05
-0.000438231
5.35634e-05
-0.000458561
5.35126e-05
-0.000480138
5.32241e-05
-0.000503416
-0.000527393
5.28486e-05
9.56908e-06
-1.55253e-05
2.6668e-05
-0.000171197
3.76245e-05
-0.000270034
4.27171e-05
-0.000316431
4.48513e-05
-0.000339254
4.59463e-05
-0.000354908
4.66754e-05
-0.000369601
4.71758e-05
-0.000385005
4.747e-05
-0.000401525
4.75681e-05
-0.00041922
4.74723e-05
-0.000438135
4.71783e-05
-0.000458267
4.67078e-05
-0.000479668
4.59958e-05
-0.000502704
-0.000526541
4.51441e-05
1.11757e-05
-2.6701e-05
2.63532e-05
-0.000186375
3.55043e-05
-0.000279185
3.95562e-05
-0.000320483
4.1116e-05
-0.000340814
4.18011e-05
-0.000355593
4.21722e-05
-0.000369972
4.23328e-05
-0.000385166
4.22853e-05
-0.000401477
4.2025e-05
-0.000418959
4.15491e-05
-0.000437659
4.08539e-05
-0.000457572
3.99578e-05
-0.000478772
3.88207e-05
-0.000501567
-0.000525221
3.75008e-05
1.21436e-05
-3.88447e-05
2.56406e-05
-0.000199872
3.32098e-05
-0.000286754
3.63159e-05
-0.00032359
3.73767e-05
-0.000341875
3.77043e-05
-0.000355921
3.77372e-05
-0.000370005
3.75578e-05
-0.000384987
3.71641e-05
-0.000401084
3.65451e-05
-0.00041834
3.56912e-05
-0.000436805
3.45937e-05
-0.000456474
3.32687e-05
-0.000477447
3.17054e-05
-0.000500004
-0.000523442
2.99262e-05
1.25263e-05
-5.1371e-05
2.45811e-05
-0.000211927
3.0785e-05
-0.000292958
3.30557e-05
-0.00032586
3.36633e-05
-0.000342482
3.36607e-05
-0.000355918
3.33694e-05
-0.000369713
3.28532e-05
-0.00038447
3.21131e-05
-0.000400343
3.11354e-05
-0.000417363
2.99072e-05
-0.000435577
2.84172e-05
-0.000454984
2.66653e-05
-0.000475695
2.46376e-05
-0.000497976
-0.000521218
2.24142e-05
1.24571e-05
-6.38281e-05
2.32199e-05
-0.00022269
2.82579e-05
-0.000297996
2.98104e-05
-0.000327413
2.99994e-05
-0.000342671
2.96778e-05
-0.000355597
2.90712e-05
-0.000369107
2.82231e-05
-0.000383622
2.71364e-05
-0.000399257
2.57998e-05
-0.000416026
2.41999e-05
-0.000433977
2.23268e-05
-0.000453111
2.01717e-05
-0.00047354
1.76408e-05
-0.000495445
-0.000518541
1.49638e-05
1.2079e-05
-7.59071e-05
2.16423e-05
-0.000232253
2.56698e-05
-0.000302024
2.66009e-05
-0.000328344
2.6402e-05
-0.000342472
2.57659e-05
-0.000354961
2.4846e-05
-0.000368187
2.36691e-05
-0.000382445
2.22387e-05
-0.000397826
2.05444e-05
-0.000414332
1.85737e-05
-0.000432006
1.63217e-05
-0.000450859
1.37936e-05
-0.000471012
1.07828e-05
-0.000492434
-0.000515295
7.53661e-06
1.14884e-05
-8.73955e-05
1.99107e-05
-0.000240675
2.30516e-05
-0.000305165
2.34435e-05
-0.000328736
2.28826e-05
-0.000341912
2.1933e-05
-0.000354011
2.06993e-05
-0.000366953
1.91955e-05
-0.000380941
1.74232e-05
-0.000396054
1.53725e-05
-0.000412281
1.30321e-05
-0.000429666
1.03981e-05
-0.000448225
7.48304e-06
-0.000468097
4.19767e-06
-0.000489149
-0.000510962
-1.35669e-07
1.07485e-05
-9.8144e-05
1.80851e-05
-0.000248012
2.04406e-05
-0.00030752
2.03538e-05
-0.000328649
1.94497e-05
-0.000341008
1.8186e-05
-0.000352747
1.66358e-05
-0.000365403
1.48046e-05
-0.00037911
1.26919e-05
-0.000393941
1.02883e-05
-0.000409877
7.58013e-06
-0.000426958
4.56719e-06
-0.000445212
1.13774e-06
-0.000464667
-2.2544e-06
-0.000485757
-0.0005065
-6.71597e-06
9.85871e-06
-0.000108003
1.62098e-05
-0.000254363
1.78672e-05
-0.000309178
1.73463e-05
-0.000328128
1.61093e-05
-0.000339771
1.45294e-05
-0.000351167
1.26597e-05
-0.000363533
1.04992e-05
-0.00037695
8.04459e-06
-0.000391487
5.29031e-06
-0.000407123
2.21598e-06
-0.000423883
-1.1897e-06
-0.000441806
-4.81028e-06
-0.000461047
-8.94601e-06
-0.000481621
-0.000501993
-1.3453e-05
8.91995e-06
-0.000116923
1.43337e-05
-0.000259777
1.53555e-05
-0.000310199
1.44311e-05
-0.000327203
1.28644e-05
-0.000338204
1.09659e-05
-0.000349269
8.77255e-06
-0.00036134
6.27761e-06
-0.000374455
3.4767e-06
-0.000388686
3.58038e-07
-0.000404004
-3.03229e-06
-0.000420493
-6.72755e-06
-0.000438111
-1.07184e-05
-0.000457056
-1.53604e-05
-0.000476979
-0.00049722
-2.01339e-05
8.03957e-06
-0.000124962
1.24971e-05
-0.000264234
1.29166e-05
-0.000310619
1.16063e-05
-0.000325893
9.71542e-06
-0.000336313
7.49601e-06
-0.000347049
4.97215e-06
-0.000358816
2.13074e-06
-0.000371614
-1.00543e-06
-0.00038555
-4.41367e-06
-0.000400596
-8.15889e-06
-0.000416748
-1.21975e-05
-0.000434073
-1.65973e-05
-0.000452656
-2.16018e-05
-0.000471975
-0.000492097
-2.67242e-05
7.17683e-06
-0.000132139
1.07213e-05
-0.000267778
1.05622e-05
-0.00031046
8.87447e-06
-0.000324205
6.66183e-06
-0.0003341
4.1151e-06
-0.000344503
1.24113e-06
-0.000355942
-1.89996e-06
-0.000368472
-5.33348e-06
-0.000382116
-9.10241e-06
-0.000396827
-1.31857e-05
-0.000412664
-1.75859e-05
-0.000429672
-2.24049e-05
-0.000447837
-2.77067e-05
-0.000466673
-0.000486596
-3.32078e-05
6.33258e-06
-0.000138472
9.01579e-06
-0.000270462
8.29636e-06
-0.00030974
6.2394e-06
-0.000322148
3.69947e-06
-0.000331561
7.98799e-07
-0.000341602
-2.34793e-06
-0.000352795
-5.80328e-06
-0.000365017
-9.58473e-06
-0.000378335
-1.36919e-05
-0.00039272
-1.81147e-05
-0.000408242
-2.28825e-05
-0.000424905
-2.81057e-05
-0.000442614
-3.36968e-05
-0.000461082