/*--------------------------------*- C++ -*----------------------------------*\
  =========                 |
  \\      /  F ield         | OpenFOAM: The Open Source CFD Toolbox
   \\    /   O peration     | Website:  https://openfoam.org
    \\  /    A nd           | Version:  7
     \\/     M anipulation  |
\*---------------------------------------------------------------------------*/
FoamFile
{
    version     2.0;
    format      ascii;
    class       volVectorField;
    location    "22.0011";
    object      U;
}
// * * * * * * * * * * * * * * * * * * * * * * * * * * * * * * * * * * * * * //

dimensions      [0 1 -1 0 0 0 0];

internalField   nonuniform List<vector> 
18750
(
(-0.0377497 0.0237226 -9.01772e-21)
(-0.13298 0.0290295 3.03007e-21)
(-0.235474 0.0273037 3.21178e-20)
(-0.325285 0.0260062 7.34377e-21)
(-0.41434 0.0248452 -1.76176e-20)
(-0.497591 0.0238237 -4.27653e-20)
(-0.57865 0.0228634 4.42125e-20)
(-0.655378 0.0219529 2.93208e-20)
(-0.729592 0.0210645 -2.20953e-20)
(-0.80017 0.0202021 -5.95559e-20)
(-0.868268 0.0193492 2.28077e-19)
(-0.933003 0.0184852 -1.89009e-19)
(-0.99487 0.0175749 1.13096e-19)
(-1.05285 0.0166299 -2.23203e-19)
(-1.10713 0.0157264 5.19902e-20)
(-0.0393512 0.0708298 5.49405e-21)
(-0.134234 0.0866748 8.75031e-21)
(-0.235636 0.0813857 4.31548e-21)
(-0.324401 0.0773251 4.89929e-20)
(-0.412374 0.0736636 1.01166e-19)
(-0.494497 0.0704134 1.35234e-19)
(-0.574323 0.0673493 -1.15529e-19)
(-0.649684 0.0644432 1.89566e-19)
(-0.722352 0.0616166 1.77622e-19)
(-0.791183 0.0588847 -5.74483e-20)
(-0.85732 0.0562039 -2.41979e-19)
(-0.919877 0.0535213 1.17057e-20)
(-0.979298 0.0507402 5.47852e-20)
(-1.03448 0.0478909 1.45392e-19)
(-1.08553 0.0451762 -2.23664e-19)
(-0.0424944 0.11681 1.66807e-20)
(-0.136702 0.143358 2.50314e-20)
(-0.235951 0.134687 -7.94413e-20)
(-0.322651 0.127928 5.49524e-21)
(-0.408497 0.121814 -1.88225e-19)
(-0.488416 0.116354 6.19009e-20)
(-0.565847 0.111187 -1.75852e-19)
(-0.638575 0.106269 -2.03516e-20)
(-0.708289 0.101475 -1.36162e-19)
(-0.773817 0.0968339 4.11362e-19)
(-0.836287 0.0922822 5.48903e-19)
(-0.894815 0.0877542 4.86918e-19)
(-0.949786 0.0831089 2.87877e-19)
(-0.999956 0.0783822 1.95974e-19)
(-1.04531 0.0738469 -3.6619e-19)
(-0.0470626 0.160941 -8.71013e-20)
(-0.140308 0.198458 1.03386e-19)
(-0.236409 0.186705 -7.75129e-20)
(-0.320082 0.177362 -1.62801e-19)
(-0.402833 0.168882 2.81926e-19)
(-0.479571 0.161251 -2.62413e-19)
(-0.553576 0.153989 3.89136e-19)
(-0.622583 0.147046 -3.30864e-19)
(-0.688174 0.140254 2.3445e-19)
(-0.749155 0.133658 -5.76527e-19)
(-0.806648 0.12719 -8.32222e-19)
(-0.85981 0.120794 4.63367e-20)
(-0.908985 0.11431 -1.59802e-19)
(-0.952784 0.107767 -3.5063e-19)
(-0.991054 0.101435 1.34412e-18)
(-0.0528852 0.202535 -6.62015e-20)
(-0.144935 0.251371 1.50009e-19)
(-0.236986 0.236965 3.46274e-20)
(-0.316751 0.225211 1.29004e-19)
(-0.395546 0.214491 -1.71844e-19)
(-0.468255 0.204754 7.42777e-20)
(-0.537972 0.195426 9.23016e-19)
(-0.602387 0.186456 1.4415e-19)
(-0.662971 0.17765 2.57651e-19)
(-0.718518 0.169068 -9.14055e-20)
(-0.770171 0.160653 7.75023e-20)
(-0.817172 0.152387 -3.26612e-20)
(-0.859879 0.144117 -9.11253e-19)
(-0.896793 0.135854 -5.13392e-19)
(-0.927616 0.127807 -1.52326e-18)
(-0.0597726 0.240999 1.50146e-19)
(-0.150452 0.30152 4.92207e-20)
(-0.237642 0.285028 -7.2112e-20)
(-0.312714 0.271105 -5.30096e-20)
(-0.38682 0.258318 5.7834e-20)
(-0.454802 0.246573 -7.86545e-19)
(-0.51955 0.235233 -1.00301e-19)
(-0.578729 0.224263 5.00858e-20)
(-0.633704 0.213451 -3.79362e-19)
(-0.683281 0.202886 -5.24262e-19)
(-0.728636 0.19253 3.85192e-19)
(-0.769147 0.182426 -3.83672e-19)
(-0.805259 0.172455 1.19785e-18)
(-0.835417 0.162615 -9.42423e-19)
(-0.859166 0.153008 2.07821e-18)
(-0.0675066 0.275757 -1.34355e-19)
(-0.156671 0.348342 -2.29505e-19)
(-0.238289 0.330516 9.31912e-20)
(-0.308016 0.314734 7.0226e-19)
(-0.376843 0.300096 7.13704e-19)
(-0.439554 0.286478 -2.49635e-19)
(-0.498832 0.273217 1.28106e-19)
(-0.552344 0.260305 8.35229e-20)
(-0.601363 0.247534 8.20464e-19)
(-0.644723 0.235028 1.14043e-18)
(-0.683645 0.222783 -5.56221e-19)
(-0.717685 0.210913 -1.07786e-18)
(-0.747431 0.199362 -2.01635e-18)
(-0.771345 0.188128 3.50788e-19)
(-0.788792 0.177183 -2.54324e-18)
(-0.0758251 0.306218 -1.18669e-19)
(-0.163377 0.391376 -1.40313e-19)
(-0.23881 0.373129 -1.01886e-18)
(-0.302692 0.355848 3.63683e-19)
(-0.365792 0.339613 -4.27993e-19)
(-0.422836 0.324301 2.93255e-19)
(-0.476308 0.309246 3.1515e-19)
(-0.523905 0.294489 -1.37687e-18)
(-0.566825 0.279846 -9.2206e-19)
(-0.603946 0.265489 -1.56679e-18)
(-0.636534 0.251453 -2.60576e-19)
(-0.664333 0.237935 1.1453e-18)
(-0.688123 0.224955 4.51656e-18)
(-0.706443 0.212538 -6.96598e-19)
(-0.718444 0.200518 1.24679e-18)
(-0.0843942 0.331796 6.39518e-19)
(-0.1703 0.430208 2.58451e-19)
(-0.239074 0.412644 1.11906e-18)
(-0.296762 0.394261 -8.22584e-19)
(-0.353823 0.376717 3.91293e-19)
(-0.404941 0.359926 -6.55727e-19)
(-0.452414 0.343246 -1.51508e-18)
(-0.494 0.326778 1.35271e-18)
(-0.530831 0.310391 1.62947e-19)
(-0.561849 0.294313 2.34262e-18)
(-0.588342 0.278628 -7.67871e-19)
(-0.610232 0.263612 -3.49656e-18)
(-0.628499 0.249371 -2.1473e-18)
(-0.641818 0.235984 2.26237e-19)
(-0.649106 0.223157 -1.05542e-18)
(-0.0928273 0.35202 -5.31577e-19)
(-0.177136 0.464542 -3.02795e-19)
(-0.238946 0.448897 3.89662e-19)
(-0.290236 0.429841 6.04073e-20)
(-0.341067 0.411305 -1.53715e-19)
(-0.38612 0.393294 -1.7807e-19)
(-0.427524 0.375195 6.91371e-19)
(-0.463112 0.357187 -8.27312e-19)
(-0.493972 0.339212 8.17967e-19)
(-0.519111 0.321578 1.03044e-18)
(-0.539817 0.304419 -1.83616e-18)
(-0.556144 0.288081 3.49701e-18)
(-0.569252 0.272752 4.1156e-19)
(-0.578008 0.258589 5.67282e-19)
(-0.581096 0.245205 1.30711e-18)
(-0.100661 0.366403 9.99784e-19)
(-0.183506 0.494046 -3.28226e-19)
(-0.238264 0.481779 -1.46023e-18)
(-0.283106 0.462503 5.80474e-19)
(-0.327624 0.443325 -3.35966e-19)
(-0.366575 0.424383 3.94871e-19)
(-0.401936 0.4051 2.95221e-18)
(-0.431627 0.385751 1.4312e-18)
(-0.456695 0.366377 9.5439e-19)
(-0.476223 0.347374 -3.20777e-18)
(-0.491465 0.328936 3.5245e-18)
(-0.502549 0.311462 1.30033e-18)
(-0.510756 0.295206 -2.10396e-18)
(-0.515169 0.28042 2.55862e-18)
(-0.514318 0.266669 -8.95221e-20)
(-0.10741 0.374688 2.05103e-19)
(-0.189061 0.518667 5.11994e-20)
(-0.236888 0.511201 -9.97244e-20)
(-0.275359 0.492203 -1.03742e-18)
(-0.313559 0.472761 2.07542e-18)
(-0.346464 0.45321 -1.06223e-18)
(-0.375887 0.43301 -3.13209e-18)
(-0.399839 0.412546 9.69278e-19)
(-0.419324 0.391972 -1.54792e-18)
(-0.433511 0.371793 2.41149e-18)
(-0.443592 0.352277 -4.36739e-18)
(-0.449702 0.333859 3.44586e-19)
(-0.45315 0.316827 1.87877e-18)
(-0.453229 0.301514 -3.96072e-18)
(-0.448541 0.287521 -9.34572e-19)
(-0.112381 0.376295 -6.61797e-19)
(-0.19335 0.538136 1.90279e-19)
(-0.234652 0.53708 5.88121e-19)
(-0.266947 0.518929 -2.7961e-20)
(-0.298919 0.499646 -2.83111e-18)
(-0.325904 0.479821 2.72001e-19)
(-0.34955 0.458978 1.02004e-18)
(-0.367957 0.437639 -2.78261e-18)
(-0.382084 0.416079 2.10278e-18)
(-0.391176 0.39492 -1.94189e-18)
(-0.396357 0.374519 5.33891e-18)
(-0.397716 0.355343 -2.22977e-18)
(-0.396483 0.337665 2.73106e-18)
(-0.392104 0.321868 5.56636e-18)
(-0.383491 0.307664 2.4178e-18)
(-0.115031 0.371634 -2.62959e-19)
(-0.196062 0.552635 -6.01455e-21)
(-0.231495 0.559266 -2.23616e-20)
(-0.257822 0.542724 -6.72152e-20)
(-0.283714 0.524033 -1.38305e-18)
(-0.304979 0.504275 -6.17503e-19)
(-0.323053 0.483085 1.00121e-18)
(-0.336135 0.46113 6.11639e-19)
(-0.345124 0.438797 -3.55667e-18)
(-0.349337 0.416837 -2.00385e-19)
(-0.349817 0.395719 -1.04762e-18)
(-0.346605 0.375952 2.1472e-18)
(-0.340768 0.357773 -3.01701e-18)
(-0.3317 0.341514 -4.28007e-19)
(-0.318835 0.326923 -2.73508e-18)
(-0.114974 0.360888 1.17486e-18)
(-0.196741 0.561677 -1.04586e-18)
(-0.227239 0.577701 -1.42403e-18)
(-0.247879 0.563654 2.5435e-18)
(-0.267968 0.54601 2.24935e-18)
(-0.283748 0.52665 2.89364e-18)
(-0.296478 0.505401 1.25607e-19)
(-0.30446 0.483084 1.99743e-18)
(-0.308533 0.460191 2.69171e-18)
(-0.308053 0.437607 4.04362e-18)
(-0.303977 0.415914 -1.88219e-18)
(-0.296313 0.395697 3.981e-18)
(-0.285975 0.377162 -1.95561e-20)
(-0.272142 0.360459 -2.03453e-18)
(-0.254201 0.34522 -5.08998e-18)
(-0.111962 0.344013 -7.43915e-19)
(-0.195042 0.564953 1.15874e-18)
(-0.221739 0.59243 7.73085e-19)
(-0.237084 0.581838 -2.39899e-18)
(-0.251662 0.565654 -1.12202e-18)
(-0.262256 0.547015 -2.07121e-19)
(-0.269889 0.526022 -1.53335e-18)
(-0.273008 0.503607 -2.63969e-18)
(-0.272368 0.480359 -4.53066e-18)
(-0.267361 0.457304 -1.97856e-18)
(-0.258827 0.435146 2.79441e-18)
(-0.24674 0.414557 -5.86459e-18)
(-0.23203 0.395794 2.06231e-19)
(-0.213685 0.378788 3.7746e-18)
(-0.189225 0.362829 5.4625e-18)
(-0.105787 0.320955 -1.79171e-18)
(-0.19073 0.562319 1.39052e-18)
(-0.2148 0.603404 -2.40204e-18)
(-0.225455 0.597417 -1.15997e-18)
(-0.234851 0.583073 -6.54705e-20)
(-0.240537 0.565469 1.6089e-18)
(-0.243332 0.54502 2.61848e-18)
(-0.241806 0.522737 8.72766e-19)
(-0.236642 0.499325 1.27563e-18)
(-0.227259 0.475961 -3.61426e-18)
(-0.214364 0.453441 1.02505e-19)
(-0.197841 0.432531 -2.82122e-18)
(-0.178698 0.413585 -2.09528e-18)
(-0.156403 0.396375 -6.03988e-18)
(-0.12483 0.38013 -7.41926e-20)
(-0.0963686 0.291864 1.57657e-18)
(-0.183688 0.553642 2.5029e-19)
(-0.206318 0.610463 3.72375e-19)
(-0.212954 0.610356 2.87467e-18)
(-0.217583 0.598374 1.21864e-18)
(-0.218656 0.58213 -1.4995e-18)
(-0.216876 0.562505 1.18617e-18)
(-0.210918 0.54057 -6.93652e-19)
(-0.201389 0.517174 -1.39806e-18)
(-0.187747 0.493636 1.58727e-18)
(-0.170589 0.470852 -5.41054e-18)
(-0.149619 0.44964 -2.27233e-19)
(-0.125907 0.430478 -3.11084e-18)
(-0.100171 0.413191 4.82539e-18)
(-0.060959 0.397582 4.47585e-19)
(-0.0839022 0.257138 -6.03202e-19)
(-0.173925 0.538677 -1.6894e-18)
(-0.196296 0.613313 4.45442e-19)
(-0.199593 0.620578 -3.31474e-18)
(-0.19988 0.611579 -2.26737e-18)
(-0.196649 0.597027 -1.28367e-18)
(-0.190565 0.578486 -2.25833e-18)
(-0.180385 0.557119 2.19347e-18)
(-0.166643 0.533952 3.10902e-18)
(-0.148833 0.510387 6.10477e-18)
(-0.12752 0.487439 -2.81891e-19)
(-0.102147 0.465961 6.96385e-18)
(-0.0734555 0.446503 2.75392e-18)
(-0.0451556 0.429108 2.17653e-18)
(0.00301131 0.415207 -4.82379e-18)
(-0.0690559 0.217417 1.03766e-18)
(-0.161608 0.517005 2.57106e-18)
(-0.1848 0.611459 1.76291e-18)
(-0.18544 0.627905 2.31006e-18)
(-0.181794 0.622684 8.08645e-21)
(-0.174576 0.610166 9.15318e-19)
(-0.164439 0.592959 2.33032e-20)
(-0.150254 0.572423 -1.69424e-18)
(-0.132439 0.549684 2.66381e-18)
(-0.110512 0.526211 -9.33427e-18)
(-0.0851345 0.503208 2.74869e-18)
(-0.0555869 0.481527 -1.82308e-18)
(-0.0211429 0.461644 3.60068e-19)
(0.00834274 0.444051 -2.75647e-18)
(0.0675078 0.433335 -3.12614e-18)
(-0.0532519 0.173611 -1.69336e-18)
(-0.147084 0.487971 2.25334e-18)
(-0.171922 0.604142 -5.65927e-19)
(-0.170591 0.632005 -9.77932e-19)
(-0.163433 0.631606 2.05101e-18)
(-0.152512 0.621535 2.18335e-19)
(-0.138579 0.605924 -6.14562e-19)
(-0.120573 0.586439 -7.23788e-20)
(-0.0988454 0.564345 -1.71964e-18)
(-0.0728183 0.541108 4.47979e-18)
(-0.0433084 0.518113 2.76386e-18)
(-0.0102116 0.496489 1.47178e-18)
(0.0314048 0.476112 -1.39135e-19)
(0.0599359 0.457202 3.55128e-18)
(0.132766 0.4523 -3.22055e-19)
(-0.0387847 0.127315 4.95388e-19)
(-0.130866 0.450664 -5.39063e-19)
(-0.157723 0.590349 4.20998e-19)
(-0.155142 0.632325 1.81043e-18)
(-0.144916 0.638159 -1.15945e-18)
(-0.130597 0.63106 -7.58797e-19)
(-0.113074 0.617324 -1.43121e-18)
(-0.0914294 0.599145 1.1346e-18)
(-0.0659489 0.577871 -1.18759e-18)
(-0.0358847 0.555005 -1.37814e-18)
(-0.00181647 0.532023 -2.38612e-18)
(0.033623 0.510688 -1.39056e-18)
(0.0845018 0.490337 5.12082e-18)
(0.10927 0.46818 -7.06579e-18)
(0.199289 0.472342 -1.91083e-19)
(-0.0276574 0.0815744 2.11794e-18)
(-0.113531 0.40402 -8.22674e-19)
(-0.142219 0.568907 -2.13833e-18)
(-0.139168 0.628041 -5.73844e-19)
(-0.126407 0.641921 3.03666e-18)
(-0.108955 0.63859 -6.20209e-20)
(-0.0881037 0.627081 1.48758e-18)
(-0.0629304 0.610367 -8.18412e-19)
(-0.0338415 0.590137 -3.2151e-18)
(-4.89445e-05 0.567899 7.49187e-18)
(0.0397022 0.544803 -5.54358e-18)
(0.0755119 0.524013 1.65383e-18)
(0.138812 0.505016 -7.2923e-18)
(0.155299 0.474968 2.58056e-18)
(0.266625 0.492796 2.13087e-18)
(-0.0194908 0.0406849 -7.54774e-19)
(-0.0953798 0.347145 -2.42533e-18)
(-0.125367 0.53862 1.09629e-18)
(-0.122737 0.617977 1.93996e-19)
(-0.108031 0.64223 -2.72971e-18)
(-0.0877977 0.643797 1.69553e-18)
(-0.0638221 0.635015 8.87303e-20)
(-0.0353089 0.620053 -4.17376e-19)
(-0.0025185 0.600872 -3.28858e-18)
(0.0340886 0.579602 -3.81116e-19)
(0.0815477 0.556269 4.42382e-18)
(0.114778 0.535282 3.74666e-19)
(0.195337 0.522854 1.05748e-18)
(0.198924 0.478712 3.05144e-18)
(0.332478 0.507838 -7.80163e-18)
(-0.0117526 0.00850395 -1.14621e-18)
(-0.0766669 0.280163 3.73206e-20)
(-0.107158 0.49835 -1.39153e-18)
(-0.105911 0.60057 1.12944e-18)
(-0.089976 0.63801 1.54255e-18)
(-0.0672622 0.646216 -1.16086e-18)
(-0.0405296 0.640849 -2.02592e-19)
(-0.00890467 0.627862 -9.79805e-19)
(0.0281209 0.609843 2.46041e-18)
(0.0658021 0.589928 4.73272e-19)
(0.12411 0.566871 -6.40854e-18)
(0.150239 0.541913 1.75343e-18)
(0.253418 0.542464 1.09472e-18)
(0.243033 0.486784 -4.93216e-18)
(0.396876 0.517478 1.12342e-18)
(-0.00297868 -0.0127636 2.58916e-19)
(-0.0584831 0.206108 6.9605e-19)
(-0.0878705 0.446894 1.29908e-18)
(-0.0887743 0.573872 -1.10216e-18)
(-0.072377 0.627872 -4.65406e-20)
(-0.047704 0.644974 2.7983e-18)
(-0.0183168 0.644157 -1.32096e-19)
(0.0155574 0.633727 -4.75797e-21)
(0.0582833 0.616405 3.98574e-18)
(0.0941704 0.597855 -2.29203e-18)
(0.167739 0.578308 1.64889e-18)
(0.181913 0.543021 -4.66723e-18)
(0.310401 0.557632 4.03423e-19)
(0.287951 0.498756 -1.24851e-18)
(0.460259 0.528013 2.15124e-18)
(0.00556136 -0.0237163 -1.94058e-19)
(-0.0422135 0.132617 8.67409e-19)
(-0.0683902 0.383285 -1.15522e-18)
(-0.0714964 0.53567 2.42885e-18)
(-0.055492 0.609848 -2.04869e-18)
(-0.0293986 0.638967 -1.83971e-18)
(0.00247629 0.644022 -1.14575e-18)
(0.0373594 0.636992 -2.48386e-18)
(0.0879603 0.620948 -4.84557e-18)
(0.118431 0.601174 7.45551e-19)
(0.211563 0.591147 3.84483e-18)
(0.211457 0.542782 3.09593e-18)
(0.364505 0.563593 5.30077e-19)
(0.332649 0.509235 -2.60157e-18)
(0.520595 0.534983 -1.31681e-18)
(0.0119825 -0.0273662 4.64546e-19)
(-0.0268143 0.0703031 8.14522e-19)
(-0.0494616 0.307674 -3.47092e-18)
(-0.0544626 0.484026 -2.39935e-18)
(-0.0395329 0.581626 -7.04231e-20)
(-0.0131699 0.626193 1.92384e-18)
(0.022025 0.639507 -7.08355e-19)
(0.0552804 0.636727 5.51989e-18)
(0.116892 0.623338 4.70241e-19)
(0.138224 0.598187 -3.11974e-18)
(0.253272 0.601308 -2.95585e-18)
(0.240673 0.546112 -4.74686e-18)
(0.412895 0.563343 5.24478e-18)
(0.37797 0.515967 3.49967e-18)
(0.575243 0.535825 -9.64096e-21)
(0.0156144 -0.0270739 -1.29376e-18)
(-0.0107576 0.0258952 -2.39812e-18)
(-0.0319043 0.222657 1.72744e-18)
(-0.0382744 0.417551 2.11253e-18)
(-0.0248589 0.540321 1.3129e-18)
(0.000322633 0.604357 -1.3397e-18)
(0.0394267 0.628252 3.4191e-18)
(0.0692355 0.631062 -4.90687e-18)
(0.143465 0.625309 5.48145e-18)
(0.15473 0.588816 3.53869e-18)
(0.287845 0.601878 -1.10281e-18)
(0.272621 0.549712 -1.55842e-18)
(0.449591 0.558388 -2.09772e-18)
(0.424331 0.520989 -4.20418e-18)
(0.62159 0.526655 5.05863e-18)
(0.0171009 -0.0251811 3.64628e-18)
(0.00458371 -0.00130582 2.79814e-18)
(-0.0165377 0.139109 6.34388e-19)
(-0.0240915 0.336986 -3.73644e-20)
(-0.0118161 0.483025 -4.57314e-19)
(0.0098383 0.569884 -5.36405e-19)
(0.0544575 0.609054 -2.66834e-18)
(0.0775543 0.615354 4.65142e-18)
(0.165649 0.623426 -3.64915e-18)
(0.171234 0.580815 -3.72343e-20)
(0.308419 0.588633 3.56394e-18)
(0.30717 0.549741 2.52245e-18)
(0.472125 0.543129 2.51945e-18)
(0.4679 0.525777 -2.73967e-20)
(0.660594 0.502209 -3.00329e-18)
(0.0176003 -0.022911 -2.18907e-18)
(0.0171005 -0.0158849 -2.27188e-18)
(-0.00176276 0.0731191 7.05428e-19)
(-0.0124145 0.247889 -1.13842e-18)
(-0.00090818 0.408349 -5.3651e-19)
(0.0148877 0.518797 1.92669e-18)
(0.0642195 0.577991 -5.09818e-19)
(0.083188 0.590355 -4.79796e-19)
(0.174582 0.60793 -1.45392e-18)
(0.193275 0.571115 -3.38051e-18)
(0.31214 0.574106 1.57817e-18)
(0.344475 0.534444 -1.8822e-18)
(0.476537 0.533114 -2.9175e-18)
(0.523547 0.508288 -1.32737e-18)
(0.641498 0.479192 5.35427e-18)
(0.01839 -0.0207488 2.47098e-18)
(0.0270571 -0.0224988 -1.94216e-18)
(0.0138459 0.0313328 -3.18735e-18)
(-0.00171822 0.163078 3.24334e-19)
(0.00768609 0.319773 7.6259e-19)
(0.0155411 0.448584 -5.35297e-19)
(0.0665259 0.530661 1.4567e-18)
(0.0842857 0.550659 2.98887e-19)
(0.172673 0.583176 -2.02276e-19)
(0.206941 0.540366 1.33586e-19)
(0.313837 0.56387 -1.63477e-18)
(0.364662 0.495637 2.16012e-19)
(0.497919 0.53812 9.3775e-19)
(0.510738 0.447873 -7.42163e-19)
(0.718694 0.510829 5.03214e-18)
(0.0202232 -0.019069 5.19675e-19)
(0.0359138 -0.0249602 -1.11657e-18)
(0.0288229 0.0087968 3.10384e-18)
(0.010226 0.0974259 2.39692e-18)
(0.0140821 0.229574 -2.39444e-18)
(0.013099 0.361238 -1.59978e-19)
(0.0588712 0.465193 -1.09488e-18)
(0.0823045 0.491934 -4.24391e-19)
(0.15215 0.538537 3.00122e-18)
(0.227288 0.505616 1.5306e-18)
(0.27811 0.517364 2.10487e-18)
(0.425168 0.481816 -1.68978e-18)
(0.444295 0.489509 1.15388e-18)
(0.589325 0.433136 -6.58778e-19)
(0.695704 0.487351 -6.41859e-18)
(0.0232516 -0.0182234 4.15227e-19)
(0.0442519 -0.0260581 6.63977e-19)
(0.0412222 -0.00292623 -1.71048e-18)
(0.0227485 0.0554899 -1.94702e-18)
(0.018105 0.152818 -1.78271e-18)
(0.00978823 0.268255 1.52739e-19)
(0.0408486 0.381025 1.27331e-18)
(0.0761215 0.419947 -2.2979e-18)
(0.116593 0.462219 -1.19899e-18)
(0.234363 0.462407 6.57043e-19)
(0.232201 0.438292 -1.91924e-18)
(0.453439 0.456141 2.00093e-19)
(0.355894 0.384048 1.35402e-18)
(0.675398 0.432643 -1.85065e-18)
(0.515691 0.35369 1.50802e-18)
(0.0271008 -0.018368 -9.34615e-19)
(0.0514097 -0.0276299 2.12181e-18)
(0.0497139 -0.0109443 1.40203e-18)
(0.0320679 0.0294776 9.36912e-19)
(0.0192116 0.095677 1.5249e-18)
(0.00404786 0.183615 -1.5383e-19)
(0.0187256 0.28693 -1.17986e-18)
(0.055278 0.333965 2.61847e-19)
(0.0843284 0.372157 1.58233e-18)
(0.198839 0.376593 -2.48498e-18)
(0.212677 0.362154 -1.15125e-18)
(0.393402 0.366724 1.10546e-19)
(0.327616 0.297235 -3.80003e-19)
(0.632398 0.369033 2.18821e-18)
(0.421328 0.240106 -2.11219e-18)
(0.030908 -0.0193176 1.02195e-18)
(0.0558935 -0.0304978 6.84663e-19)
(0.0527826 -0.0196005 -7.97219e-20)
(0.0343057 0.00902418 -6.07986e-19)
(0.014918 0.0530439 1.35099e-19)
(-0.00745685 0.113052 -1.78794e-18)
(-0.00468808 0.195316 3.89001e-19)
(0.0197576 0.23648 -7.60639e-19)
(0.052073 0.279194 -7.56697e-19)
(0.142742 0.262851 1.69383e-18)
(0.186105 0.274397 2.44465e-18)
(0.319883 0.257681 1.16705e-18)
(0.340174 0.243989 1.24151e-18)
(0.615636 0.311758 -1.63226e-18)
(0.669558 0.319002 -1.72526e-18)
(0.0334797 -0.0205813 8.47981e-19)
(0.0560814 -0.0345413 -1.60699e-18)
(0.0490545 -0.0303003 -7.76816e-19)
(0.0273895 -0.0117803 -1.7401e-18)
(0.00204041 0.0163202 7.81143e-19)
(-0.0264523 0.0532964 1.88389e-18)
(-0.0332917 0.111117 -2.13624e-18)
(-0.0234871 0.136622 7.4016e-19)
(0.0112724 0.179308 1.3636e-18)
(0.085926 0.149884 3.6468e-19)
(0.147143 0.168622 -1.55994e-18)
(0.301913 0.181412 -6.73281e-19)
(0.44849 0.240995 -3.25899e-21)
(0.749836 0.336015 9.5994e-19)
(0.925662 0.419044 3.84206e-18)
(0.0336106 -0.0215064 -1.37092e-18)
(0.0508961 -0.0389872 -1.37586e-18)
(0.0380242 -0.0425466 7.70935e-19)
(0.0113253 -0.0343473 3.09167e-18)
(-0.0204217 -0.0197307 -2.00617e-18)
(-0.0541416 -0.00105492 5.57778e-19)
(-0.07107 0.0328896 8.29082e-19)
(-0.0702137 0.0402948 -7.17147e-20)
(-0.0369106 0.0756739 1.73302e-19)
(0.0449914 0.0546118 7.42178e-19)
(0.175038 0.101952 -6.71905e-19)
(0.415473 0.184576 -1.42474e-18)
(0.659462 0.295394 -1.35214e-18)
(0.917029 0.392139 1.13377e-18)
(1.04246 0.451779 3.71863e-19)
(0.030417 -0.0214361 -3.3918e-19)
(0.0401138 -0.0426581 2.73181e-18)
(0.0203592 -0.0545637 5.75742e-19)
(-0.0123691 -0.0569249 8.19617e-19)
(-0.0510669 -0.0549134 7.45485e-19)
(-0.0909884 -0.0509945 7.08326e-19)
(-0.117297 -0.0386807 -2.47223e-19)
(-0.114825 -0.0439729 4.5435e-19)
(-0.0629252 -0.010133 2.17341e-19)
(0.0950994 0.0217837 9.45174e-19)
(0.337595 0.124198 4.32105e-20)
(0.616514 0.24539 9.87851e-19)
(0.844424 0.351968 -8.61421e-19)
(1.01127 0.416988 -8.83306e-19)
(1.10964 0.460844 6.19624e-19)
(0.0236399 -0.0198304 1.22582e-18)
(0.0244786 -0.0441261 -1.12064e-18)
(-0.00210394 -0.06371 1.19351e-19)
(-0.0406918 -0.0755167 -1.67052e-18)
(-0.0857441 -0.08375 -1.39121e-18)
(-0.130364 -0.0902379 2.40733e-18)
(-0.156104 -0.0916857 6.88805e-19)
(-0.12331 -0.0949789 -9.64826e-19)
(0.00123763 -0.0407078 2.72669e-19)
(0.268407 0.0644101 -2.57523e-18)
(0.5535 0.191764 8.82871e-19)
(0.790507 0.30194 -1.0865e-18)
(0.95501 0.37853 1.36115e-18)
(1.07547 0.427471 -1.38266e-19)
(1.14997 0.460276 -8.96878e-19)
(0.0138248 -0.0164224 -1.91595e-18)
(0.0057517 -0.042078 -1.95433e-18)
(-0.0261907 -0.0670189 -2.00622e-18)
(-0.0685503 -0.084665 -1.51874e-18)
(-0.115155 -0.0979604 1.01696e-18)
(-0.154814 -0.10717 -4.15539e-18)
(-0.159958 -0.108716 3.77292e-19)
(-0.0602127 -0.0922579 3.8017e-19)
(0.169652 0.00382367 1.97418e-19)
(0.4806 0.136226 1.20434e-18)
(0.729916 0.24908 -1.0066e-18)
(0.907933 0.334371 2.40556e-18)
(1.03334 0.393628 -5.27919e-19)
(1.11655 0.430297 -1.0712e-18)
(1.1683 0.452859 6.10949e-19)
(0.0022234 -0.0113807 3.38793e-19)
(-0.0136786 -0.0359076 1.5867e-18)
(-0.0481338 -0.0624939 2.27412e-18)
(-0.0897598 -0.0812402 3.67193e-19)
(-0.130169 -0.0933828 1.83933e-18)
(-0.152507 -0.0971771 1.02871e-18)
(-0.120074 -0.0908881 3.27668e-19)
(0.0739972 -0.0379777 -1.60488e-18)
(0.378628 0.0863141 -9.36431e-20)
(0.658174 0.199262 6.67763e-19)
(0.858623 0.289501 2.49409e-18)
(0.996402 0.357804 -3.09969e-19)
(1.08433 0.401258 9.08277e-19)
(1.1409 0.428252 8.79643e-19)
(1.18129 0.444644 1.46843e-18)
(-0.00958719 -0.00532248 6.26261e-19)
(-0.031505 -0.0261461 -2.09862e-18)
(-0.0651308 -0.0509199 -4.49623e-19)
(-0.10087 -0.0667554 1.81059e-20)
(-0.128415 -0.0731873 -3.45338e-18)
(-0.12576 -0.068798 9.15373e-19)
(-0.0413069 -0.0562587 -4.64396e-19)
(0.2543 0.0425769 5.45386e-19)
(0.56158 0.156388 1.74826e-18)
(0.79896 0.247644 -5.77679e-19)
(0.958036 0.321299 -1.96446e-18)
(1.05655 0.372364 -2.68053e-19)
(1.11759 0.403915 -3.10228e-19)
(1.15699 0.424084 -6.80543e-19)
(1.18537 0.434705 -1.57909e-18)
(-0.0201903 0.000848248 1.30421e-19)
(-0.046243 -0.014396 5.67884e-19)
(-0.0760839 -0.034908 -1.47754e-18)
(-0.102244 -0.0454771 6.19688e-19)
(-0.113158 -0.0446349 1.43564e-18)
(-0.0834368 -0.035698 -6.27677e-19)
(0.0769301 -0.00244442 -1.36283e-19)
(0.432025 0.115532 -1.47349e-18)
(0.713512 0.213502 2.93911e-19)
(0.909691 0.287597 -1.0065e-18)
(1.02793 0.344561 9.56703e-19)
(1.09804 0.381738 -7.96937e-19)
(1.13902 0.404024 1.42914e-18)
(1.16514 0.41879 -5.56714e-19)
(1.18851 0.42601 -1.16978e-18)
(-0.0286243 0.00627823 6.72168e-19)
(-0.0572801 -0.00249471 4.20757e-19)
(-0.0814872 -0.0175707 3.80126e-19)
(-0.0959959 -0.0224027 9.07203e-20)
(-0.0897055 -0.0154782 6.6558e-19)
(-0.0270525 -0.0109878 -1.63936e-18)
(0.234547 0.0687835 9.10306e-19)
(0.587262 0.176837 2.12467e-18)
(0.836576 0.261418 -2.03483e-19)
(0.991862 0.318396 1.5291e-18)
(1.07827 0.361727 9.24046e-19)
(1.12539 0.386897 1.5014e-19)
(1.15202 0.402702 3.07166e-19)
(1.17118 0.413744 5.8813e-19)
(1.18919 0.41757 1.37232e-18)
(-0.0344825 0.0103715 1.02749e-18)
(-0.0646568 0.00796565 1.46675e-18)
(-0.0824715 -0.00158246 -1.32789e-18)
(-0.0845352 -0.000928691 1.21267e-18)
(-0.0637766 0.00727335 -2.85811e-18)
(0.0532638 0.0149031 7.15149e-19)
(0.402866 0.132854 -2.53727e-19)
(0.724484 0.229588 -1.32735e-18)
(0.93282 0.299284 -2.30926e-18)
(1.0523 0.342138 -8.6032e-19)
(1.11177 0.373732 -2.12305e-18)
(1.143 0.389854 1.32883e-18)
(1.16045 0.401141 -1.8079e-18)
(1.1735 0.408508 1.24856e-18)
(1.1883 0.410058 8.6597e-19)
(-0.0378545 0.0128663 -2.435e-18)
(-0.0688239 0.0159158 8.5312e-20)
(-0.0802209 0.0112014 1.75361e-19)
(-0.0708133 0.0171709 3.40933e-19)
(-0.0335224 0.0175056 1.97064e-19)
(0.173244 0.063699 1.38238e-18)
(0.55226 0.187705 7.69572e-19)
(0.835757 0.272822 -2.11137e-19)
(1.00509 0.329081 1.04082e-18)
(1.09379 0.359765 6.62656e-19)
(1.13422 0.382346 3.07159e-19)
(1.15425 0.391169 -7.53276e-19)
(1.16479 0.399226 2.50273e-18)
(1.17518 0.403942 4.41874e-19)
(1.18784 0.403704 -9.241e-19)
(-0.0392133 0.0137981 2.24104e-18)
(-0.0704647 0.0207927 -1.60524e-18)
(-0.0755056 0.0202684 5.14283e-19)
(-0.0582222 0.0286202 -5.46272e-20)
(0.011927 0.0176369 2.71577e-18)
(0.327073 0.122247 -2.2389e-19)
(0.685597 0.23558 -9.23587e-19)
(0.925996 0.308193 2.23532e-18)
(1.05838 0.351728 2.05918e-19)
(1.12255 0.372832 8.79129e-19)
(1.14825 0.388044 -1.74434e-18)
(1.16069 0.391636 3.92715e-20)
(1.16755 0.397843 -7.87896e-19)
(1.17539 0.399579 -1.62171e-19)
(1.18527 0.397822 -5.45785e-19)
(-0.0392612 0.0133926 -5.99788e-19)
(-0.0702736 0.0224647 1.67354e-18)
(-0.0693611 0.0261427 1.01413e-18)
(-0.0466459 0.0301835 8.13755e-19)
(0.0877837 0.0349222 -4.53677e-19)
(0.47694 0.174613 -1.80418e-19)
(0.797855 0.275546 1.18786e-18)
(0.994639 0.335693 -9.49452e-19)
(1.09573 0.368599 2.8737e-19)
(1.14048 0.382111 -1.48001e-18)
(1.15657 0.392009 9.96545e-20)
(1.16452 0.391821 2.26059e-19)
(1.16822 0.396373 -3.28612e-19)
(1.17481 0.395624 -1.97197e-18)
(1.18367 0.39325 8.32948e-19)
(-0.0388079 0.0119365 -1.05417e-18)
(-0.0688275 0.0213983 -1.31999e-18)
(-0.0638149 0.0289919 6.92448e-19)
(-0.0282283 0.0197388 -9.26863e-20)
(0.208716 0.0822489 -1.09309e-18)
(0.609866 0.22122 -4.31753e-20)
(0.888909 0.308814 -8.39339e-19)
(1.04664 0.357345 -1.64879e-18)
(1.12153 0.381012 -6.64169e-19)
(1.15203 0.38893 6.13005e-19)
(1.16127 0.394604 5.58313e-19)
(1.16592 0.391676 -5.51353e-20)
(1.16821 0.395378 -8.88747e-19)
(1.1739 0.392135 1.6256e-18)
(1.18043 0.389079 5.09827e-19)
(-0.0385841 0.00972809 1.03595e-18)
(-0.0666088 0.0189499 1.49657e-21)
(-0.0604922 0.0268546 -1.70038e-18)
(0.0112868 0.00692038 -3.91932e-20)
(0.359101 0.13672 2.61176e-19)
(0.727476 0.260561 4.86295e-19)
(0.961473 0.335307 -8.7477e-19)
(1.08424 0.373533 4.54426e-19)
(1.13834 0.389947 -2.0488e-20)
(1.15813 0.393664 4.99501e-19)
(1.16308 0.396321 -4.46173e-19)
(1.16623 0.391749 -1.25171e-18)
(1.16714 0.394393 -6.19246e-20)
(1.17199 0.388827 -7.88642e-19)
(1.17764 0.385926 -6.85205e-19)
(-0.0388159 0.00704465 4.20371e-19)
(-0.0641602 0.0168855 -8.59193e-19)
(-0.0572743 0.0189205 8.63685e-19)
(0.0823629 0.019151 -2.72313e-19)
(0.499047 0.184757 -1.50299e-19)
(0.824976 0.294258 -4.35437e-19)
(1.01671 0.356633 6.89859e-19)
(1.1108 0.385975 4.46118e-19)
(1.14884 0.396487 -2.65848e-19)
(1.16133 0.397262 -7.51286e-19)
(1.16357 0.397598 -2.71328e-19)
(1.16525 0.391717 1.2842e-18)
(1.16553 0.393612 7.8572e-19)
(1.17013 0.386108 7.77022e-19)
(1.17405 0.383295 -2.40887e-19)
(-0.0394264 0.00439881 -2.65111e-19)
(-0.0630469 0.015588 9.49562e-20)
(-0.0455441 0.00463518 -3.55481e-19)
(0.192384 0.066368 -3.24306e-21)
(0.619819 0.227624 -2.78466e-19)
(0.904823 0.322709 -4.1999e-19)
(1.05914 0.373453 1.49711e-19)
(1.12907 0.395082 -8.82431e-19)
(1.15488 0.401192 7.83924e-19)
(1.16207 0.399858 9.96842e-19)
(1.16251 0.398433 1.27086e-19)
(1.1637 0.391954 -1.11709e-18)
(1.16342 0.392923 -1.08769e-18)
(1.16732 0.383545 -8.234e-19)
(1.17023 0.381257 3.3273e-19)
(-0.0403933 0.00303558 -8.51394e-19)
(-0.0643077 0.0125069 2.33066e-19)
(-0.0138778 -0.0103861 -1.70628e-19)
(0.331755 0.123158 -2.47209e-21)
(0.72665 0.263511 -6.8664e-20)
(0.968492 0.345751 -1.58356e-19)
(1.08992 0.386668 3.00008e-19)
(1.14085 0.402118 -1.70565e-19)
(1.15771 0.404819 -2.2494e-19)
(1.16147 0.402014 -4.33446e-19)
(1.16103 0.399284 -3.83904e-19)
(1.16147 0.392216 -1.76539e-19)
(1.16077 0.392263 6.75603e-19)
(1.16455 0.381559 -2.69661e-20)
(1.16629 0.379817 5.3363e-19)
(-0.0415345 0.00417716 3.5394e-19)
(-0.066006 0.00667209 5.89456e-19)
(0.0420478 -0.00870983 9.89588e-20)
(0.467807 0.171397 3.64033e-19)
(0.817351 0.294749 8.04399e-19)
(1.01805 0.364928 2.99713e-19)
(1.11227 0.397153 1.10634e-18)
(1.14825 0.407435 5.86017e-19)
(1.15856 0.407627 3.70808e-19)
(1.15988 0.403778 8.49979e-19)
(1.15863 0.399934 2.62812e-19)
(1.15879 0.39265 4.80012e-19)
(1.1579 0.391765 2.38056e-19)
(1.16107 0.379816 1.11729e-19)
(1.16173 0.378623 3.69269e-19)
(-0.0425797 0.00792882 4.92676e-19)
(-0.0641435 -0.00170211 -8.37769e-19)
(0.121664 0.0211069 -1.59999e-19)
(0.581332 0.213112 3.82964e-19)
(0.892483 0.32285 -8.11021e-19)
(1.05667 0.380948 -3.33741e-19)
(1.12767 0.405428 -6.82818e-19)
(1.15214 0.411728 -2.28804e-20)
(1.1578 0.410071 -1.84462e-19)
(1.15756 0.405428 -7.15474e-19)
(1.15605 0.400768 5.43397e-19)
(1.15576 0.393195 4.12981e-20)
(1.15452 0.391264 -2.31378e-20)
(1.15746 0.378549 1.96489e-19)
(1.15736 0.377963 -4.52899e-19)
(-0.043767 0.012219 -3.61249e-20)
(-0.0527137 -0.0118125 3.67606e-19)
(0.226841 0.0716028 1.00978e-19)
(0.67976 0.249775 -5.36454e-19)
(0.953431 0.346742 3.59442e-19)
(1.08571 0.394322 1.15381e-19)
(1.13808 0.412253 -3.03162e-19)
(1.15388 0.415295 -1.44021e-19)
(1.15622 0.41224 -4.38268e-19)
(1.15486 0.407001 7.77335e-20)
(1.1529 0.401552 -5.26243e-19)
(1.1523 0.39382 -3.72528e-19)
(1.15099 0.390962 9.96321e-20)
(1.1534 0.377602 1.03088e-19)
(1.15234 0.377338 -1.79117e-19)
(-0.0455394 0.0135423 -1.82715e-19)
(-0.0273059 -0.0186795 -1.16448e-19)
(0.346645 0.123745 2.50745e-19)
(0.765455 0.280877 4.61009e-19)
(1.00171 0.366817 8.98418e-20)
(1.1072 0.405481 -2.48525e-19)
(1.14464 0.41797 3.14102e-19)
(1.15385 0.41851 2.74217e-19)
(1.15382 0.414402 1.42767e-19)
(1.15166 0.408613 2.71559e-20)
(1.14956 0.402552 1.69343e-19)
(1.14862 0.394607 7.47708e-20)
(1.14701 0.390703 -5.24166e-20)
(1.14908 0.376985 -6.61697e-20)
(1.14759 0.377065 5.8519e-20)
(-0.0478364 0.00918427 -8.50667e-20)
(0.0126 -0.016713 -9.99846e-20)
(0.462792 0.169895 8.25137e-20)
(0.840207 0.309139 -1.08866e-19)
(1.03994 0.383768 -2.34023e-19)
(1.12239 0.414769 1.80954e-20)
(1.14829 0.423003 1.44722e-19)
(1.15276 0.421574 -1.31074e-19)
(1.15103 0.416578 8.68267e-20)
(1.14828 0.410303 1.74997e-19)
(1.14583 0.403601 2.79284e-20)
(1.14453 0.395429 6.97528e-20)