/*--------------------------------*- C++ -*----------------------------------*\
  =========                 |
  \\      /  F ield         | OpenFOAM: The Open Source CFD Toolbox
   \\    /   O peration     | Website:  https://openfoam.org
    \\  /    A nd           | Version:  7
     \\/     M anipulation  |
\*---------------------------------------------------------------------------*/
FoamFile
{
    version     2.0;
    format      ascii;
    class       volScalarField;
    location    "0.3125";
    object      p;
}
// * * * * * * * * * * * * * * * * * * * * * * * * * * * * * * * * * * * * * //

dimensions      [0 2 -2 0 0 0 0];

internalField   nonuniform List<scalar> 
10000
(
6.62507e-09
-3.72677e-06
-2.18842e-05
-5.25362e-05
-9.10169e-05
-0.000133808
-0.000178243
-0.000222295
-0.000264282
-0.000302914
-0.000337189
-0.0003663
-0.000389683
-0.000406935
-0.000417726
-0.000421814
-0.000419067
-0.000409405
-0.000392817
-0.000369342
-0.000339008
-0.000301814
-0.000257792
-0.000207039
-0.000149655
-8.57184e-05
-1.53082e-05
6.14877e-05
0.000144588
0.000233933
0.00032946
0.000431085
0.00053872
0.000652296
0.00077174
0.000896951
0.00102781
0.0011642
0.00130602
0.00145311
0.00160528
0.00176229
0.00192392
0.0020899
0.00225996
0.00243375
0.00261093
0.00279112
0.00297397
0.00315904
0.00334586
0.00353393
0.00372274
0.00391174
0.00410035
0.00428795
0.00447388
0.00465749
0.00483812
0.00501513
0.00518784
0.00535558
0.00551769
0.00567355
0.00582255
0.00596411
0.00609766
0.00622269
0.00633873
0.00644538
0.0065423
0.00662916
0.00670571
0.00677175
0.00682716
0.00687192
0.00690611
0.0069299
0.00694349
0.00694721
0.00694145
0.00692671
0.00690359
0.00687275
0.00683494
0.00679096
0.00674171
0.00668819
0.00663148
0.00657274
0.00651324
0.0064543
0.00639737
0.00634404
0.00629603
0.00625524
0.00622361
0.006203
0.00619504
0.0061983
3.13152e-06
-1.38565e-06
-1.72204e-05
-4.24381e-05
-7.38648e-05
-0.00010885
-0.00014545
-0.00018193
-0.000216854
-0.000249031
-0.000277459
-0.00030138
-0.000320197
-0.000333443
-0.000340801
-0.000342037
-0.000336946
-0.00032539
-0.000307309
-0.000282699
-0.00025157
-0.000213922
-0.000169778
-0.000119181
-6.21833e-05
1.15598e-06
7.07545e-05
0.000146524
0.000228401
0.000316331
0.000410246
0.000510059
0.000615694
0.000727093
0.000844171
0.00096681
0.00109489
0.00122831
0.00136695
0.00151064
0.00165919
0.00181236
0.00196993
0.00213165
0.00229721
0.00246628
0.00263852
0.0028136
0.00299113
0.00317071
0.00335187
0.00353412
0.00371699
0.00389994
0.00408242
0.00426381
0.00444349
0.00462085
0.00479528
0.00496614
0.00513281
0.00529464
0.00545102
0.00560137
0.00574514
0.00588176
0.0060107
0.0061315
0.00624373
0.00634704
0.00644109
0.00652562
0.00660037
0.00666518
0.00671994
0.00676467
0.00679944
0.00682443
0.00683986
0.00684603
0.00684333
0.00683226
0.0068134
0.00678739
0.00675495
0.00671684
0.00667393
0.00662716
0.00657756
0.00652624
0.00647433
0.00642307
0.00637374
0.00632771
0.00628643
0.00625143
0.00622415
0.00620587
0.00619824
0.00620153
1.94106e-05
1.21324e-05
-3.71531e-06
-2.67115e-05
-5.43464e-05
-8.47929e-05
-0.000116456
-0.000147923
-0.000177979
-0.000205514
-0.000229656
-0.000249695
-0.000265007
-0.00027514
-0.000279774
-0.000278671
-0.000271632
-0.000258497
-0.000239157
-0.000213568
-0.000181724
-0.000143634
-9.932e-05
-4.87987e-05
7.91593e-06
7.07807e-05
0.000139716
0.000214644
0.000295517
0.000382283
0.000474864
0.000573177
0.000677165
0.000786768
0.000901885
0.00102239
0.00114817
0.00127914
0.00141516
0.00155605
0.00170161
0.00185163
0.0020059
0.00216414
0.00232605
0.00249131
0.0026596
0.00283058
0.00300389
0.00317911
0.00335579
0.00353347
0.00371169
0.00388993
0.00406763
0.00424419
0.00441902
0.00459155
0.00476119
0.00492732
0.00508933
0.00524662
0.00539861
0.00554475
0.00568451
0.00581734
0.00594276
0.0060603
0.00616959
0.00627031
0.00636215
0.00644484
0.00651815
0.00658194
0.00663612
0.00668074
0.00671587
0.00674167
0.00675836
0.00676626
0.00676575
0.00675732
0.00674154
0.00671904
0.00669048
0.00665663
0.0066183
0.00657641
0.00653194
0.0064859
0.00643936
0.00639344
0.00634928
0.0063081
0.00627116
0.00623974
0.00621499
0.00619799
0.00619049
0.00619359
4.69942e-05
3.46388e-05
1.66473e-05
-6.0871e-06
-3.23007e-05
-6.04825e-05
-8.93156e-05
-0.000117654
-0.000144409
-0.000168667
-0.000189662
-0.000206721
-0.000219309
-0.000226989
-0.00022942
-0.000226364
-0.000217649
-0.000203127
-0.000182681
-0.000156236
-0.000123758
-8.52521e-05
-4.07426e-05
9.76733e-06
6.6276e-05
0.000128743
0.000197103
0.000271303
0.000351308
0.000437061
0.000528479
0.000625498
0.000728069
0.000836117
0.000949521
0.00106816
0.00119196
0.00132081
0.00145456
0.00159303
0.00173602
0.00188334
0.00203479
0.00219007
0.00234889
0.00251093
0.00267592
0.00284351
0.00301333
0.00318496
0.00335798
0.00353194
0.0037064
0.00388083
0.00405467
0.00422736
0.00439833
0.00456701
0.00473284
0.00489522
0.00505355
0.00520726
0.0053558
0.00549863
0.00563523
0.00576509
0.0058877
0.00600267
0.00610963
0.00620829
0.00629833
0.00637951
0.00645161
0.00651451
0.00656815
0.00661256
0.00664785
0.00667415
0.00669168
0.00670077
0.00670179
0.00669525
0.00668169
0.00666171
0.00663598
0.00660521
0.0065702
0.00653183
0.00649102
0.00644873
0.00640593
0.00636365
0.00632292
0.00628484
0.00625051
0.00622104
0.00619743
0.00618062
0.0061722
0.00617331
8.27706e-05
6.36581e-05
4.21747e-05
1.82458e-05
-7.91314e-06
-3.51328e-05
-6.23487e-05
-8.85762e-05
-0.000112961
-0.00013474
-0.000153206
-0.000167799
-0.000178071
-0.000183625
-0.000184132
-0.000179353
-0.000169117
-0.000153296
-0.000131795
-0.000104532
-7.14609e-05
-3.25774e-05
1.21219e-05
6.26439e-05
0.000118974
0.000181069
0.000248891
0.000322415
0.000401601
0.000486382
0.000576698
0.000672504
0.000773743
0.000880313
0.000992092
0.00110898
0.00123091
0.00135776
0.00148937
0.00162556
0.00176615
0.00191097
0.00205979
0.00221233
0.0023683
0.00252742
0.00268942
0.00285394
0.00302061
0.00318903
0.00335879
0.00352946
0.00370059
0.00387167
0.00404212
0.00421142
0.00437902
0.00454437
0.0047069
0.00486603
0.00502119
0.00517182
0.0053174
0.0054574
0.00559129
0.00571857
0.00583877
0.00595151
0.00605646
0.0061533
0.00624176
0.00632158
0.00639256
0.00645461
0.00650769
0.00655183
0.00658712
0.00661371
0.00663182
0.00664176
0.00664394
0.00663884
0.00662699
0.00660898
0.00658544
0.00655708
0.00652467
0.00648904
0.00645106
0.00641162
0.00637164
0.00633203
0.00629375
0.00625777
0.00622505
0.00619655
0.00617312
0.00615559
0.00614512
0.00614245
0.000123917
9.7108e-05
7.10605e-05
4.48595e-05
1.76635e-05
-9.66722e-06
-3.6214e-05
-6.1225e-05
-8.4047e-05
-0.000104028
-0.000120585
-0.000133247
-0.000141614
-0.000145357
-0.000144204
-0.000137934
-0.000126371
-0.000109393
-8.69186e-05
-5.8887e-05
-2.5266e-05
1.39691e-05
5.88479e-05
0.000109376
0.000165526
0.000227273
0.000294602
0.000367494
0.000445903
0.00052977
0.000619059
0.000713733
0.000813711
0.000918879
0.00102913
0.0011444
0.00126459
0.00138956
0.00151916
0.00165323
0.00179162
0.00193414
0.00208056
0.00223059
0.00238399
0.0025405
0.00269983
0.00286162
0.0030255
0.00319109
0.00335801
0.00352583
0.00369408
0.00386224
0.00402979
0.00419619
0.00436093
0.00452346
0.0046832
0.0048396
0.00499209
0.00514016
0.00528326
0.00542089
0.00555251
0.00567763
0.0057958
0.00590667
0.00600991
0.00610521
0.00619228
0.00627089
0.00634086
0.00640211
0.00645462
0.00649841
0.00653356
0.00656023
0.00657866
0.00658915
0.00659211
0.00658802
0.0065774
0.0065608
0.00653886
0.00651226
0.00648175
0.00644812
0.00641219
0.00637478
0.00633676
0.00629895
0.00626222
0.00622744
0.00619544
0.00616703
0.00614297
0.00612395
0.00611054
0.00610296
0.000167781
0.00013281
0.00010159
7.23346e-05
4.3229e-05
1.49784e-05
-1.17088e-05
-3.62905e-05
-5.82245e-05
-7.70139e-05
-9.22255e-05
-0.000103449
-0.000110335
-0.000112616
-0.000110077
-0.000102532
-8.98307e-05
-7.18574e-05
-4.85368e-05
-1.983e-05
1.429e-05
5.38568e-05
9.88986e-05
0.000149415
0.000205387
0.000266811
0.000333684
0.000405976
0.000483648
0.00056667
0.000655015
0.000748628
0.000847414
0.000951273
0.00106012
0.00117388
0.00129245
0.00141569
0.00154345
0.00167559
0.00181198
0.00195242
0.00209666
0.00224447
0.00239561
0.00254982
0.00270682
0.00286623
0.0030277
0.00319089
0.00335539
0.0035208
0.00368662
0.00385235
0.00401748
0.0041815
0.00434389
0.00450411
0.00466159
0.00481576
0.00496612
0.00511213
0.00525326
0.00538898
0.00551877
0.00564215
0.0057587
0.00586806
0.0059699
0.00606391
0.00614981
0.00622737
0.00629644
0.00635695
0.00640888
0.00645224
0.00648712
0.00651369
0.00653217
0.00654291
0.0065463
0.00654281
0.00653293
0.00651723
0.00649631
0.00647084
0.00644155
0.0064092
0.00637456
0.00633842
0.00630155
0.00626473
0.00622874
0.00619435
0.00616228
0.00613323
0.00610785
0.00608672
0.00606979
0.00605668
0.00021201
0.000168853
0.000132148
9.93184e-05
6.77516e-05
3.79599e-05
1.04852e-05
-1.42693e-05
-3.5891e-05
-5.40262e-05
-6.83474e-05
-7.85405e-05
-8.43293e-05
-8.5485e-05
-8.183e-05
-7.32269e-05
-5.9561e-05
-4.0739e-05
-1.67052e-05
1.25699e-05
4.71225e-05
8.69831e-05
0.000132157
0.000182642
0.000238442
0.000299565
0.000366001
0.000437721
0.000514703
0.000596941
0.000684405
0.000777017
0.00087468
0.00097732
0.00108487
0.00119724
0.00131431
0.00143594
0.00156203
0.00169244
0.00182704
0.0019656
0.00210792
0.00225378
0.00240296
0.0025552
0.00271018
0.00286756
0.00302701
0.00318819
0.00335069
0.0035141
0.00367793
0.00384169
0.00400488
0.00416701
0.00432755
0.00448595
0.00464165
0.00479412
0.00494283
0.00508727
0.00522689
0.00536116
0.00548955
0.0056116
0.00572689
0.00583508
0.00593582
0.0060288
0.00611373
0.00619041
0.0062587
0.00631852
0.00636985
0.00641272
0.00644721
0.0064735
0.00649183
0.00650254
0.00650602
0.00650273
0.00649316
0.00647786
0.00645743
0.00643251
0.00640383
0.00637211
0.0063381
0.00630252
0.0062661
0.00622956
0.00619359
0.0061589
0.00612611
0.00609582
0.0060686
0.00604492
0.00602413
0.00600528
0.000254776
0.00020357
0.000161266
0.000124626
9.02031e-05
5.84057e-05
2.97012e-05
4.32109e-06
-1.74757e-05
-3.54119e-05
-4.92415e-05
-5.87588e-05
-6.37674e-05
-6.40885e-05
-5.95804e-05
-5.0137e-05
-3.56807e-05
-1.61591e-05
8.46025e-06
3.82102e-05
7.31257e-05
0.00011322
0.000158482
0.000208917
0.00026455
0.000325383
0.000391391
0.000462562
0.000538907
0.000620418
0.000707042
0.000798696
0.000895311
0.00099683
0.00110318
0.00121425
0.00132993
0.00145011
0.0015747
0.00170357
0.00183656
0.00197347
0.00211413
0.00225832
0.00240583
0.00255638
0.00270968
0.00286538
0.00302318
0.00318273
0.00334363
0.00350545
0.00366771
0.00382995
0.00399166
0.00415237
0.00431153
0.00446859
0.00462299
0.00477423
0.00492179
0.00506512
0.00520368
0.00533691
0.00546431
0.00558543
0.00569984
0.00580719
0.00590712
0.0059993
0.00608347
0.00615943
0.00622704
0.00628623
0.00633698
0.0063793
0.00641329
0.00643915
0.00645712
0.00646755
0.00647082
0.00646738
0.00645772
0.00644237
0.00642192
0.00639703
0.00636839
0.00633672
0.00630273
0.00626709
0.00623049
0.00619359
0.00615705
0.00612148
0.00608745
0.00605546
0.00602601
0.00599948
0.00597469
0.00595015
0.000294573
0.000235572
0.000187733
0.000147137
0.000109608
7.55137e-05
4.52451e-05
1.88765e-05
-3.45377e-06
-2.15498e-05
-3.5244e-05
-4.44064e-05
-4.89138e-05
-4.86501e-05
-4.35158e-05
-3.34376e-05
-1.8375e-05
1.68902e-06
2.67756e-05
5.69157e-05
9.21171e-05
0.00013237
0.000177677
0.000228055
0.000283513
0.000344041
0.000409631
0.000480294
0.000556044
0.000636858
0.000722675
0.000813428
0.000909071
0.00100955
0.00111478
0.00122465
0.00133906
0.00145794
0.0015812
0.0017087
0.00184029
0.00197578
0.00211502
0.00225782
0.00240394
0.00255312
0.00270504
0.00285941
0.00301592
0.00317422
0.0033339
0.00349453
0.00365564
0.00381679
0.00397749
0.00413722
0.00429545
0.00445163
0.00460522
0.0047557
0.00490256
0.00504523
0.00518315
0.00531577
0.0054426
0.00556316
0.00567706
0.00578388
0.00588327
0.00597491
0.00605852
0.00613392
0.00620097
0.00625959
0.00630977
0.00635151
0.00638492
0.00641021
0.00642764
0.00643756
0.00644034
0.00643642
0.00642628
0.00641045
0.00638954
0.00636419
0.0063351
0.00630295
0.00626841
0.00623216
0.00619481
0.00615701
0.00611936
0.00608244
0.00604675
0.0060127
0.00598073
0.0059512
0.00592239
0.00589241
0.000330156
0.000263714
0.000210435
0.000165837
0.000125109
8.85194e-05
5.64115e-05
2.87831e-05
5.65955e-06
-1.28748e-05
-2.67247e-05
-3.58091e-05
-4.00665e-05
-3.94391e-05
-3.38767e-05
-2.3355e-05
-7.86517e-06
1.25993e-05
3.80443e-05
6.84713e-05
0.000103868
0.000144221
0.000189537
0.000239829
0.00029509
0.000355308
0.000420494
0.000490678
0.000565861
0.000646
0.000731044
0.000820955
0.000915698
0.00101521
0.0011194
0.00122816
0.00134145
0.00145918
0.00158127
0.00170757
0.00183795
0.00197225
0.00211033
0.002252
0.00239701
0.0025451
0.00269597
0.00284935
0.00300492
0.00316233
0.00332117
0.003481
0.00364139
0.00380188
0.00396199
0.00412119
0.00427893
0.00443469
0.00458792
0.00473811
0.00488471
0.00502716
0.00516487
0.0052973
0.00542394
0.00554434
0.00565806
0.00576467
0.00586381
0.00595514
0.00603841
0.00611341
0.00618002
0.00623816
0.00628778
0.00632892
0.00636169
0.00638629
0.00640302
0.00641221
0.00641423
0.00640952
0.00639855
0.00638187
0.00636008
0.00633383
0.00630381
0.00627068
0.00623511
0.00619771
0.00615911
0.00611993
0.00608073
0.00604207
0.00600437
0.00596797
0.00593331
0.00590068
0.00586797
0.00583288
0.000360513
0.000286975
0.000228396
0.000179845
0.000135878
9.66745e-05
6.25541e-05
3.34585e-05
9.3213e-06
-9.86816e-06
-2.40905e-05
-3.33194e-05
-3.75409e-05
-3.67507e-05
-3.09496e-05
-2.0155e-05
-4.38884e-06
1.63436e-05
4.20329e-05
7.26442e-05
0.000108148
0.000148541
0.000193829
0.000243997
0.000299029
0.000358931
0.000423736
0.000493459
0.000568081
0.000647562
0.000731877
0.000821007
0.000914912
0.00101352
0.00111674
0.00122451
0.0013368
0.00145353
0.0015746
0.00169989
0.00182926
0.00196261
0.00209978
0.00224057
0.00238473
0.00253201
0.00268215
0.00283487
0.00298985
0.00314672
0.00330509
0.00346451
0.00362459
0.00378485
0.0039448
0.00410389
0.00426159
0.00441737
0.00457069
0.00472103
0.00486782
0.00501047
0.00514839
0.00528104
0.00540791
0.00552852
0.00564239
0.00574911
0.00584826
0.00593954
0.00602267
0.00609746
0.00616376
0.0062215
0.00627061
0.00631113
0.00634319
0.00636701
0.00638289
0.00639115
0.00639216
0.00638636
0.00637423
0.00635634
0.0063333
0.00630576
0.00627437
0.00623982
0.00620272
0.00616372
0.00612343
0.00608244
0.00604132
0.00600057
0.00596056
0.00592162
0.00588412
0.00584839
0.00581195
0.00577217
0.000384732
0.000304465
0.000240808
0.000188349
0.000141126
9.92741e-05
6.30534e-05
3.23372e-05
7.00936e-06
-1.30063e-05
-2.77698e-05
-3.73212e-05
-4.16846e-05
-4.09033e-05
-3.5038e-05
-2.41319e-05
-8.21555e-06
1.26723e-05
3.84818e-05
6.91684e-05
0.000104709
0.00014509
0.00019029
0.000240281
0.00029506
0.000354654
0.000419084
0.000488343
0.000562405
0.000641255
0.000724891
0.000813293
0.000906407
0.00100417
0.00110652
0.00121342
0.00132484
0.00144071
0.00156091
0.00168535
0.00181393
0.00194655
0.00208304
0.00222319
0.00236676
0.00251354
0.00266326
0.00281564
0.00297036
0.00312704
0.0032853
0.00344472
0.00360488
0.00376532
0.00392551
0.00408492
0.00424302
0.00439927
0.00455313
0.00470406
0.00485147
0.00499474
0.00513329
0.00526657
0.00539406
0.00551524
0.00562962
0.00573674
0.0058362
0.00592767
0.00601089
0.00608564
0.00615178
0.0062092
0.00625784
0.00629774
0.00632906
0.00635201
0.00636689
0.00637403
0.0063738
0.00636664
0.00635306
0.00633364
0.00630899
0.00627976
0.00624662
0.0062102
0.00617117
0.00613014
0.00608775
0.00604459
0.00600121
0.00595806
0.00591552
0.00587384
0.00583346
0.00579467
0.00575471
0.00571066
0.000402002
0.000315409
0.000246896
0.000190618
0.000140162
9.56517e-05
5.72852e-05
2.48653e-05
-1.77372e-06
-2.27597e-05
-3.8204e-05
-4.82077e-05
-5.28631e-05
-5.22554e-05
-4.64686e-05
-3.55726e-05
-1.96297e-05
1.28652e-06
2.71045e-05
5.7781e-05
9.32885e-05
0.000133586
0.000178629
0.000228399
0.000282913
0.000342192
0.000406232
0.000475011
0.000548525
0.000626781
0.000709781
0.000797492
0.000889862
0.000986849
0.00108843
0.00119458
0.00130526
0.00142038
0.00153987
0.00166365
0.00179165
0.00192374
0.00205976
0.00219951
0.00234277
0.00248932
0.00263892
0.00279128
0.00294606
0.0031029
0.00326142
0.00342121
0.00358187
0.00374288
0.00390373
0.00406387
0.00422279
0.00437996
0.0045348
0.00468675
0.0048352
0.00497953
0.00511913
0.00525346
0.00538196
0.00550409
0.00561931
0.00572714
0.00582719
0.00591912
0.00600265
0.00607756
0.00614367
0.00620087
0.00624909
0.0062884
0.00631893
0.00634093
0.00635469
0.00636054
0.00635885
0.00635009
0.00633478
0.00631352
0.00628693
0.00625567
0.00622037
0.0061817
0.00614033
0.0060969
0.00605205
0.00600637
0.00596042
0.00591461
0.00586932
0.0058248
0.00578149
0.00573972
0.00569647
0.00564859
0.000411656
0.000319079
0.000245941
0.000185983
0.00013235
8.51831e-05
4.46546e-05
1.04885e-05
-1.75344e-05
-3.95815e-05
-5.58185e-05
-6.64006e-05
-7.14743e-05
-7.11633e-05
-6.55707e-05
-5.4798e-05
-3.89499e-05
-1.81232e-05
7.61056e-06
3.8201e-05
7.35924e-05
0.000113721
0.000158545
0.000208064
0.000262295
0.00032123
0.000384848
0.000453142
0.000526128
0.000603824
0.000686216
0.000773268
0.000864948
0.000961248
0.00106216
0.00116767
0.00127771
0.00139222
0.00151116
0.00163446
0.00176206
0.00189383
0.0020296
0.00216917
0.00231237
0.00245898
0.00260876
0.00276139
0.00291655
0.00307389
0.00323304
0.00339359
0.00355511
0.00371709
0.003879
0.0040403
0.00420049
0.004359
0.00451527
0.00466867
0.00481858
0.00496439
0.00510548
0.00524127
0.00537117
0.00549461
0.00561102
0.00571989
0.00582083
0.00591349
0.00599758
0.00607284
0.00613907
0.00619614
0.00624402
0.00628275
0.00631249
0.00633348
0.006346
0.00635039
0.00634705
0.00633645
0.00631915
0.00629577
0.00626693
0.00623327
0.00619546
0.00615418
0.0061101
0.00606391
0.00601626
0.00596776
0.00591894
0.00587024
0.00582202
0.00577456
0.00572831
0.00568365
0.00563733
0.00558603
0.000413121
0.000314832
0.000237284
0.000173811
0.000117097
6.72958e-05
2.46036e-05
-1.13193e-05
-4.07648e-05
-6.39393e-05
-8.10542e-05
-9.23195e-05
-9.79153e-05
-9.79934e-05
-9.26932e-05
-8.2157e-05
-6.65159e-05
-4.58714e-05
-2.03014e-05
1.01157e-05
4.52962e-05
8.51773e-05
0.000129737
0.000178976
0.000232881
0.000291427
0.000354598
0.000422411
0.000494891
0.000572043
0.000653845
0.000740273
0.000831332
0.000927036
0.00102738
0.00113233
0.00124184
0.00135588
0.00147442
0.00159742
0.0017248
0.00185642
0.00199213
0.00213177
0.00227517
0.00242211
0.00257234
0.00272554
0.00288139
0.00303956
0.0031997
0.00336138
0.00352414
0.00368748
0.00385085
0.00401374
0.00417563
0.00433593
0.00449405
0.00464933
0.00480115
0.00494887
0.00509188
0.00522955
0.00536126
0.00548638
0.00560433
0.00571459
0.00581674
0.00591042
0.0059953
0.00607111
0.00613761
0.00619469
0.00624231
0.00628051
0.00630945
0.00632937
0.00634054
0.00634333
0.00633815
0.00632551
0.00630597
0.00628018
0.00624877
0.00621239
0.00617173
0.00612747
0.00608035
0.00603107
0.0059803
0.00592867
0.00587672
0.0058249
0.0057736
0.00572311
0.00567392
0.00562644
0.00557726
0.0055229
0.000405852
0.000302136
0.000220364
0.000153512
9.38364e-05
4.14721e-05
-3.37445e-06
-4.1064e-05
-7.1948e-05
-9.62969e-05
-0.000114362
-0.000126385
-0.000132576
-0.000133123
-0.000128213
-0.000118016
-0.000102669
-8.22825e-05
-5.69622e-05
-2.68172e-05
8.06644e-06
4.76444e-05
9.18987e-05
0.000140805
0.000194326
0.000252438
0.00031515
0.000382489
0.000454468
0.000531077
0.000612304
0.000698159
0.000788671
0.000883857
0.000983703
0.00108818
0.00119727
0.00131097
0.00142927
0.00155212
0.00167944
0.00181108
0.00194695
0.00208688
0.00223072
0.00237824
0.00252918
0.00268322
0.00284008
0.00299943
0.00316091
0.00332407
0.00348844
0.00365352
0.00381877
0.00398369
0.00414771
0.00431024
0.00447063
0.00462823
0.0047824
0.0049325
0.00507787
0.00521785
0.00535176
0.00547896
0.00559882
0.00571082
0.00581452
0.00590951
0.00599545
0.00607202
0.00613898
0.0061962
0.00624365
0.00628138
0.00630953
0.00632833
0.00633808
0.00633913
0.00633194
0.00631703
0.00629501
0.00626653
0.00623225
0.00619283
0.00614898
0.00610143
0.00605093
0.00599824
0.00594404
0.00588898
0.00583363
0.00577848
0.00572394
0.00567034
0.00561819
0.00556795
0.0055161
0.005459
0.000389368
0.000280496
0.000194674
0.000124567
6.20406e-05
7.19765e-06
-3.97603e-05
-7.92133e-05
-0.000111556
-0.000137116
-0.000156178
-0.000169007
-0.000175853
-0.000176952
-0.00017252
-0.000162738
-0.000147753
-0.000127706
-0.000102733
-7.29496e-05
-3.84234e-05
8.05986e-07
4.46966e-05
9.31975e-05
0.000146273
0.000203924
0.00026617
0.000333025
0.000404487
0.00048055
0.000561231
0.000646569
0.000736597
0.000831323
0.000930731
0.00103482
0.0011436
0.0012571
0.00137529
0.00149813
0.00162552
0.00175737
0.00189359
0.00203404
0.00217854
0.00232687
0.00247876
0.00263393
0.00279211
0.00295296
0.0031161
0.00328109
0.00344744
0.00361465
0.00378222
0.00394959
0.00411619
0.00428137
0.00444448
0.00460485
0.00476183
0.00491476
0.00506294
0.00520565
0.00534218
0.00547186
0.00559403
0.00570816
0.00581376
0.00591039
0.00599766
0.00607522
0.00614283
0.00620035
0.00624775
0.00628507
0.00631245
0.00633011
0.00633834
0.00633754
0.00632817
0.0063108
0.00628606
0.00625462
0.00621716
0.00617438
0.00612701
0.00607584
0.00602165
0.00596522
0.00590728
0.00584851
0.00578951
0.00573082
0.00567288
0.00561605
0.00556091
0.00550796
0.00545357
0.00539401
0.000363206
0.000249442
0.000159754
8.65083e-05
2.12227e-05
-3.60137e-05
-8.50257e-05
-0.00012623
-0.000160049
-0.000186838
-0.000206918
-0.000220594
-0.000228162
-0.000229887
-0.000225997
-0.000216686
-0.000202136
-0.00018252
-0.000157983
-0.000128622
-9.44998e-05
-5.56814e-05
-1.22348e-05
3.57897e-05
8.83794e-05
0.000145547
0.000207303
0.000273642
0.000344564
0.000420087
0.000500259
0.000585125
0.000674707
0.00076901
0.000868042
0.00097183
0.00108042
0.00119382
0.00131201
0.00143494
0.00156256
0.00169479
0.00183155
0.00197271
0.00211808
0.00226743
0.00242052
0.0025771
0.00273689
0.00289955
0.00306468
0.00323183
0.00340053
0.00357029
0.00374058
0.00391083
0.00408043
0.00424871
0.00441498
0.00457859
0.00473885
0.00489507
0.00504651
0.0051924
0.00533199
0.00546457
0.00558949
0.00570615
0.00581402
0.00591261
0.00600149
0.0060803
0.00614878
0.00620679
0.00625428
0.00629129
0.00631794
0.00633444
0.00634109
0.00633832
0.00632662
0.0063066
0.0062789
0.00624423
0.0062033
0.00615684
0.00610565
0.00605052
0.0059923
0.00593182
0.00586983
0.00580706
0.00574415
0.00568169
0.00562016
0.00555999
0.0055018
0.00544614
0.00538931
0.00532751
0.000326915
0.000208518
0.000115159
3.88985e-05
-2.90559e-05
-8.86145e-05
-0.000139634
-0.000182568
-0.000217856
-0.000245876
-0.000266996
-0.000281569
-0.000289917
-0.000292317
-0.000289016
-0.000280243
-0.000266213
-0.00024711
-0.000223064
-0.00019417
-0.000160517
-0.000122192
-7.92676e-05
-3.17708e-05
2.03007e-05
7.69504e-05
0.000138168
0.000203949
0.000274315
0.000349315
0.000429002
0.000513414
0.000602566
0.000696482
0.0007952
0.000898774
0.00100725
0.00112064
0.00123892
0.00136207
0.00149005
0.00162282
0.00176029
0.00190233
0.00204874
0.00219933
0.00235387
0.00251211
0.00267379
0.00283854
0.00300596
0.00317561
0.00334703
0.00351974
0.00369317
0.00386672
0.00403974
0.00421156
0.00438146
0.00454878
0.0047128
0.00487279
0.00502795
0.00517747
0.00532058
0.00545653
0.00558464
0.00570425
0.00581478
0.00591569
0.00600651
0.00608685
0.00615646
0.00621517
0.00626292
0.00629972
0.00632568
0.00634102
0.00634606
0.00634123
0.00632707
0.00630421
0.00627334
0.00623518
0.00619048
0.00614004
0.00608468
0.00602527
0.0059627
0.00589783
0.00583147
0.0057644
0.0056973
0.00563083
0.00556551
0.00550184
0.00544051
0.00538212
0.00532291
0.00525902
0.000280111
0.000157307
6.04627e-05
-1.86746e-05
-8.92104e-05
-0.000151038
-0.000204019
-0.000248643
-0.000285377
-0.000314638
-0.000336834
-0.000352346
-0.000361508
-0.000364622
-0.000361968
-0.000353812
-0.000340377
-0.000321837
-0.000298325
-0.00026996
-0.000236857
-0.000199108
-0.000156763
-0.000109833
-5.83246e-05
-2.25384e-06
5.83669e-05
0.000123555
0.00019336
0.000267841
0.000347041
0.000430992
0.000519722
0.000613285
0.000711748
0.000815173
0.0009236
0.00103704
0.00115549
0.00127896
0.00140744
0.00154088
0.0016792
0.00182226
0.00196989
0.0021219
0.00227811
0.00243827
0.00260208
0.00276919
0.0029392
0.00311169
0.00328621
0.00346225
0.00363921
0.00381647
0.00399335
0.00416915
0.00434316
0.00451467
0.00468294
0.00484718
0.00500654
0.00516018
0.0053073
0.00544711
0.00557887
0.00570188
0.00581548
0.0059191
0.00601221
0.00609442
0.00616544
0.00622509
0.00627328
0.00631001
0.00633537
0.00634958
0.00635298
0.00634602
0.00632929
0.00630343
0.00626917
0.00622727
0.00617852
0.00612378
0.00606394
0.00599991
0.00593264
0.00586304
0.00579199
0.00572029
0.0056487
0.00557793
0.00550861
0.00544127
0.00537667
0.00531547
0.00525388
0.00518798
0.000222478
9.54434e-05
-4.7384e-06
-8.66253e-05
-0.000159652
-0.000223685
-0.000278571
-0.000324842
-0.000363013
-0.000393534
-0.000416834
-0.000433307
-0.000443314
-0.000447193
-0.000445259
-0.000437785
-0.000424992
-0.000407056
-0.000384136
-0.000356381
-0.000323911
-0.000286797
-0.000245074
-0.000198763
-0.000147887
-9.24677e-05
-3.24949e-05
3.20758e-05
0.000101305
0.000175243
0.000253927
0.000337396
0.000425711
0.000518952
0.000617196
0.000720503
0.000828912
0.000942449
0.00106114
0.00118503
0.0013141
0.00144832
0.00158759
0.0017318
0.0018808
0.00203443
0.00219251
0.00235478
0.00252096
0.00269069
0.00286359
0.00303925
0.00321722
0.00339696
0.00357784
0.00375921
0.00394038
0.00412062
0.00429922
0.00447543
0.00464844
0.00481741
0.00498148
0.00513976
0.0052914
0.00543558
0.0055715
0.00569838
0.0058155
0.00592224
0.00601805
0.00610249
0.00617525
0.00623612
0.00628498
0.0063218
0.00634667
0.00635981
0.00636157
0.00635245
0.00633305
0.00630404
0.00626619
0.00622029
0.00616722
0.00610787
0.00604321
0.00597421
0.0059019
0.00582722
0.00575111
0.00567443
0.00559803
0.00552268
0.00544908
0.00537785
0.00530981
0.00524568
0.00518165
0.00511374
0.000153705
2.25851e-05
-8.08212e-05
-0.00016535
-0.000240762
-0.000306917
-0.000363659
-0.000411556
-0.000451163
-0.000482952
-0.000507364
-0.000524821
-0.00053572
-0.00054043
-0.000539275
-0.000532526
-0.000520411
-0.000503136
-0.000480889
-0.000453826
-0.000422048
-0.000385616
-0.000344571
-0.000298953
-0.000248793
-0.000194089
-0.000134805
-7.08848e-05
-2.27425e-06
7.10676e-05
0.000149188
0.000232154
0.000320054
0.00041298
0.000511009
0.000614197
0.000722598
0.000836265
0.000955258
0.00107962
0.00120936
0.00134442
0.00148473
0.0016302
0.0017807
0.00193611
0.00209623
0.00226081
0.00242955
0.00260215
0.00277822
0.00295737
0.00313911
0.0033229
0.00350807
0.00369395
0.00387984
0.004065
0.00424868
0.00443007
0.00460833
0.00478256
0.00495187
0.00511532
0.00527204
0.00542114
0.00556174
0.005693
0.00581414
0.00592447
0.00602342
0.00611051
0.00618539
0.0062478
0.00629759
0.0063347
0.00635922
0.00637138
0.00637156
0.00636026
0.00633811
0.00630582
0.00626418
0.00621406
0.00615637
0.0060921
0.00602227
0.00594797
0.00587023
0.00579009
0.00570853
0.00562651
0.00554493
0.00546467
0.00538651
0.00531113
0.00523941
0.00517216
0.00510555
0.00503556
7.34477e-05
-6.1603e-05
-0.000168122
-0.000255195
-0.00033289
-0.000401094
-0.000459656
-0.000509168
-0.000550203
-0.000583253
-0.000608788
-0.000627267
-0.000639115
-0.000644707
-0.000644368
-0.000638379
-0.000627
-0.000610467
-0.000588975
-0.000562664
-0.000531626
-0.000495932
-0.000455646
-0.000410813
-0.000361443
-0.000307509
-0.000248962
-0.000185752
-0.000117834
-4.51586e-05
3.23481e-05
0.000114782
0.000202244
0.000294828
0.000392608
0.000495651
0.000604037
0.000717851
0.000837169
0.000962038
0.00109246
0.0012284
0.00136981
0.00151663
0.00166875
0.00182606
0.00198835
0.00215539
0.0023269
0.00250258
0.00268208
0.00286499
0.00305082
0.00323897
0.00342879
0.00361958
0.00381062
0.00400116
0.0041904
0.00437749
0.00456152
0.00474156
0.00491666
0.00508587
0.00524825
0.00540284
0.00554868
0.00568488
0.00581057
0.00592504
0.00602763
0.00611784
0.00619526
0.00625957
0.00631059
0.00634825
0.00637262
0.00638395
0.00638262
0.00636917
0.00634422
0.00630853
0.00626293
0.00620834
0.00614575
0.00607625
0.00600093
0.00592093
0.00583737
0.00575136
0.00566394
0.00557616
0.00548902
0.00540349
0.00532042
0.00524057
0.00516489
0.00509427
0.00502487
0.00495264
-1.86278e-05
-0.000157438
-0.000266947
-0.000356475
-0.000436385
-0.000506586
-0.000566934
-0.000618032
-0.000660475
-0.000694787
-0.000721476
-0.000741022
-0.000753859
-0.000760362
-0.000760872
-0.000755702
-0.00074514
-0.000729429
-0.000708753
-0.000683244
-0.000653008
-0.00061814
-0.000578708
-0.000534742
-0.000486227
-0.000433124
-0.00037539
-0.000312983
-0.00024585
-0.000173916
-9.70799e-05
-1.52292e-05
7.17387e-05
0.000163914
0.000261381
0.000364233
0.000472579
0.000586524
0.000706148
0.000831502
0.000962596
0.00109942
0.00124197
0.0013902
0.00154402
0.0017033
0.00186786
0.00203748
0.00221192
0.00239089
0.00257404
0.00276096
0.00295113
0.00314395
0.00333874
0.00353482
0.00373145
0.00392784
0.00412312
0.0043164
0.00450674
0.00469314
0.00487464
0.00505022
0.00521887
0.00537956
0.00553126
0.00567299
0.00580385
0.00592304
0.00602985
0.00612371
0.00620414
0.00627079
0.00632341
0.00636192
0.00638641
0.0063971
0.00639441
0.00637885
0.00635109
0.00631191
0.00626218
0.00620291
0.00613517
0.00606012
0.00597895
0.00589287
0.00580308
0.00571075
0.00561703
0.00552306
0.00542994
0.00533872
0.00525034
0.00516563
0.00508563
0.00501132
0.00493887
0.00486414
-0.000122824
-0.00026523
-0.000377611
-0.000469524
-0.000551597
-0.000623748
-0.000685833
-0.000738481
-0.000782323
-0.000817917
-0.00084579
-0.00086643
-0.000880274
-0.000887719
-0.000889135
-0.000884865
-0.000875201
-0.000860374
-0.000840565
-0.000815925
-0.000786583
-0.000752641
-0.000714155
-0.00067113
-0.000623543
-0.000571359
-0.000514546
-0.000453052
-0.000386802
-0.000315691
-0.000239602
-0.00015842
-7.20436e-05
1.96248e-05
0.000116693
0.000219285
0.000327532
0.000441547
0.000561411
0.000687184
0.000818905
0.0009566
0.00110028
0.00124993
0.00140547
0.00156676
0.00173365
0.00190595
0.00208344
0.00226585
0.00245283
0.00264395
0.00283868
0.00303643
0.00323652
0.00343826
0.00364088
0.00384355
0.00404535
0.00424534
0.00444252
0.00463588