/*--------------------------------*- C++ -*----------------------------------*\
  =========                 |
  \\      /  F ield         | OpenFOAM: The Open Source CFD Toolbox
   \\    /   O peration     | Website:  https://openfoam.org
    \\  /    A nd           | Version:  7
     \\/     M anipulation  |
\*---------------------------------------------------------------------------*/
FoamFile
{
    version     2.0;
    format      ascii;
    class       surfaceScalarField;
    location    "0.3125";
    object      phi;
}
// * * * * * * * * * * * * * * * * * * * * * * * * * * * * * * * * * * * * * //

dimensions      [0 3 -1 0 0 0 0];

internalField   nonuniform List<scalar> 
19800
(
6.68663e-11
-6.68937e-11
1.62518e-10
-9.56573e-11
2.20035e-10
-5.75106e-11
2.01045e-10
1.89838e-11
9.41118e-11
1.06935e-10
-1.01434e-10
1.95541e-10
-3.81224e-10
2.79793e-10
-7.38918e-10
3.57676e-10
-1.16701e-09
4.28098e-10
-1.65797e-09
4.90965e-10
-2.20437e-09
5.46391e-10
-2.79912e-09
5.94758e-10
-3.43564e-09
6.36508e-10
-4.10775e-09
6.72131e-10
-4.80993e-09
7.02177e-10
-5.53704e-09
7.2711e-10
-6.28442e-09
7.47378e-10
-7.04788e-09
7.63467e-10
-7.82371e-09
7.75825e-10
-8.60849e-09
7.84791e-10
-9.39921e-09
7.90718e-10
-1.01931e-08
7.93902e-10
-1.09877e-08
7.94549e-10
-1.17805e-08
7.92878e-10
-1.25697e-08
7.89134e-10
-1.33532e-08
7.83473e-10
-1.41291e-08
7.75962e-10
-1.48958e-08
7.66688e-10
-1.56516e-08
7.55764e-10
-1.63948e-08
7.43221e-10
-1.71238e-08
7.29032e-10
-1.7837e-08
7.13207e-10
-1.85328e-08
6.9577e-10
-1.92095e-08
6.76695e-10
-1.98654e-08
6.55915e-10
-2.04988e-08
6.33379e-10
-2.11079e-08
6.09067e-10
-2.16908e-08
5.82938e-10
-2.22457e-08
5.54909e-10
-2.27706e-08
5.24908e-10
-2.32635e-08
4.92907e-10
-2.37224e-08
4.5889e-10
-2.41452e-08
4.22832e-10
-2.45299e-08
3.84701e-10
-2.48744e-08
3.4449e-10
-2.51767e-08
3.02228e-10
-2.54346e-08
2.57964e-10
-2.56464e-08
2.11747e-10
-2.581e-08
1.63622e-10
-2.59237e-08
1.13662e-10
-2.59857e-08
6.20015e-11
-2.59945e-08
8.80336e-12
-2.59487e-08
-4.5761e-11
-2.58472e-08
-1.01507e-10
-2.5689e-08
-1.58223e-10
-2.54733e-08
-2.15656e-10
-2.51998e-08
-2.7351e-10
-2.48683e-08
-3.31475e-10
-2.44791e-08
-3.89248e-10
-2.40326e-08
-4.4651e-10
-2.35297e-08
-5.0291e-10
-2.29716e-08
-5.58059e-10
-2.236e-08
-6.11562e-10
-2.1697e-08
-6.63039e-10
-2.09849e-08
-7.12113e-10
-2.02265e-08
-7.58391e-10
-1.9425e-08
-8.01475e-10
-1.8584e-08
-8.40976e-10
-1.77075e-08
-8.76525e-10
-1.67997e-08
-9.07781e-10
-1.58653e-08
-9.34426e-10
-1.49091e-08
-9.5617e-10
-1.39364e-08
-9.72737e-10
-1.29525e-08
-9.83878e-10
-1.19631e-08
-9.89389e-10
-1.0974e-08
-9.89121e-10
-9.99102e-09
-9.82972e-10
-9.02014e-09
-9.7088e-10
-8.06732e-09
-9.52816e-10
-7.13853e-09
-9.28791e-10
-6.23966e-09
-8.98865e-10
-5.37651e-09
-8.6315e-10
-4.5547e-09
-8.21805e-10
-3.77968e-09
-7.75025e-10
-3.05663e-09
-7.23043e-10
-2.3905e-09
-6.66131e-10
-1.78589e-09
-6.0461e-10
-1.24705e-09
-5.38853e-10
-7.7775e-10
-4.69301e-10
-3.81263e-10
-3.96488e-10
-6.01874e-11
-3.21076e-10
1.83719e-10
-2.4391e-10
3.49823e-10
-1.66111e-10
4.391e-10
-8.92833e-11
4.5501e-10
-1.59096e-11
4.04842e-10
5.01722e-11
3.0206e-10
1.02783e-10
1.70256e-10
1.31789e-10
5.00694e-11
1.20153e-10
5.00376e-11
9.40386e-11
-1.60935e-10
1.77875e-10
-1.79485e-10
1.45162e-10
-2.47876e-11
-6.37474e-11
2.27907e-10
-4.7931e-10
5.22493e-10
-1.10987e-09
8.26115e-10
-1.95163e-09
1.12155e-09
-2.99328e-09
1.39935e-09
-4.21989e-09
1.65468e-09
-5.61441e-09
1.8855e-09
-7.15933e-09
2.09132e-09
-8.83729e-09
2.27268e-09
-1.06314e-08
2.4306e-09
-1.25257e-08
2.56648e-09
-1.45055e-08
2.68194e-09
-1.65569e-08
2.77852e-09
-1.86673e-08
2.85778e-09
-2.08252e-08
2.9213e-09
-2.30198e-08
2.97048e-09
-2.52417e-08
3.00665e-09
-2.7482e-08
3.03104e-09
-2.97328e-08
3.04468e-09
-3.19867e-08
3.04844e-09
-3.4237e-08
3.04317e-09
-3.64774e-08
3.02961e-09
-3.87023e-08
3.00831e-09
-4.0906e-08
2.97966e-09
-4.30833e-08
2.94404e-09
-4.52293e-08
2.90176e-09
-4.73391e-08
2.85296e-09
-4.94078e-08
2.7977e-09
-5.14306e-08
2.73604e-09
-5.34028e-08
2.66798e-09
-5.53195e-08
2.59343e-09
-5.71759e-08
2.51225e-09
-5.89668e-08
2.42433e-09
-6.06873e-08
2.32954e-09
-6.23321e-08
2.2277e-09
-6.38958e-08
2.11863e-09
-6.5373e-08
2.00214e-09
-6.67582e-08
1.8781e-09
-6.80457e-08
1.74642e-09
-6.92299e-08
1.60704e-09
-7.03052e-08
1.45991e-09
-7.12657e-08
1.30503e-09
-7.2106e-08
1.14252e-09
-7.28205e-08
9.7252e-10
-7.34041e-08
7.95245e-10
-7.38514e-08
6.10956e-10
-7.41577e-08
4.20012e-10
-7.43186e-08
2.22886e-10
-7.433e-08
2.01565e-11
-7.41882e-08
-1.87524e-10
-7.38903e-08
-3.99424e-10
-7.34338e-08
-6.14702e-10
-7.2817e-08
-8.3241e-10
-7.2039e-08
-1.05151e-09
-7.10996e-08
-1.27088e-09
-6.99995e-08
-1.48936e-09
-6.87403e-08
-1.7057e-09
-6.73247e-08
-1.91858e-09
-6.57561e-08
-2.1266e-09
-6.40393e-08
-2.32836e-09
-6.218e-08
-2.5224e-09
-6.01848e-08
-2.70729e-09
-5.80616e-08
-2.88158e-09
-5.58192e-08
-3.04382e-09
-5.34676e-08
-3.1926e-09
-5.10176e-08
-3.32657e-09
-4.84809e-08
-3.44444e-09
-4.58703e-08
-3.54504e-09
-4.31992e-08
-3.62725e-09
-4.04818e-08
-3.69009e-09
-3.7733e-08
-3.7327e-09
-3.49681e-08
-3.75433e-09
-3.22028e-08
-3.75444e-09
-2.94531e-08
-3.7326e-09
-2.67354e-08
-3.68858e-09
-2.40659e-08
-3.62228e-09
-2.1461e-08
-3.53378e-09
-1.89365e-08
-3.42332e-09
-1.65083e-08
-3.29132e-09
-1.41917e-08
-3.13838e-09
-1.20015e-08
-2.96526e-09
-9.95167e-09
-2.77288e-09
-8.05544e-09
-2.56237e-09
-6.32503e-09
-2.33503e-09
-4.77147e-09
-2.09241e-09
-3.4044e-09
-1.83637e-09
-2.23175e-09
-1.56914e-09
-1.25934e-09
-1.29349e-09
-4.9033e-10
-1.01293e-09
7.56644e-11
-7.32115e-10
4.43772e-10
-4.57398e-10
6.25557e-10
-1.97703e-10
6.41712e-10
3.40132e-11
5.25561e-10
2.18953e-10
3.27612e-10
3.29798e-10
1.19578e-10
3.28266e-10
1.69593e-10
4.83662e-11
-2.09295e-10
1.16072e-11
-1.4272e-10
-2.21764e-10
2.08587e-10
-7.19002e-10
7.25151e-10
-1.51539e-09
1.31889e-09
-2.62399e-09
1.9347e-09
-4.04193e-09
2.53951e-09
-5.75627e-09
3.11366e-09
-7.74776e-09
3.6462e-09
-9.9937e-09
4.13143e-09
-1.24697e-08
4.56728e-09
-1.51508e-08
4.95382e-09
-1.80127e-08
5.29247e-09
-2.10317e-08
5.58554e-09
-2.41856e-08
5.83584e-09
-2.74534e-08
6.04634e-09
-3.08157e-08
6.22006e-09
-3.42545e-08
6.36004e-09
-3.77531e-08
6.46911e-09
-4.12964e-08
6.54996e-09
-4.48704e-08
6.60503e-09
-4.84622e-08
6.63648e-09
-5.206e-08
6.64624e-09
-5.56529e-08
6.63603e-09
-5.92306e-08
6.60733e-09
-6.27836e-08
6.56131e-09
-6.63029e-08
6.49895e-09
-6.97799e-08
6.42105e-09
-7.32063e-08
6.32819e-09
-7.65741e-08
6.22074e-09
-7.98754e-08
6.09895e-09
-8.31022e-08
5.96293e-09
-8.6247e-08
5.81269e-09
-8.93016e-08
5.64808e-09
-9.22583e-08
5.46891e-09
-9.51089e-08
5.27495e-09
-9.78453e-08
5.06592e-09
-1.00459e-07
4.84151e-09
-1.02942e-07
4.60137e-09
-1.05285e-07
4.3452e-09
-1.0748e-07
4.07276e-09
-1.09517e-07
3.78388e-09
-1.11388e-07
3.47842e-09
-1.13085e-07
3.15636e-09
-1.14598e-07
2.81777e-09
-1.15918e-07
2.46288e-09
-1.17037e-07
2.09204e-09
-1.17948e-07
1.70573e-09
-1.18642e-07
1.3046e-09
-1.19111e-07
8.89485e-10
-1.1935e-07
4.61413e-10
-1.19351e-07
2.16154e-11
-1.1911e-07
-4.28488e-10
-1.18622e-07
-8.87292e-10
-1.17884e-07
-1.35299e-09
-1.16893e-07
-1.82356e-09
-1.15647e-07
-2.29678e-09
-1.14148e-07
-2.77029e-09
-1.12396e-07
-3.24156e-09
-1.10394e-07
-3.70792e-09
-1.08146e-07
-4.16655e-09
-1.05658e-07
-4.61451e-09
-1.02937e-07
-5.04878e-09
-9.99934e-08
-5.46632e-09
-9.68366e-08
-5.86405e-09
-9.34793e-08
-6.23888e-09
-8.99354e-08
-6.58778e-09
-8.62202e-08
-6.90776e-09
-8.23508e-08
-7.19597e-09
-7.83455e-08
-7.4497e-09
-7.42241e-08
-7.66643e-09
-7.00076e-08
-7.84382e-09
-6.57178e-08
-7.97981e-09
-6.1378e-08
-8.07256e-09
-5.70118e-08
-8.12056e-09
-5.26436e-08
-8.1226e-09
-4.82984e-08
-8.07781e-09
-4.40013e-08
-7.98568e-09
-3.97775e-08
-7.84603e-09
-3.56523e-08
-7.65904e-09
-3.16503e-08
-7.42527e-09
-2.7796e-08
-7.14564e-09
-2.41129e-08
-6.82148e-09
-2.06237e-08
-6.45446e-09
-1.73499e-08
-6.04667e-09
-1.43117e-08
-5.60063e-09
-1.15274e-08
-5.11931e-09
-9.01358e-09
-4.60625e-09
-6.78431e-09
-4.06565e-09
-4.85084e-09
-3.50261e-09
-3.22096e-09
-2.92338e-09
-1.8981e-09
-2.3358e-09
-8.80229e-10
-1.74999e-09
-1.58307e-10
-1.17932e-09
2.85791e-10
-6.41807e-10
4.81913e-10
-1.62133e-10
4.75067e-10
2.2576e-10
3.29105e-10
4.75731e-10
1.30623e-10
5.26785e-10
3.00208e-10
-2.39808e-11
-1.85319e-10
-2.38837e-10
7.21458e-11
-7.40798e-10
7.10558e-10
-1.58975e-09
1.5741e-09
-2.81884e-09
2.54797e-09
-4.44021e-09
3.5561e-09
-6.45026e-09
4.54953e-09
-8.83425e-09
5.49766e-09
-1.15701e-08
6.38208e-09
-1.46312e-08
7.1925e-09
-1.79883e-08
7.92435e-09
-2.16111e-08
8.57666e-09
-2.54696e-08
9.15088e-09
-2.95341e-08
9.65012e-09
-3.37766e-08
1.00783e-08
-3.81702e-08
1.04399e-08
-4.26898e-08
1.07396e-08
-4.73119e-08
1.09821e-08
-5.20147e-08
1.11719e-08
-5.67781e-08
1.13134e-08
-6.15834e-08
1.14103e-08
-6.64134e-08
1.14665e-08
-7.12521e-08
1.14849e-08
-7.60846e-08
1.14685e-08
-8.0897e-08
1.14197e-08
-8.56762e-08
1.13405e-08
-9.04099e-08
1.12326e-08
-9.50862e-08
1.10974e-08
-9.96938e-08
1.09357e-08
-1.04221e-07
1.07484e-08
-1.08658e-07
1.05359e-08
-1.12994e-07
1.02985e-08
-1.17217e-07
1.00361e-08
-1.21318e-07
9.74864e-09
-1.25285e-07
9.43582e-09
-1.29107e-07
9.09731e-09
-1.32774e-07
8.73267e-09
-1.36274e-07
8.34143e-09
-1.39596e-07
7.92311e-09
-1.42728e-07
7.47728e-09
-1.45659e-07
7.00359e-09
-1.48376e-07
6.50176e-09
-1.5087e-07
5.97167e-09
-1.53127e-07
5.41331e-09
-1.55136e-07
4.82689e-09
-1.56886e-07
4.21283e-09
-1.58366e-07
3.5718e-09
-1.59564e-07
2.90467e-09
-1.60472e-07
2.2126e-09
-1.6108e-07
1.49708e-09
-1.61379e-07
7.59917e-10
-1.6136e-07
3.22529e-12
-1.61018e-07
-7.70565e-10
-1.60347e-07
-1.55869e-09
-1.59342e-07
-2.35804e-09
-1.58e-07
-3.16517e-09
-1.5632e-07
-3.97633e-09
-1.54303e-07
-4.78749e-09
-1.5195e-07
-5.59436e-09
-1.49266e-07
-6.39239e-09
-1.46256e-07
-7.17679e-09
-1.42928e-07
-7.94261e-09
-1.39292e-07
-8.68478e-09
-1.3536e-07
-9.39813e-09
-1.31146e-07
-1.00775e-08
-1.26668e-07
-1.07176e-08
-1.21942e-07
-1.13134e-08
-1.1699e-07
-1.18598e-08
-1.11834e-07
-1.23522e-08
-1.06498e-07
-1.27858e-08
-1.01008e-07
-1.31565e-08
-9.53911e-08
-1.34604e-08
-8.96771e-08
-1.36939e-08
-8.38956e-08
-1.3854e-08
-7.8078e-08
-1.39382e-08
-7.22561e-08
-1.39445e-08
-6.64626e-08
-1.38713e-08
-6.07303e-08
-1.37179e-08
-5.50923e-08
-1.3484e-08
-4.95814e-08
-1.317e-08
-4.42299e-08
-1.27767e-08
-3.90696e-08
-1.2306e-08
-3.41311e-08
-1.176e-08
-2.94438e-08
-1.11418e-08
-2.50355e-08
-1.0455e-08
-2.09321e-08
-9.70404e-09
-1.71571e-08
-8.89429e-09
-1.37314e-08
-8.03199e-09
-1.06724e-08
-7.1246e-09
-7.99395e-09
-6.18107e-09
-5.70502e-09
-5.21231e-09
-3.80902e-09
-4.23181e-09
-2.30246e-09
-3.25655e-09
-1.1734e-09
-2.30837e-09
-3.99472e-10
-1.41572e-09
5.447e-11
-6.16059e-10
2.39307e-10
4.09167e-11
2.24556e-10
4.9045e-10
1.02719e-10
6.4863e-10
4.02926e-10
-1.09067e-10
-7.62475e-11
-5.33131e-10
4.96205e-10
-1.34271e-09
1.52014e-09
-2.58272e-09
2.8141e-09
-4.2779e-09
4.24316e-09
-6.43552e-09
5.7137e-09
-9.04869e-09
7.16271e-09
-1.21e-08
8.54901e-09
-1.55646e-08
9.84665e-09
-1.94126e-08
1.10405e-08
-2.36112e-08
1.21229e-08
-2.8126e-08
1.30915e-08
-3.29226e-08
1.39474e-08
-3.79668e-08
1.46943e-08
-4.32256e-08
1.53372e-08
-4.86676e-08
1.58819e-08
-5.4263e-08
1.6335e-08
-5.99836e-08
1.67027e-08
-6.58032e-08
1.69916e-08
-7.16974e-08
1.72075e-08
-7.76433e-08
1.73563e-08
-8.36199e-08
1.7443e-08
-8.96073e-08
1.74723e-08
-9.5587e-08
1.74483e-08
-1.01542e-07
1.73745e-08
-1.07455e-07
1.7254e-08
-1.13312e-07
1.70893e-08
-1.19097e-07
1.68823e-08
-1.24796e-07
1.66346e-08
-1.30395e-07
1.63473e-08
-1.3588e-07
1.60212e-08
-1.41238e-07
1.56566e-08
-1.46456e-07
1.52537e-08
-1.51519e-07
1.48123e-08
-1.56415e-07
1.4332e-08
-1.61131e-07
1.38126e-08
-1.65651e-07
1.32533e-08
-1.69963e-07
1.26535e-08
-1.74053e-07
1.20127e-08
-1.77906e-07
1.13303e-08
-1.81508e-07
1.06058e-08
-1.84845e-07
9.83889e-09
-1.87903e-07
9.0295e-09
-1.90668e-07
8.17769e-09
-1.93124e-07
7.28387e-09
-1.9526e-07
6.34876e-09
-1.97062e-07
5.37338e-09
-1.98517e-07
4.35915e-09
-1.99612e-07
3.30791e-09
-2.00337e-07
2.22196e-09
-2.00681e-07
1.10405e-09
-2.00635e-07
-4.2611e-11
-2.00191e-07
-1.21433e-09
-1.99343e-07
-2.4069e-09
-1.98085e-07
-3.61563e-09
-1.96415e-07
-4.83536e-09
-1.94331e-07
-6.06047e-09
-1.91834e-07
-7.28491e-09
-1.88926e-07
-8.50223e-09
-1.85613e-07
-9.70564e-09
-1.81901e-07
-1.0888e-08
-1.77802e-07
-1.20419e-08
-1.73327e-07
-1.31598e-08
-1.68491e-07
-1.4234e-08
-1.63312e-07
-1.52567e-08
-1.57809e-07
-1.62203e-08
-1.52005e-07
-1.71171e-08
-1.45926e-07
-1.79397e-08
-1.39597e-07
-1.8681e-08
-1.33048e-07
-1.93343e-08
-1.26312e-07
-1.98931e-08
-1.1942e-07
-2.03518e-08
-1.12409e-07
-2.07052e-08
-1.05314e-07
-2.09487e-08
-9.81739e-08
-2.10786e-08
-9.10264e-08
-2.10919e-08
-8.39112e-08
-2.09866e-08
-7.68679e-08
-2.07613e-08
-6.99362e-08
-2.04157e-08
-6.31556e-08
-1.99505e-08
-5.65651e-08
-1.93673e-08
-5.02026e-08
-1.86684e-08
-4.4105e-08
-1.78576e-08
-3.83073e-08
-1.69395e-08
-3.28426e-08
-1.59197e-08
-2.77415e-08
-1.48051e-08
-2.30319e-08
-1.36039e-08
-1.8738e-08
-1.23259e-08
-1.48801e-08
-1.09825e-08
-1.14739e-08
-9.58731e-09
-8.52925e-09
-8.15693e-09
-6.04967e-09
-6.71138e-09
-4.03078e-09
-5.27545e-09
-2.45893e-09
-3.88023e-09
-1.30957e-09
-2.56509e-09
-5.45217e-10
-1.3804e-09
-1.13392e-10
-3.90899e-10
5.60968e-11
3.20945e-10
5.4155e-11
6.50568e-10
4.57082e-10
-1.98435e-10
1.22182e-10
-8.45425e-10
1.14321e-09
-1.98192e-09
2.65663e-09
-3.63394e-09
4.46615e-09
-5.81375e-09
6.42296e-09
-8.52045e-09
8.42041e-09
-1.17418e-08
1.0384e-08
-1.54563e-08
1.22635e-08
-1.96357e-08
1.40261e-08
-2.42471e-08
1.56519e-08
-2.92544e-08
1.71302e-08
-3.462e-08
1.84571e-08
-4.03058e-08
1.96332e-08
-4.6274e-08
2.06625e-08
-5.24879e-08
2.1551e-08
-5.8912e-08
2.23061e-08
-6.55127e-08
2.29356e-08
-7.2258e-08
2.3448e-08
-7.91179e-08
2.38514e-08
-8.60641e-08
2.41538e-08
-9.30705e-08
2.43626e-08
-1.00112e-07
2.44847e-08
-1.07166e-07
2.45262e-08
-1.1421e-07
2.44927e-08
-1.21225e-07
2.4389e-08
-1.2819e-07
2.42192e-08
-1.35087e-07
2.39867e-08
-1.41899e-07
2.36943e-08
-1.48609e-07
2.3344e-08
-1.55199e-07
2.29376e-08
-1.61654e-07
2.2476e-08
-1.67957e-07
2.19599e-08
-1.74093e-07
2.13896e-08
-1.80046e-07
2.07648e-08
-1.85799e-07
2.00853e-08
-1.91337e-07
1.93505e-08
-1.96643e-07
1.85598e-08
-2.01702e-07
1.77123e-08
-2.06497e-07
1.68073e-08
-2.11011e-07
1.58443e-08
-2.15228e-07
1.48226e-08
-2.19131e-07
1.37419e-08
-2.22703e-07
1.26022e-08
-2.25929e-07
1.14038e-08
-2.28793e-07
1.01472e-08
-2.31277e-07
8.83351e-09
-2.33368e-07
7.46436e-09
-2.35051e-07
6.04175e-09
-2.36311e-07
4.56834e-09
-2.37137e-07
3.0474e-09
-2.37516e-07
1.48279e-09
-2.37437e-07
-1.20973e-10
-2.36893e-07
-1.7587e-09
-2.35875e-07
-3.42452e-09
-2.34379e-07
-5.11192e-09
-2.32401e-07
-6.81371e-09
-2.29939e-07
-8.5221e-09
-2.26995e-07
-1.02287e-08
-2.23573e-07
-1.19246e-08
-2.19678e-07
-1.36004e-08
-2.1532e-07
-1.52463e-08
-2.10509e-07
-1.6852e-08
-2.05262e-07
-1.84072e-08
-1.99595e-07
-1.99012e-08
-1.93528e-07
-2.13234e-08
-1.87085e-07
-2.26631e-08
-1.80292e-07
-2.391e-08
-1.73178e-07
-2.50539e-08
-1.65774e-07
-2.60849e-08
-1.58115e-07
-2.69938e-08
-1.50236e-07
-2.7772e-08
-1.42176e-07
-2.84114e-08
-1.33976e-07
-2.89052e-08
-1.25678e-07
-2.9247e-08
-1.17325e-07
-2.94319e-08
-1.08961e-07
-2.94556e-08
-1.00632e-07
-2.93155e-08
-9.23835e-08
-2.90098e-08
-8.42611e-08
-2.85382e-08
-7.63101e-08
-2.79016e-08
-6.85751e-08
-2.71022e-08
-6.10997e-08
-2.61439e-08
-5.39257e-08
-2.50316e-08
-4.70933e-08
-2.37719e-08
-4.064e-08
-2.2373e-08
-3.46004e-08
-2.08446e-08
-2.90059e-08
-1.91984e-08
-2.38838e-08
-1.74481e-08
-1.92564e-08
-1.56098e-08
-1.51412e-08
-1.37026e-08
-1.15489e-08
-1.17492e-08
-8.48331e-09
-9.77695e-09
-5.93983e-09
-7.81893e-09
-3.90432e-09
-5.91575e-09
-2.35171e-09
-4.1177e-09
-1.24462e-09
-2.4875e-09
-5.31756e-10
-1.10376e-09
-1.46323e-10
-6.44966e-11
-4.11257e-12
5.08352e-10
4.52967e-10
-2.87064e-10
4.09248e-10
-1.15934e-09
2.0155e-09
-2.62868e-09
4.12598e-09
-4.70027e-09
6.53771e-09
-7.37148e-09
9.09419e-09
-1.06311e-08
1.168e-08
-1.44596e-08
1.42125e-08
-1.88302e-08
1.66341e-08
-2.37105e-08
1.89064e-08
-2.90641e-08
2.10055e-08
-3.48517e-08
2.29179e-08
-4.10328e-08
2.46381e-08
-4.75661e-08
2.61665e-08
-5.44108e-08
2.75073e-08
-6.1527e-08
2.86672e-08
-6.8876e-08
2.96551e-08
-7.64208e-08
3.04805e-08
-8.41264e-08
3.11536e-08
-9.19594e-08
3.16845e-08
-9.98885e-08
3.20829e-08
-1.07884e-07
3.23583e-08
-1.15919e-07
3.25192e-08
-1.23966e-07
3.25734e-08
-1.32001e-07
3.2528e-08
-1.40001e-07
3.23892e-08
-1.47944e-07
3.21621e-08
-1.55809e-07
3.18512e-08
-1.63575e-07
3.14601e-08
-1.71222e-07
3.09916e-08
-1.78732e-07
3.04477e-08
-1.86086e-07
2.98301e-08
-1.93266e-07
2.91394e-08
-2.00253e-07
2.83762e-08
-2.07028e-07
2.75403e-08
-2.13574e-07
2.66315e-08
-2.19873e-07
2.56491e-08
-2.25905e-07
2.45922e-08
-2.31653e-07
2.34602e-08
-2.37098e-07
2.22521e-08
-2.42221e-07
2.09672e-08
-2.47003e-07
1.96049e-08
-2.51426e-07
1.81649e-08
-2.55471e-07
1.66474e-08
-2.5912e-07
1.50526e-08
-2.62355e-07
1.33817e-08
-2.65158e-07
1.16362e-08
-2.67511e-07
9.81807e-09
-2.694e-07
7.93028e-09
-2.70808e-07
5.97638e-09
-2.71721e-07
3.96074e-09
-2.72127e-07
1.88852e-09
-2.72014e-07
-2.34277e-10
-2.71372e-07
-2.40078e-09
-2.70193e-07
-4.60322e-09
-2.68472e-07
-6.83301e-09
-2.66205e-07
-9.08071e-09
-2.63391e-07
-1.13361e-08
-2.60031e-07
-1.35881e-08
-2.56131e-07
-1.58251e-08
-2.51696e-07
-1.80348e-08
-2.46739e-07
-2.02042e-08
-2.4127e-07
-2.23202e-08
-2.35309e-07
-2.43689e-08
-2.28873e-07
-2.63368e-08
-2.21987e-07
-2.82097e-08
-2.14676e-07
-2.9974e-08
-2.0697e-07
-3.16159e-08
-1.98901e-07
-3.31223e-08
-1.90506e-07
-3.44805e-08
-1.81821e-07
-3.56783e-08
-1.72889e-07
-3.67045e-08
-1.63751e-07
-3.75489e-08
-1.54454e-07
-3.82023e-08
-1.45045e-07
-3.86566e-08
-1.35571e-07
-3.89054e-08
-1.26083e-07
-3.89434e-08
-1.16632e-07
-3.8767e-08
-1.07268e-07
-3.83741e-08
-9.80416e-08
-3.77643e-08
-8.90041e-08
-3.69391e-08
-8.02048e-08
-3.59015e-08
-7.16922e-08
-3.46565e-08
-6.35126e-08
-3.32111e-08
-5.57104e-08
-3.15741e-08
-4.83271e-08
-2.97564e-08
-4.14007e-08
-2.7771e-08
-3.49657e-08
-2.56335e-08
-2.90517e-08
-2.33621e-08
-2.36833e-08
-2.09782e-08
-1.88792e-08
-1.85067e-08
-1.46514e-08
-1.5977e-08
-1.10042e-08
-1.34242e-08
-7.93343e-09
-1.08897e-08
-5.42553e-09
-8.42365e-09
-3.4563e-09
-6.08693e-09
-1.99015e-09
-3.95366e-09
-9.7917e-10
-2.11475e-09
-3.62443e-10
-6.81229e-10
-6.54948e-11
2.114e-10
3.87469e-10
-3.72288e-10
7.81517e-10
-1.4659e-09
3.10914e-09
-3.26515e-09
5.9252e-09
-5.75426e-09
9.02682e-09
-8.91484e-09
1.22548e-08
-1.27239e-08
1.54891e-08
-1.71532e-08
1.86418e-08
-2.21695e-08
2.16504e-08
-2.77355e-08
2.44725e-08
-3.38109e-08
2.70808e-08
-4.0353e-08
2.946e-08
-4.73182e-08
3.16034e-08
-5.46625e-08
3.35108e-08
-6.23422e-08
3.5187e-08
-7.03148e-08
3.66397e-08
-7.85387e-08
3.7879e-08
-8.69744e-08
3.89161e-08
-9.55838e-08
3.9763e-08
-1.04331e-07
4.04316e-08
-1.13182e-07
4.09337e-08
-1.22104e-07
4.12805e-08
-1.31067e-07
4.14824e-08
-1.40043e-07
4.1549e-08
-1.49003e-07
4.14887e-08
-1.57923e-07
4.13092e-08
-1.66778e-07
4.10168e-08
-1.75544e-07
4.06172e-08
-1.84199e-07
4.01146e-08
-1.9272e-07
3.95127e-08
-2.01086e-07
3.88141e-08
-2.09277e-07
3.80208e-08
-2.17271e-07
3.71338e-08
-2.25049e-07
3.61537e-08
-2.32589e-07
3.50807e-08
-2.39872e-07
3.39142e-08
-2.46877e-07
3.26538e-08
-2.53583e-07
3.12985e-08
-2.5997e-07
2.98474e-08
-2.66018e-07
2.82996e-08
-2.71705e-07
2.66542e-08
-2.77011e-07
2.49108e-08
-2.81915e-07
2.30691e-08
-2.86397e-07
2.11293e-08
-2.90436e-07
1.90921e-08
-2.94013e-07
1.69589e-08
-2.97109e-07
1.47317e-08
-2.99704e-07
1.24134e-08
-3.01782e-07
1.00076e-08
-3.03324e-07
7.51911e-09
-3.04317e-07
4.95337e-09
-3.04745e-07
2.31704e-09
-3.04597e-07
-3.82208e-10
-3.03863e-07
-3.13563e-09
-3.02532e-07
-5.93339e-09
-3.00601e-07
-8.7646e-09
-2.98064e-07
-1.16173e-08
-2.94922e-07
-1.44786e-08
-2.91175e-07
-1.73346e-08
-2.8683e-07
-2.01706e-08
-2.81894e-07
-2.2971e-08
-2.76378e-07
-2.57197e-08
-2.70298e-07
-2.83998e-08
-2.63673e-07
-3.09945e-08
-2.56523e-07
-3.34862e-08
-2.48876e-07
-3.58575e-08
-2.40759e-07
-3.8091e-08
-2.32205e-07
-4.01698e-08
-2.2325e-07
-4.20772e-08
-2.13933e-07
-4.37974e-08
-2.04296e-07
-4.53151e-08
-1.94384e-07
-4.66163e-08
-1.84245e-07
-4.76883e-08
-1.73928e-07
-4.85196e-08
-1.63484e-07
-4.91002e-08
-1.52968e-07
-4.94219e-08
-1.42433e-07
-4.94783e-08
-1.31935e-07
-4.9265e-08
-1.21529e-07
-4.87795e-08
-1.11272e-07
-4.80215e-08
-1.01218e-07
-4.69928e-08
-9.14221e-08
-4.56978e-08
-8.1936e-08
-4.41427e-08
-7.28105e-08
-4.23366e-08
-6.40937e-08
-4.02909e-08
-5.58306e-08
-3.80195e-08
-4.80624e-08
-3.55392e-08
-4.0826e-08
-3.28698e-08
-3.41535e-08
-3.00346e-08
-2.80714e-08
-2.70603e-08
-2.25998e-08
-2.39783e-08
-1.77518e-08
-2.0825e-08
-1.3533e-08
-1.7643e-08
-9.94005e-09
-1.44826e-08
-6.96076e-09
-1.14029e-08
-4.57287e-09
-8.47483e-09
-2.7438e-09
-5.78274e-09
-1.43038e-09
-3.42817e-09
-5.78962e-10
-1.53265e-09
-1.26026e-10
-2.41539e-10
2.61442e-10
-4.53241e-10
1.23477e-09
-1.76044e-09
4.41632e-09
-3.88108e-09
8.04587e-09
-6.77934e-09
1.19251e-08
-1.04208e-08
1.58963e-08
-1.47701e-08
1.98383e-08
-1.97892e-08
2.36609e-08
-2.54378e-08
2.7299e-08
-3.1673e-08
3.07076e-08
-3.84497e-08
3.38575e-08
-4.57218e-08
3.67321e-08
-5.34425e-08
3.9324e-08
-6.15649e-08
4.16333e-08
-7.00429e-08
4.3665e-08
-7.88312e-08
4.54281e-08
-8.78861e-08
4.69339e-08
-9.71655e-08
4.81955e-08
-1.06629e-07
4.92265e-08
-1.16238e-07
5.00408e-08
-1.25957e-07
5.06523e-08
-1.3575e-07
5.10738e-08
-1.45585e-07
5.13177e-08
-1.55432e-07
5.13952e-08
-1.65259e-07
5.13165e-08
-1.75041e-07
5.10905e-08
-1.84749e-07
5.07249e-08
-1.94358e-07
5.02262e-08
-2.03843e-07
4.95999e-08
-2.13181e-07
4.88503e-08
-2.22347e-07
4.79805e-08
-2.31319e-07
4.69929e-08
-2.40074e-07
4.5889e-08
-2.4859e-07
4.46696e-08
-2.56845e-07
4.33349e-08
-2.64815e-07
4.18844e-08
-2.72478e-07
4.03175e-08
-2.79813e-07
3.86334e-08
-2.86797e-07
3.6831e-08
-2.93407e-07
3.49093e-08
-2.9962e-07
3.28676e-08
-3.05415e-07
3.07053e-08
-3.10768e-07
2.84222e-08
-3.15657e-07
2.60188e-08
-3.20061e-07
2.34961e-08
-3.23958e-07
2.08559e-08
-3.27327e-07
1.81008e-08
-3.30148e-07
1.52345e-08
-3.32402e-07
1.22617e-08
-3.34071e-07
9.18808e-09
-3.35139e-07
6.02065e-09
-3.35589e-07
2.7676e-09
-3.3541e-07
-5.61606e-10
-3.34589e-07
-3.95615e-09
-3.33119e-07
-7.40395e-09
-3.30992e-07
-1.08916e-08
-3.28205e-07
-1.44045e-08
-3.24756e-07
-1.79268e-08
-3.20649e-07
-2.14415e-08
-3.1589e-07
-2.49305e-08
-3.10486e-07
-2.83749e-08
-3.0445e-07
-3.17549e-08
-2.978e-07
-3.505e-08
-2.90555e-07
-3.82395e-08
-2.82739e-07
-4.1302e-08
-2.7438e-07
-4.42164e-08
-2.6551e-07
-4.69615e-08
-2.56163e-07
-4.95166e-08
-2.46379e-07
-5.18613e-08
-2.362e-07
-5.39764e-08
-2.25672e-07
-5.58436e-08
-2.14842e-07
-5.74456e-08
-2.03764e-07
-5.87669e-08
-1.9249e-07
-5.97937e-08
-1.81076e-07
-6.05139e-08
-1.6958e-07
-6.09176e-08
-1.58061e-07
-6.09971e-08
-1.46579e-07
-6.07471e-08
-1.35194e-07
-6.01648e-08
-1.23965e-07
-5.925e-08
-1.12953e-07
-5.80052e-08
-1.02215e-07
-5.64357e-08
-9.18081e-08
-5.45497e-08
-8.17863e-08
-5.23584e-08
-7.22013e-08
-4.98759e-08
-6.31011e-08
-4.71197e-08
-5.45297e-08
-4.41106e-08
-4.65266e-08
-4.08729e-08
-3.9126e-08
-3.74352e-08
-3.23561e-08
-3.38301e-08
-2.62388e-08
-3.00956e-08
-2.07886e-08
-2.62752e-08
-1.60122e-08
-2.24194e-08
-1.19082e-08
-1.85866e-08
-8.46598e-09
-1.48452e-08
-5.66601e-09
-1.12748e-08
-3.47948e-09
-7.96928e-09
-1.86861e-09
-5.03904e-09
-7.87472e-10
-2.61379e-09
-1.8339e-10
-8.45623e-10
7.80528e-11
-5.29477e-10
1.76424e-09
-2.04075e-09
5.92761e-09
-4.47117e-09
1.04763e-08
-7.76611e-09
1.522e-08
-1.18756e-08
2.00058e-08
-1.67515e-08
2.47143e-08
-2.23462e-08
2.92555e-08
-2.86111e-08
3.35639e-08
-3.54971e-08
3.75936e-08
-4.29543e-08
4.13148e-08
-5.09327e-08
4.47104e-08
-5.93819e-08
4.77733e-08
-6.82524e-08
5.05037e-08
-7.74953e-08
5.29079e-08
-8.70631e-08
5.49959e-08
-9.69098e-08
5.67806e-08
-1.06991e-07
5.82768e-08
-1.17265e-07
5.95e-08
-1.2769e-07
6.04661e-08
-1.38228e-07
6.11907e-08
-1.48843e-07
6.16889e-08
-1.595e-07
6.19747e-08
-1.70166e-07
6.20611e-08
-1.8081e-07
6.19598e-08
-1.914e-07
6.16813e-08
-2.0191e-07
6.12344e-08
-2.12311e-07
6.06269e-08
-2.22576e-07
5.9865e-08
-2.32679e-07
5.89539e-08
-2.42596e-07
5.78973e-08
-2.52301e-07
5.66981e-08
-2.6177e-07
5.53581e-08
-2.70979e-07
5.38782e-08
-2.79903e-07
5.22588e-08
-2.88518e-07
5.04996e-08
-2.968e-07
4.85999e-08
-3.04726e-07
4.65587e-08
-3.1227e-07
4.4375e-08
-3.19408e-07
4.20477e-08
-3.26116e-07
3.95761e-08
-3.32371e-07
3.69597e-08
-3.38147e-07
3.41984e-08
-3.43421e-07
3.12929e-08
-3.4817e-07
2.82446e-08
-3.52369e-07
2.50557e-08
-3.55998e-07
2.17297e-08
-3.59035e-07
1.82709e-08
-3.61458e-07
1.46851e-08
-3.63249e-07
1.09793e-08
-3.6439e-07
7.16191e-09
-3.64866e-07
3.24288e-09
-3.64661e-07
-7.66374e-10
-3.63764e-07
-4.85288e-09
-3.62166e-07
-9.0021e-09
-3.5986e-07
-1.3198e-08
-3.56841e-07
-1.7423e-08
-3.5311e-07
-2.16582e-08
-3.48668e-07
-2.58832e-08
-3.43522e-07
-3.00764e-08
-3.37682e-07
-3.42151e-08
-3.31161e-07
-3.82758e-08
-3.23977e-07
-4.22341e-08
-3.16152e-07
-4.60649e-08
-3.0771e-07
-4.97432e-08
-2.98683e-07
-5.32435e-08
-2.89104e-07
-5.65405e-08
-2.79011e-07
-5.96096e-08
-2.68446e-07
-6.24267e-08
-2.57454e-07
-6.49686e-08
-2.46084e-07
-6.72137e-08
-2.34388e-07
-6.91414e-08
-2.22421e-07
-7.07334e-08
-2.10242e-07
-7.19731e-08
-1.9791e-07
-7.28463e-08
-1.85486e-07
-7.33413e-08
-1.73034e-07
-7.3449e-08
-1.60618e-07
-7.31634e-08
-1.48301e-07
-7.24811e-08
-1.36149e-07
-7.14022e-08
-1.24225e-07
-6.99299e-08
-1.12589e-07
-6.80708e-08
-1.01304e-07
-6.5835e-08
-9.04267e-08
-6.3236e-08
-8.00114e-08
-6.02912e-08
-7.01096e-08
-5.70216e-08
-6.07678e-08
-5.34523e-08
-5.2028e-08
-4.96127e-08
-4.39265e-08
-4.55367e-08
-3.64934e-08
-4.12632e-08
-2.97521e-08
-3.68368e-08
-2.3719e-08
-3.23083e-08
-1.84024e-08
-2.7736e-08
-1.38025e-08
-2.31865e-08
-9.91123e-09
-1.87364e-08
-6.71202e-09
-1.4474e-08
-4.18009e-09
-1.05012e-08
-2.28322e-09
-6.93591e-09
-9.82903e-10
-3.91411e-09
-2.36318e-10
-1.59221e-09
-1.58264e-10
-6.01071e-10
2.36531e-09
-2.30614e-09
7.63268e-09
-5.03298e-09
1.32031e-08
-8.70968e-09
1.88967e-08
-1.32715e-08
2.45675e-08
-1.86579e-08
3.01007e-08
-2.48109e-08
3.54086e-08
-3.1674e-08
4.0427e-08
-3.91914e-08
4.5111e-08
-4.73079e-08
4.94314e-08
-5.59691e-08
5.33716e-08
-6.51212e-08
5.69254e-08
-7.47116e-08
6.00941e-08
-8.46889e-08
6.28852e-08
-9.50032e-08
6.53102e-08
-1.05606e-07
6.73838e-08
-1.16452e-07
6.91226e-08
-1.27497e-07
7.05442e-08
-1.38697e-07
7.16664e-08
-1.50013e-07
7.25067e-08
-1.61406e-07
7.30822e-08
-1.7284e-07
7.34089e-08
-1.84281e-07
7.35014e-08
-1.95694e-07
7.33731e-08
-2.07049e-07
7.30358e-08
-2.18314e-07
7.24997e-08
-2.29461e-07
7.17737e-08
-2.40461e-07
7.0865e-08
-2.51286e-07
6.97794e-08
-2.6191e-07
6.85214e-08
-2.72306e-07
6.70942e-08
-2.82448e-07
6.55001e-08
-2.9231e-07
6.37402e-08
-3.01867e-07
6.18149e-08
-3.11091e-07
5.9724e-08
-3.19958e-07
5.74669e-08
-3.28442e-07
5.50424e-08
-3.36516e-07
5.24496e-08
-3.44156e-07
4.96873e-08
-3.51335e-07
4.67548e-08
-3.58027e-07
4.36516e-08
-3.64206e-07
4.03779e-08
-3.69848e-07
3.69345e-08
-3.74926e-07
3.33232e-08
-3.79418e-07
2.9547e-08
-3.83298e-07
2.56097e-08
-3.86544e-07
2.15168e-08
-3.89134e-07
1.72752e-08
-3.91047e-07
1.2893e-08
-3.92266e-07
8.38045e-09
-3.92772e-07
3.74915e-09
-3.92551e-07
-9.87369e-10
-3.9159e-07
-5.8138e-09
-3.89879e-07
-1.07131e-08
-3.87411e-07
-1.56662e-08
-3.84181e-07
-2.06527e-08
-3.80189e-07
-2.56502e-08
-3.75438e-07
-3.06347e-08
-3.69933e-07
-3.5581e-08
-3.63686e-07
-4.04624e-08
-3.56711e-07
-4.52513e-08
-3.49025e-07
-4.99191e-08
-3.40654e-07
-5.44364e-08
-3.31623e-07
-5.87738e-08
-3.21965e-07
-6.29014e-08
-3.11716e-07
-6.67898e-08
-3.00916e-07
-7.04099e-08
-2.89609e-07
-7.37335e-08
-2.77844e-07
-7.67337e-08
-2.65673e-07
-7.93848e-08
-2.53151e-07
-8.16631e-08
-2.40338e-07
-8.35469e-08
-2.27294e-07
-8.50171e-08
-2.14083e-07
-8.6057e-08
-2.00771e-07
-8.6653e-08
-1.87426e-07
-8.67947e-08
-1.74114e-07
-8.6475e-08
-1.60905e-07
-8.56904e-08
-1.47866e-07
-8.44411e-08
-1.35065e-07
-8.27311e-08
-1.22567e-07
-8.05684e-08
-1.10437e-07
-7.79652e-08
-9.87351e-08
-7.49376e-08
-8.75199e-08
-7.15064e-08
-7.68451e-08
-6.76964e-08
-6.676e-08
-6.35374e-08
-5.7309e-08
-5.90638e-08
-4.85304e-08
-5.43153e-08
-4.04565e-08
-4.93372e-08
-3.31124e-08
-4.41809e-08
-2.65162e-08
-3.89046e-08
-2.0678e-08
-3.35741e-08
-1.56004e-08
-2.82641e-08
-1.12776e-08
-2.30592e-08
-7.6961e-09
-1.80555e-08
-4.83526e-09
-1.3362e-08
-2.66799e-09
-9.10317e-09
-1.16246e-09
-5.41964e-09
-2.84201e-10
-2.47046e-09
-4.42464e-10
-6.68216e-10
3.03354e-09
-2.55668e-09
9.52112e-09
-5.56592e-09
1.62124e-08
-9.60827e-09
2.29391e-08
-1.4605e-08
2.95643e-08
-2.04837e-08
3.59794e-08
-2.71764e-08
4.21013e-08
-3.46182e-08
4.78688e-08
-4.27466e-08
5.32393e-08
-5.15007e-08
5.81855e-08
-6.08216e-08
6.26925e-08
-7.06519e-08
6.67556e-08
-8.09357e-08
7.03779e-08
-9.16189e-08
7.35684e-08
-1.0265e-07
7.63408e-08
-1.13977e-07
7.87116e-08
-1.25554e-07
8.06994e-08
-1.37334e-07
8.23239e-08
-1.49272e-07
8.36051e-08
-1.61328e-07
8.45625e-08
-1.73461e-07
8.52152e-08
-1.85633e-07
8.5581e-08
-1.97808e-07
8.56764e-08
-2.09951e-07
8.55162e-08
-2.22029e-07
8.51139e-08
-2.34011e-07
8.44809e-08
-2.45864e-07
8.36272e-08
-2.5756e-07
8.25609e-08
-2.69069e-07
8.12886e-08
-2.80363e-07
7.98155e-08
-2.91414e-07
7.81453e-08
-3.02195e-07
7.62804e-08
-3.12677e-07
7.42223e-08
-3.22833e-07
7.19715e-08
-3.32637e-07
6.95279e-08
-3.42061e-07
6.68906e-08
-3.51077e-07
6.40588e-08
-3.59659e-07
6.10312e-08
-3.67779e-07
5.78068e-08
-3.75408e-07
5.43847e-08
-3.82521e-07
5.07645e-08
-3.8909e-07
4.69466e-08
-3.95088e-07
4.29322e-08
-4.00488e-07
3.87234e-08
-4.05265e-07
3.43236e-08
-4.09392e-07
2.97376e-08
-4.12847e-07
2.49717e-08
-4.15606e-07
2.00339e-08
-4.17647e-07
1.4934e-08
-4.1895e-07
9.68356e-09
-4.19497e-07
4.29625e-09
-4.19272e-07
-1.21225e-09
-4.18262e-07
-6.82421e-09
-4.16455e-07
-1.25198e-08
-4.13844e-07
-1.82772e-08
-4.10425e-07
-2.40724e-08
-4.06195e-07
-2.98796e-08
-4.01159e-07
-3.56713e-08
-3.95322e-07
-4.1418e-08
-3.88695e-07
-4.70891e-08
-3.81294e-07
-5.26525e-08
-3.73138e-07
-5.80751e-08
-3.64251e-07
-6.33231e-08
-3.54663e-07
-6.83623e-08
-3.44406e-07
-7.31583e-08
-3.33518e-07
-7.7677e-08
-3.22043e-07
-8.18848e-08
-3.10028e-07
-8.57492e-08
-2.97522e-07
-8.9239e-08
-2.84583e-07