/*--------------------------------*- C++ -*----------------------------------*\
  =========                 |
  \\      /  F ield         | OpenFOAM: The Open Source CFD Toolbox
   \\    /   O peration     | Website:  https://openfoam.org
    \\  /    A nd           | Version:  7
     \\/     M anipulation  |
\*---------------------------------------------------------------------------*/
FoamFile
{
    version     2.0;
    format      ascii;
    class       volVectorField;
    location    "0.3125";
    object      U;
}
// * * * * * * * * * * * * * * * * * * * * * * * * * * * * * * * * * * * * * //

dimensions      [0 1 -1 0 0 0 0];

internalField   nonuniform List<vector> 
10000
(
(3.64373e-06 -3.26256e-06 0)
(1.19788e-05 -5.28974e-06 0)
(2.04422e-05 -4.36642e-06 0)
(2.27651e-05 -1.61655e-06 0)
(1.66995e-05 1.54354e-06 0)
(1.57073e-06 4.64305e-06 0)
(-2.22889e-05 7.47765e-06 0)
(-5.43091e-05 1.00247e-05 0)
(-9.37429e-05 1.22806e-05 0)
(-0.000139865 1.42362e-05 0)
(-0.000191896 1.59322e-05 0)
(-0.000249098 1.73991e-05 0)
(-0.00031081 1.8643e-05 0)
(-0.000376383 1.9695e-05 0)
(-0.000445218 2.05724e-05 0)
(-0.000516799 2.12788e-05 0)
(-0.000590628 2.1837e-05 0)
(-0.000666258 2.22793e-05 0)
(-0.00074331 2.26196e-05 0)
(-0.000821426 2.28591e-05 0)
(-0.000900273 2.30088e-05 0)
(-0.000979564 2.30795e-05 0)
(-0.00105904 2.30749e-05 0)
(-0.00113847 2.30035e-05 0)
(-0.00121762 2.28811e-05 0)
(-0.0012963 2.27146e-05 0)
(-0.00137432 2.24978e-05 0)
(-0.00145149 2.22293e-05 0)
(-0.00152766 2.19171e-05 0)
(-0.00160265 2.15634e-05 0)
(-0.0016763 2.11634e-05 0)
(-0.00174845 2.07143e-05 0)
(-0.00181894 2.02201e-05 0)
(-0.00188761 1.9684e-05 0)
(-0.00195428 1.91016e-05 0)
(-0.00201878 1.84674e-05 0)
(-0.00208095 1.7781e-05 0)
(-0.0021406 1.70431e-05 0)
(-0.00219753 1.62514e-05 0)
(-0.00225157 1.54007e-05 0)
(-0.00230251 1.4488e-05 0)
(-0.00235015 1.35146e-05 0)
(-0.00239428 1.24816e-05 0)
(-0.00243471 1.13873e-05 0)
(-0.00247122 1.02286e-05 0)
(-0.0025036 9.00547e-06 0)
(-0.00253166 7.72076e-06 0)
(-0.00255519 6.37745e-06 0)
(-0.002574 4.97574e-06 0)
(-0.00258791 3.51551e-06 0)
(-0.00259673 2.00014e-06 0)
(-0.0026003 4.35742e-07 0)
(-0.00259848 -1.17157e-06 0)
(-0.00259114 -2.81657e-06 0)
(-0.00257817 -4.49399e-06 0)
(-0.00255949 -6.19687e-06 0)
(-0.00253504 -7.91563e-06 0)
(-0.00250479 -9.63955e-06 0)
(-0.00246874 -1.13591e-05 0)
(-0.00242694 -1.30657e-05 0)
(-0.00237944 -1.475e-05 0)
(-0.00232636 -1.63996e-05 0)
(-0.00226783 -1.80013e-05 0)
(-0.00220405 -1.95423e-05 0)
(-0.00213523 -2.10115e-05 0)
(-0.00206163 -2.23979e-05 0)
(-0.00198356 -2.36896e-05 0)
(-0.00190135 -2.48742e-05 0)
(-0.00181538 -2.59392e-05 0)
(-0.00172605 -2.68731e-05 0)
(-0.00163383 -2.76666e-05 0)
(-0.00153918 -2.83116e-05 0)
(-0.00144261 -2.88e-05 0)
(-0.00134465 -2.91238e-05 0)
(-0.00124585 -2.9276e-05 0)
(-0.00114679 -2.92517e-05 0)
(-0.00104804 -2.90482e-05 0)
(-0.000950208 -2.86635e-05 0)
(-0.000853882 -2.80968e-05 0)
(-0.000759663 -2.73485e-05 0)
(-0.000668142 -2.64203e-05 0)
(-0.000579907 -2.53156e-05 0)
(-0.000495528 -2.40387e-05 0)
(-0.00041556 -2.25948e-05 0)
(-0.000340538 -2.09905e-05 0)
(-0.000270968 -1.92335e-05 0)
(-0.000207329 -1.7332e-05 0)
(-0.000150064 -1.52946e-05 0)
(-9.95771e-05 -1.31312e-05 0)
(-5.62225e-05 -1.08548e-05 0)
(-2.02977e-05 -8.48182e-06 0)
(7.97191e-06 -6.03303e-06 0)
(2.84567e-05 -3.5364e-06 0)
(4.11599e-05 -1.03607e-06 0)
(4.6283e-05 1.39036e-06 0)
(4.43305e-05 3.60641e-06 0)
(3.62636e-05 5.36843e-06 0)
(2.38241e-05 6.2283e-06 0)
(1.05052e-05 5.40043e-06 0)
(2.11098e-06 2.11367e-06 0)
(5.32023e-06 -1.19277e-05 0)
(1.56297e-05 -1.55744e-05 0)
(1.96635e-05 -7.95622e-06 0)
(8.66491e-06 6.19416e-06 0)
(-2.20691e-05 2.27641e-05 0)
(-7.43105e-05 3.96561e-05 0)
(-0.00014812 5.58809e-05 0)
(-0.000242582 7.09942e-05 0)
(-0.000356383 8.47234e-05 0)
(-0.000487851 9.70365e-05 0)
(-0.000635231 0.000107938 0)
(-0.000796791 0.000117471 0)
(-0.000970783 0.000125725 0)
(-0.00115557 0.000132792 0)
(-0.00134964 0.000138764 0)
(-0.00155152 0.000143726 0)
(-0.0017599 0.000147778 0)
(-0.00197358 0.000151001 0)
(-0.00219146 0.000153481 0)
(-0.00241251 0.000155291 0)
(-0.00263583 0.0001565 0)
(-0.00286057 0.000157157 0)
(-0.00308597 0.000157307 0)
(-0.00331134 0.000156997 0)
(-0.00353603 0.000156271 0)
(-0.00375944 0.000155158 0)
(-0.003981 0.000153675 0)
(-0.00420018 0.000151842 0)
(-0.00441647 0.000149677 0)
(-0.00462937 0.000147185 0)
(-0.00483842 0.000144364 0)
(-0.00504311 0.000141218 0)
(-0.00524299 0.000137749 0)
(-0.00543755 0.000133951 0)
(-0.00562633 0.000129815 0)
(-0.00580882 0.000125333 0)
(-0.00598452 0.000120498 0)
(-0.00615291 0.000115302 0)
(-0.00631346 0.000109731 0)
(-0.00646564 0.000103772 0)
(-0.0066089 9.74197e-05 0)
(-0.00674268 9.06688e-05 0)
(-0.0068664 8.35154e-05 0)
(-0.00697951 7.5955e-05 0)
(-0.00708144 6.79866e-05 0)
(-0.00717162 5.96151e-05 0)
(-0.00724949 5.08486e-05 0)
(-0.00731452 4.16975e-05 0)
(-0.00736618 3.21737e-05 0)
(-0.00740398 2.22937e-05 0)
(-0.00742745 1.20815e-05 0)
(-0.00743615 1.56831e-06 0)
(-0.00742971 -9.21105e-06 0)
(-0.00740779 -2.0219e-05 0)
(-0.00737012 -3.14132e-05 0)
(-0.00731649 -4.27441e-05 0)
(-0.00724677 -5.41557e-05 0)
(-0.00716089 -6.55881e-05 0)
(-0.00705888 -7.69803e-05 0)
(-0.00694086 -8.82683e-05 0)
(-0.00680704 -9.93827e-05 0)
(-0.00665774 -0.000110249 0)
(-0.00649334 -0.000120792 0)
(-0.00631438 -0.000130934 0)
(-0.00612147 -0.000140601 0)
(-0.00591535 -0.000149715 0)
(-0.00569685 -0.0001582 0)
(-0.0054669 -0.00016598 0)
(-0.00522653 -0.000172983 0)
(-0.0049769 -0.000179141 0)
(-0.00471921 -0.000184391 0)
(-0.00445479 -0.000188676 0)
(-0.00418501 -0.000191942 0)
(-0.00391134 -0.000194142 0)
(-0.00363527 -0.000195238 0)
(-0.00335837 -0.0001952 0)
(-0.00308222 -0.000194006 0)
(-0.00280846 -0.000191643 0)
(-0.0025387 -0.000188107 0)
(-0.00227459 -0.0001834 0)
(-0.00201773 -0.000177535 0)
(-0.00176971 -0.000170534 0)
(-0.00153211 -0.000162427 0)
(-0.00130642 -0.000153252 0)
(-0.00109408 -0.000143057 0)
(-0.000896468 -0.000131897 0)
(-0.000714854 -0.000119837 0)
(-0.000550405 -0.000106952 0)
(-0.000404161 -9.33324e-05 0)
(-0.000277008 -7.90871e-05 0)
(-0.000169647 -6.43522e-05 0)
(-8.25449e-05 -4.93025e-05 0)
(-1.58636e-05 -3.41711e-05 0)
(3.06354e-05 -1.92879e-05 0)
(5.77424e-05 -5.1406e-06 0)
(6.70114e-05 7.52776e-06 0)
(6.1004e-05 1.75736e-05 0)
(4.36935e-05 2.32243e-05 0)
(2.17627e-05 2.18315e-05 0)
(5.35803e-06 1.04772e-05 0)
(3.68413e-06 -1.96039e-05 0)
(6.84739e-06 -1.9602e-05 0)
(-4.79569e-06 3.38985e-06 0)
(-4.00911e-05 3.96249e-05 0)
(-0.000104157 8.17161e-05 0)
(-0.000199328 0.000125297 0)
(-0.000325838 0.000167953 0)
(-0.000482862 0.000208227 0)
(-0.000668671 0.000245409 0)
(-0.000881108 0.000279142 0)
(-0.00111782 0.000309297 0)
(-0.00137627 0.00033594 0)
(-0.001654 0.000359199 0)
(-0.00194862 0.000379249 0)
(-0.0022578 0.00039632 0)
(-0.00257938 0.000410639 0)
(-0.00291135 0.000422411 0)
(-0.00325182 0.000431863 0)
(-0.00359908 0.000439201 0)
(-0.00395154 0.000444614 0)
(-0.00430774 0.000448281 0)
(-0.00466634 0.000450354 0)
(-0.0050261 0.000450962 0)
(-0.0053859 0.000450224 0)
(-0.00574467 0.000448246 0)
(-0.00610143 0.000445108 0)
(-0.00645527 0.000440876 0)
(-0.0068053 0.000435604 0)
(-0.00715067 0.000429335 0)
(-0.00749058 0.000422093 0)
(-0.00782423 0.000413888 0)
(-0.00815083 0.000404729 0)
(-0.0084696 0.000394616 0)
(-0.00877977 0.000383537 0)
(-0.00908053 0.000371476 0)
(-0.0093711 0.000358415 0)
(-0.00965065 0.000344334 0)
(-0.00991837 0.000329211 0)
(-0.0101734 0.000313019 0)
(-0.0104149 0.000295733 0)
(-0.010642 0.000277334 0)
(-0.0108538 0.00025781 0)
(-0.0110495 0.000237153 0)
(-0.0112281 0.000215356 0)
(-0.0113888 0.000192423 0)
(-0.0115307 0.000168366 0)
(-0.0116529 0.000143212 0)
(-0.0117545 0.000116992 0)
(-0.0118349 8.97459e-05 0)
(-0.0118933 6.15277e-05 0)
(-0.0119288 3.24079e-05 0)
(-0.011941 2.47181e-06 0)
(-0.0119291 -2.81839e-05 0)
(-0.0118928 -5.94509e-05 0)
(-0.0118315 -9.12061e-05 0)
(-0.0117451 -0.000123311 0)
(-0.0116333 -0.000155612 0)
(-0.011496 -0.000187947 0)
(-0.0113334 -0.000220142 0)
(-0.0111456 -0.000252015 0)
(-0.010933 -0.000283371 0)
(-0.010696 -0.000314007 0)
(-0.0104354 -0.000343715 0)
(-0.0101519 -0.000372284 0)
(-0.00984661 -0.000399503 0)
(-0.00952059 -0.000425158 0)
(-0.00917517 -0.000449039 0)
(-0.00881181 -0.000470941 0)
(-0.00843215 -0.000490663 0)
(-0.00803794 -0.00050802 0)
(-0.0076311 -0.000522836 0)
(-0.00721367 -0.000534951 0)
(-0.0067878 -0.000544221 0)
(-0.00635575 -0.000550519 0)
(-0.00591985 -0.000553739 0)
(-0.00548252 -0.000553798 0)
(-0.00504624 -0.000550635 0)
(-0.0046135 -0.000544214 0)
(-0.00418684 -0.000534524 0)
(-0.00376877 -0.000521575 0)
(-0.00336181 -0.000505404 0)
(-0.0029684 -0.000486073 0)
(-0.00259096 -0.00046367 0)
(-0.0022318 -0.000438309 0)
(-0.00189313 -0.000410128 0)
(-0.00157706 -0.000379294 0)
(-0.0012855 -0.000346006 0)
(-0.00102022 -0.000310496 0)
(-0.000782751 -0.000273044 0)
(-0.000574377 -0.000233987 0)
(-0.000396069 -0.000193744 0)
(-0.000248413 -0.000152844 0)
(-0.000131511 -0.000111982 0)
(-4.48509e-05 -7.20941e-05 0)
(1.28728e-05 -3.44728e-05 0)
(4.39955e-05 -9.45571e-07 0)
(5.21199e-05 2.58969e-05 0)
(4.24499e-05 4.24245e-05 0)
(2.30963e-05 4.37176e-05 0)
(6.13395e-06 2.3678e-05 0)
(1.2254e-06 -2.15065e-05 0)
(-6.97004e-06 -8.24161e-06 0)
(-4.09635e-05 3.88372e-05 0)
(-0.00010746 0.00010575 0)
(-0.000210841 0.000182143 0)
(-0.000353255 0.000261465 0)
(-0.000535077 0.000339539 0)
(-0.000755245 0.000413878 0)
(-0.00101184 0.000483036 0)
(-0.00130239 0.000546205 0)
(-0.00162402 0.000603092 0)
(-0.00197376 0.00065366 0)
(-0.00234857 0.000698039 0)
(-0.00274543 0.000736521 0)
(-0.00316146 0.000769449 0)
(-0.00359391 0.000797191 0)
(-0.00404017 0.000820132 0)
(-0.00449781 0.00083865 0)
(-0.00496458 0.000853101 0)
(-0.00543837 0.000863838 0)
(-0.00591725 0.000871176 0)
(-0.00639943 0.000875395 0)
(-0.00688325 0.000876745 0)
(-0.00736717 0.000875451 0)
(-0.00784974 0.000871701 0)
(-0.00832964 0.000865647 0)
(-0.00880559 0.000857421 0)
(-0.00927638 0.000847131 0)
(-0.00974085 0.00083485 0)
(-0.0101979 0.000820629 0)
(-0.0106464 0.000804503 0)
(-0.0110853 0.000786489 0)
(-0.0115135 0.000766589 0)
(-0.01193 0.000744786 0)
(-0.0123336 0.000721054 0)
(-0.0127233 0.000695365 0)
(-0.0130981 0.000667688 0)
(-0.0134567 0.000637981 0)
(-0.0137981 0.0006062 0)
(-0.014121 0.00057231 0)
(-0.0144245 0.000536282 0)
(-0.0147072 0.000498095 0)
(-0.014968 0.000457732 0)
(-0.0152058 0.00041519 0)
(-0.0154194 0.000370482 0)
(-0.0156077 0.000323641 0)
(-0.0157694 0.000274715 0)
(-0.0159036 0.000223767 0)
(-0.0160092 0.000170884 0)
(-0.0160852 0.000116178 0)
(-0.0161307 5.97856e-05 0)
(-0.0161449 1.86983e-06 0)
(-0.016127 -5.73834e-05 0)
(-0.0160765 -0.000117764 0)
(-0.0159927 -0.000179032 0)
(-0.0158755 -0.000240924 0)
(-0.0157244 -0.000303149 0)
(-0.0155395 -0.000365397 0)
(-0.015321 -0.000427337 0)
(-0.015069 -0.000488619 0)
(-0.0147841 -0.000548872 0)
(-0.0144669 -0.000607713 0)
(-0.0141185 -0.000664749 0)
(-0.0137397 -0.00071958 0)
(-0.0133321 -0.000771804 0)
(-0.0128971 -0.000821019 0)
(-0.0124364 -0.000866828 0)
(-0.011952 -0.000908841 0)
(-0.011446 -0.000946687 0)
(-0.0109207 -0.000980011 0)
(-0.0103788 -0.00100848 0)
(-0.00982273 -0.0010318 0)
(-0.00925547 -0.0010497 0)
(-0.00867994 -0.00106193 0)
(-0.0080992 -0.0010683 0)
(-0.00751642 -0.00106865 0)
(-0.00693484 -0.00106286 0)
(-0.00635773 -0.00105088 0)
(-0.00578841 -0.00103268 0)
(-0.00523015 -0.00100829 0)
(-0.00468624 -0.000977769 0)
(-0.00415988 -0.000941253 0)
(-0.00365419 -0.000898911 0)
(-0.00317219 -0.00085097 0)
(-0.00271674 -0.000797707 0)
(-0.00229055 -0.000739456 0)
(-0.00189608 -0.000676616 0)
(-0.00153557 -0.000609658 0)
(-0.00121094 -0.000539146 0)
(-0.000923786 -0.00046576 0)
(-0.000675258 -0.000390331 0)
(-0.000466008 -0.000313896 0)
(-0.000296066 -0.000237784 0)
(-0.000164703 -0.000163727 0)
(-7.02513e-05 -9.4026e-05 0)
(-9.89268e-06 -3.17758e-05 0)
(2.05543e-05 1.88447e-05 0)
(2.69056e-05 5.22617e-05 0)
(1.7722e-05 6.1199e-05 0)
(5.2768e-06 3.60046e-05 0)
(-1.68281e-06 -1.50376e-05 0)
(-2.32449e-05 2.31853e-05 0)
(-8.33427e-05 0.000103735 0)
(-0.000185218 0.000209451 0)
(-0.000331594 0.00032776 0)
(-0.000524245 0.000450001 0)
(-0.000763097 0.00057055 0)
(-0.00104685 0.000685799 0)
(-0.00137335 0.000793487 0)
(-0.00173975 0.000892376 0)
(-0.00214291 0.000981857 0)
(-0.00257944 0.00106175 0)
(-0.00304587 0.00113222 0)
(-0.00353873 0.00119358 0)
(-0.00405468 0.00124629 0)
(-0.00459048 0.00129087 0)
(-0.00514307 0.00132788 0)
(-0.00570955 0.00135787 0)
(-0.00628719 0.00138139 0)
(-0.00687346 0.00139894 0)
(-0.00746602 0.001411 0)
(-0.00806265 0.00141801 0)
(-0.00866132 0.00142035 0)
(-0.00926012 0.00141837 0)
(-0.00985727 0.00141237 0)
(-0.0104511 0.00140258 0)
(-0.01104 0.00138923 0)
(-0.0116224 0.00137247 0)
(-0.012197 0.00135242 0)
(-0.0127622 0.00132918 0)
(-0.0133167 0.0013028 0)
(-0.0138592 0.00127333 0)
(-0.0143884 0.00124075 0)
(-0.0149027 0.00120506 0)
(-0.0154011 0.00116623 0)
(-0.015882 0.00112421 0)
(-0.0163441 0.00107896 0)
(-0.0167861 0.00103041 0)
(-0.0172065 0.000978527 0)
(-0.017604 0.000923245 0)
(-0.0179771 0.000864529 0)
(-0.0183244 0.00080235 0)
(-0.0186445 0.000736689 0)
(-0.018936 0.000667553 0)
(-0.0191974 0.00059497 0)
(-0.0194274 0.000518995 0)
(-0.0196246 0.000439712 0)
(-0.0197877 0.000357229 0)
(-0.0199155 0.000271695 0)
(-0.0200068 0.000183294 0)
(-0.0200605 9.22504e-05 0)
(-0.0200756 -1.17479e-06 0)
(-0.0200513 -9.66812e-05 0)
(-0.0199868 -0.000193928 0)
(-0.0198816 -0.000292531 0)
(-0.0197353 -0.000392068 0)
(-0.0195476 -0.000492076 0)
(-0.0193185 -0.000592061 0)
(-0.0190481 -0.000691495 0)
(-0.0187369 -0.00078982 0)
(-0.0183855 -0.000886448 0)
(-0.0179947 -0.000980772 0)
(-0.0175656 -0.00107217 0)
(-0.0170997 -0.00116001 0)
(-0.0165984 -0.00124365 0)
(-0.0160638 -0.00132246 0)
(-0.0154979 -0.00139581 0)
(-0.0149031 -0.00146309 0)
(-0.0142819 -0.00152371 0)
(-0.0136373 -0.00157711 0)
(-0.0129723 -0.00162278 0)
(-0.01229 -0.00166023 0)
(-0.011594 -0.00168904 0)
(-0.0108878 -0.00170884 0)
(-0.0101751 -0.00171931 0)
(-0.00945972 -0.00172022 0)
(-0.00874561 -0.00171137 0)
(-0.0080367 -0.00169268 0)
(-0.00733696 -0.0016641 0)
(-0.00665038 -0.00162568 0)
(-0.00598087 -0.00157756 0)
(-0.00533229 -0.00151993 0)
(-0.00470839 -0.00145308 0)
(-0.00411277 -0.00137737 0)
(-0.00354886 -0.00129328 0)
(-0.00301985 -0.00120136 0)
(-0.00252866 -0.00110226 0)
(-0.00207793 -0.000996763 0)
(-0.00166989 -0.000885807 0)
(-0.00130636 -0.000770503 0)
(-0.000988645 -0.0006522 0)
(-0.000717442 -0.000532554 0)
(-0.000492735 -0.000413639 0)
(-0.000313663 -0.000298087 0)
(-0.000178359 -0.000189286 0)
(-8.377e-05 -9.16374e-05 0)
(-2.54812e-05 -1.08802e-05 0)
(2.51546e-06 4.55659e-05 0)
(8.51387e-06 6.82008e-05 0)
(3.61794e-06 4.41953e-05 0)
(-4.6704e-06 2.86482e-07 0)
(-4.04273e-05 7.65674e-05 0)
(-0.000128412 0.000200717 0)
(-0.000267747 0.000353728 0)
(-0.000459239 0.000521178 0)
(-0.000703724 0.000692986 0)
(-0.00100055 0.000862201 0)
(-0.00134797 0.00102418 0)
(-0.00174344 0.00117599 0)
(-0.00218384 0.00131585 0)
(-0.0026657 0.00144284 0)
(-0.00318529 0.00155664 0)
(-0.0037388 0.00165737 0)
(-0.00432243 0.00174539 0)
(-0.00493243 0.00182125 0)
(-0.00556519 0.00188562 0)
(-0.00621725 0.00193922 0)
(-0.00688532 0.00198278 0)
(-0.0075663 0.00201705 0)
(-0.00825728 0.0020427 0)
(-0.00895555 0.00206039 0)
(-0.00965854 0.00207073 0)
(-0.0103639 0.00207425 0)
(-0.0110693 0.00207143 0)
(-0.0117728 0.00206268 0)
(-0.0124722 0.00204836 0)
(-0.0131658 0.00202877 0)
(-0.0138517 0.00200414 0)
(-0.0145282 0.00197464 0)
(-0.0151936 0.00194043 0)
(-0.0158462 0.00190157 0)
(-0.0164845 0.00185813 0)
(-0.0171069 0.00181012 0)
(-0.0177117 0.00175753 0)
(-0.0182974 0.00170032 0)
(-0.0188624 0.00163844 0)
(-0.019405 0.00157183 0)
(-0.0199236 0.00150042 0)
(-0.0204167 0.00142413 0)
(-0.0208826 0.00134292 0)
(-0.0213195 0.00125674 0)
(-0.0217259 0.00116554 0)
(-0.0221001 0.00106931 0)
(-0.0224405 0.000968082 0)
(-0.0227453 0.000861896 0)
(-0.0230131 0.000750842 0)
(-0.0232423 0.000635046 0)
(-0.0234313 0.000514678 0)
(-0.0235788 0.00038996 0)
(-0.0236834 0.000261165 0)
(-0.0237439 0.000128622 0)
(-0.0237591 -7.28729e-06 0)
(-0.0237282 -0.000146126 0)
(-0.0236502 -0.000287397 0)
(-0.0235247 -0.000430545 0)
(-0.023351 -0.000574959 0)
(-0.023129 -0.000719974 0)
(-0.0228587 -0.000864878 0)
(-0.0225402 -0.00100891 0)
(-0.0221742 -0.00115127 0)
(-0.0217613 -0.00129111 0)
(-0.0213025 -0.00142757 0)
(-0.0207992 -0.00155975 0)
(-0.020253 -0.00168676 0)
(-0.0196658 -0.00180767 0)
(-0.0190397 -0.00192158 0)
(-0.0183773 -0.00202759 0)
(-0.0176811 -0.00212484 0)
(-0.0169544 -0.00221248 0)
(-0.0162004 -0.00228972 0)
(-0.0154225 -0.00235583 0)
(-0.0146246 -0.00241011 0)
(-0.0138106 -0.00245197 0)
(-0.0129846 -0.00248087 0)
(-0.012151 -0.00249638 0)
(-0.011314 -0.00249815 0)
(-0.0104782 -0.00248593 0)
(-0.00964823 -0.00245957 0)
(-0.00882856 -0.00241904 0)
(-0.00802377 -0.00236442 0)
(-0.00723837 -0.00229589 0)
(-0.00647678 -0.00221376 0)
(-0.00574329 -0.00211846 0)
(-0.00504201 -0.00201053 0)
(-0.00437682 -0.00189066 0)
(-0.00375136 -0.00175968 0)
(-0.00316893 -0.00161855 0)
(-0.00263247 -0.00146845 0)
(-0.00214449 -0.00131073 0)
(-0.00170701 -0.00114701 0)
(-0.00132144 -0.000979256 0)
(-0.000988552 -0.000809807 0)
(-0.000708324 -0.000641556 0)
(-0.000479853 -0.000478084 0)
(-0.000301212 -0.000323882 0)
(-0.000169319 -0.000184624 0)
(-7.97809e-05 -6.75131e-05 0)
(-2.67145e-05 1.83668e-05 0)
(-2.60207e-06 6.15845e-05 0)
(1.6356e-06 4.68493e-05 0)
(-7.58853e-06 2.45869e-05 0)
(-5.7565e-05 0.000152527 0)
(-0.000173847 0.000330998 0)
(-0.000351427 0.000539838 0)
(-0.000588786 0.000763681 0)
(-0.000885678 0.000991313 0)
(-0.00124067 0.00121478 0)
(-0.00165137 0.00142865 0)
(-0.00211478 0.00162934 0)
(-0.00262742 0.00181461 0)
(-0.00318549 0.00198326 0)
(-0.00378494 0.00213481 0)
(-0.00442168 0.0022693 0)
(-0.00509159 0.00238714 0)
(-0.00579061 0.00248898 0)
(-0.00651481 0.00257561 0)
(-0.00726041 0.00264792 0)
(-0.00802378 0.00270683 0)
(-0.00880151 0.00275326 0)
(-0.00959037 0.00278809 0)
(-0.0103873 0.00281215 0)
(-0.0111895 0.00282623 0)
(-0.0119942 0.00283102 0)
(-0.0127989 0.00282714 0)
(-0.0136013 0.00281515 0)
(-0.014399 0.0027955 0)
(-0.0151899 0.0027686 0)
(-0.0159719 0.00273475 0)
(-0.016743 0.00269419 0)
(-0.0175014 0.00264713 0)
(-0.0182451 0.00259367 0)
(-0.0189722 0.0025339 0)
(-0.019681 0.00246783 0)
(-0.0203695 0.00239548 0)
(-0.0210361 0.00231679 0)
(-0.0216788 0.00223171 0)
(-0.0222958 0.00214017 0)
(-0.0228853 0.00204209 0)
(-0.0234454 0.00193738 0)
(-0.0239742 0.00182598 0)
(-0.0244699 0.00170783 0)
(-0.0249307 0.0015829 0)
(-0.0253545 0.00145118 0)
(-0.0257397 0.00131271 0)
(-0.0260843 0.00116758 0)
(-0.0263866 0.00101591 0)
(-0.0266448 0.000857878 0)
(-0.0268573 0.000693725 0)
(-0.0270225 0.000523764 0)
(-0.0271389 0.000348372 0)
(-0.0272052 0.000167997 0)
(-0.0272201 -1.68404e-05 0)
(-0.0271825 -0.000205542 0)
(-0.0270917 -0.000397433 0)
(-0.0269468 -0.000591761 0)
(-0.0267474 -0.0007877 0)
(-0.0264934 -0.000984357 0)
(-0.0261846 -0.00118077 0)
(-0.0258215 -0.00137592 0)
(-0.0254045 -0.00156871 0)
(-0.0249346 -0.00175804 0)
(-0.0244129 -0.00194271 0)
(-0.023841 -0.00212156 0)
(-0.0232206 -0.00229335 0)
(-0.0225539 -0.00245688 0)
(-0.0218433 -0.00261092 0)
(-0.0210917 -0.00275428 0)
(-0.0203022 -0.0028858 0)
(-0.0194781 -0.00300435 0)
(-0.0186231 -0.00310889 0)
(-0.0177412 -0.00319841 0)
(-0.0168366 -0.00327203 0)
(-0.0159137 -0.00332892 0)
(-0.0149772 -0.00336838 0)
(-0.0140318 -0.00338984 0)
(-0.0130825 -0.00339282 0)
(-0.0121343 -0.00337702 0)
(-0.0111922 -0.00334225 0)
(-0.0102614 -0.00328845 0)
(-0.00934699 -0.00321576 0)
(-0.00845394 -0.00312443 0)
(-0.00758716 -0.0030149 0)
(-0.00675142 -0.00288775 0)
(-0.00595126 -0.00274376 0)
(-0.00519099 -0.00258385 0)
(-0.0044746 -0.00240917 0)
(-0.00380573 -0.00222107 0)
(-0.0031876 -0.00202113 0)
(-0.00262293 -0.00181121 0)
(-0.00211392 -0.0015935 0)
(-0.00166211 -0.00137061 0)
(-0.00126835 -0.00114563 0)
(-0.00093267 -0.000922303 0)
(-0.0006542 -0.000705169 0)
(-0.000431077 -0.000499795 0)
(-0.000260347 -0.000313051 0)
(-0.00013783 -0.000153455 0)
(-5.79924e-05 -3.15237e-05 0)
(-1.43989e-05 3.97659e-05 0)
(-4.11247e-07 4.34099e-05 0)
(-1.03337e-05 5.76101e-05 0)
(-7.41261e-05 0.000250969 0)
(-0.000218405 0.000494553 0)
(-0.000433965 0.000768002 0)
(-0.000717007 0.00105542 0)
(-0.00106609 0.00134491 0)
(-0.00147878 0.00162789 0)
(-0.00195194 0.00189831 0)
(-0.00248203 0.00215206 0)
(-0.00306515 0.00238657 0)
(-0.0036971 0.00260038 0)
(-0.00437357 0.00279288 0)
(-0.00509013 0.00296405 0)
(-0.00584241 0.00311435 0)
(-0.00662607 0.0032445 0)
(-0.00743691 0.00335543 0)
(-0.00827086 0.0034482 0)
(-0.00912403 0.00352391 0)
(-0.00999273 0.00358366 0)
(-0.0108735 0.00362853 0)
(-0.0117629 0.00365953 0)
(-0.0126579 0.00367764 0)
(-0.0135555 0.0036837 0)
(-0.014453 0.0036785 0)
(-0.0153477 0.00366272 0)
(-0.016237 0.00363695 0)
(-0.0171186 0.00360168 0)
(-0.0179902 0.00355731 0)
(-0.0188495 0.00350416 0)
(-0.0196944 0.00344246 0)
(-0.0205228 0.00337239 0)
(-0.0213326 0.00329404 0)
(-0.0221217 0.00320745 0)
(-0.0228881 0.00311264 0)
(-0.0236297 0.00300956 0)
(-0.0243446 0.00289816 0)
(-0.0250307 0.00277833 0)
(-0.0256859 0.00265001 0)
(-0.0263081 0.00251309 0)
(-0.0268954 0.00236751 0)
(-0.0274455 0.00221321 0)
(-0.0279565 0.00205015 0)
(-0.0284264 0.00187835 0)
(-0.0288529 0.00169787 0)
(-0.0292342 0.00150882 0)
(-0.0295683 0.00131138 0)
(-0.0298533 0.0011058 0)
(-0.0300874 0.00089239 0)
(-0.0302688 0.000671574 0)
(-0.0303959 0.000443841 0)
(-0.0304673 0.000209776 0)
(-0.0304816 -2.99421e-05 0)
(-0.0304377 -0.000274537 0)
(-0.0303347 -0.000523133 0)
(-0.0301717 -0.000774759 0)
(-0.0299483 -0.00102835 0)
(-0.0296644 -0.00128276 0)
(-0.0293198 -0.00153676 0)
(-0.0289151 -0.00178901 0)
(-0.0284507 -0.00203814 0)
(-0.0279278 -0.0022827 0)
(-0.0273477 -0.0025212 0)
(-0.0267119 -0.00275211 0)
(-0.0260226 -0.00297388 0)
(-0.025282 -0.00318494 0)
(-0.024493 -0.00338375 0)
(-0.0236586 -0.00356877 0)
(-0.0227823 -0.00373853 0)
(-0.0218676 -0.0038916 0)
(-0.0209189 -0.00402662 0)
(-0.0199403 -0.00414234 0)
(-0.0189365 -0.00423761 0)
(-0.0179124 -0.00431139 0)
(-0.0168731 -0.0043628 0)
(-0.0158237 -0.0043911 0)
(-0.0147698 -0.00439572 0)
(-0.0137168 -0.00437623 0)
(-0.0126702 -0.00433243 0)
(-0.0116357 -0.00426428 0)
(-0.0106188 -0.00417193 0)
(-0.00962498 -0.00405575 0)
(-0.00865957 -0.0039163 0)
(-0.00772776 -0.00375438 0)
(-0.00683449 -0.00357098 0)
(-0.00598442 -0.00336734 0)
(-0.00518188 -0.00314496 0)
(-0.00443078 -0.00290557 0)
(-0.00373461 -0.00265126 0)
(-0.00309629 -0.00238441 0)
(-0.00251818 -0.00210783 0)
(-0.00200196 -0.00182482 0)
(-0.00154858 -0.00153924 0)
(-0.00115818 -0.0012557 0)
(-0.000829991 -0.000979657 0)
(-0.000562306 -0.000717718 0)
(-0.00035241 -0.000477842 0)
(-0.00019647 -0.00026969 0)
(-8.94416e-05 -0.000104954 0)
(-2.61116e-05 2.23329e-06 0)
(-2.38175e-06 3.38049e-05 0)
(-1.28842e-05 9.89854e-05 0)
(-8.9937e-05 0.000371196 0)
(-0.000261335 0.000690787 0)
(-0.000514019 0.00103764 0)
(-0.000841948 0.00139578 0)
(-0.00124233 0.00175311 0)
(-0.00171173 0.00210064 0)
(-0.00224617 0.00243193 0)
(-0.00284146 0.00274256 0)
(-0.00349319 0.00302969 0)
(-0.0041968 0.0032917 0)
(-0.00494761 0.00352787 0)
(-0.00574092 0.00373818 0)
(-0.00657209 0.00392311 0)
(-0.00743651 0.0040835 0)
(-0.00832975 0.00422041 0)
(-0.00924749 0.00433507 0)
(-0.0101856 0.00442873 0)
(-0.0111402 0.0045027 0)
(-0.0121075 0.00455826 0)
(-0.0130839 0.00459662 0)
(-0.0140661 0.0046189 0)
(-0.0150509 0.00462614 0)
(-0.0160354 0.00461929 0)
(-0.0170165 0.00459917 0)
(-0.0179916 0.00456647 0)
(-0.0189581 0.00452181 0)
(-0.0199134 0.00446566 0)
(-0.0208552 0.00439844 0)
(-0.0217809 0.00432043 0)
(-0.0226884 0.00423183 0)
(-0.0235754 0.00413278 0)
(-0.0244395 0.00402335 0)
(-0.0252786 0.00390356 0)
(-0.0260903 0.00377335 0)
(-0.0268726 0.00363267 0)
(-0.0276231 0.00348143 0)
(-0.0283396 0.00331953 0)
(-0.0290198 0.00314688 0)
(-0.0296615 0.0029634 0)
(-0.0302625 0.00276902 0)
(-0.0308204 0.00256374 0)
(-0.0313331 0.00234757 0)
(-0.0317983 0.00212061 0)
(-0.0322139 0.00188302 0)
(-0.0325777 0.00163503 0)
(-0.0328877 0.00137695 0)
(-0.0331419 0.00110921 0)
(-0.0333385 0.000832318 0)
(-0.0334757 0.000546907 0)
(-0.0335519 0.000253709 0)
(-0.0335658 -4.6421e-05 0)
(-0.0335161 -0.00035251 0)
(-0.0334017 -0.000663464 0)
(-0.0332219 -0.000978075 0)
(-0.0329763 -0.00129502 0)
(-0.0326645 -0.00161287 0)
(-0.0322866 -0.00193007 0)
(-0.0318431 -0.00224501 0)
(-0.0313347 -0.00255596 0)
(-0.0307623 -0.00286112 0)
(-0.0301276 -0.00315866 0)
(-0.0294323 -0.00344667 0)
(-0.0286786 -0.00372324 0)
(-0.0278691 -0.00398644 0)
(-0.0270068 -0.00423434 0)
(-0.0260951 -0.00446507 0)
(-0.0251375 -0.00467679 0)
(-0.0241382 -0.00486775 0)
(-0.0231017 -0.00503627 0)
(-0.0220326 -0.0051808 0)
(-0.0209359 -0.00529993 0)
(-0.0198169 -0.0053924 0)
(-0.0186811 -0.0054571 0)
(-0.0175341 -0.00549315 0)
(-0.0163819 -0.00549982 0)
(-0.0152304 -0.00547665 0)
(-0.0140855 -0.00542335 0)
(-0.0129533 -0.00533991 0)
(-0.0118398 -0.00522654 0)
(-0.0107509 -0.00508371 0)
(-0.00969225 -0.00491215 0)
(-0.00866949 -0.00471287 0)
(-0.00768792 -0.00448712 0)
(-0.0067525 -0.00423649 0)
(-0.00586788 -0.00396283 0)
(-0.00503823 -0.00366836 0)
(-0.00426726 -0.00335563 0)
(-0.00355811 -0.00302764 0)
(-0.00291329 -0.00268783 0)
(-0.00233464 -0.0023402 0)
(-0.00182324 -0.0019894 0)
(-0.00137936 -0.00164088 0)
(-0.00100242 -0.00130102 0)
(-0.000690903 -0.000977359 0)
(-0.000442426 -0.000678845 0)
(-0.000253571 -0.00041611 0)
(-0.000119847 -0.000201772 0)
(-3.72799e-05 -5.0773e-05 0)
(-4.20316e-06 1.82627e-05 0)
(-1.52657e-05 0.000148212 0)
(-0.000104874 0.000512348 0)
(-0.000302297 0.000918656 0)
(-0.000590895 0.00134763 0)
(-0.000962412 0.00178369 0)
(-0.0014128 0.00221475 0)
(-0.00193753 0.00263172 0)
(-0.00253174 0.00302803 0)
(-0.00319052 0.00339909 0)
(-0.00390893 0.00374193 0)
(-0.00468197 0.00405481 0)
(-0.00550459 0.00433702 0)
(-0.00637181 0.00458855 0)
(-0.00727868 0.00480995 0)
(-0.00822039 0.00500217 0)
(-0.00919224 0.00516642 0)
(-0.0101897 0.00530409 0)
(-0.0112085 0.00541662 0)
(-0.0122444 0.00550552 0)
(-0.0132935 0.00557224 0)
(-0.0143521 0.00561819 0)
(-0.0154166 0.00564469 0)
(-0.0164835 0.00565295 0)
(-0.0175497 0.00564406 0)
(-0.0186122 0.00561899 0)
(-0.0196679 0.00557856 0)
(-0.0207141 0.0055235 0)
(-0.021748 0.00545438 0)
(-0.0227671 0.00537168 0)
(-0.0237687 0.00527574 0)
(-0.0247505 0.00516682 0)
(-0.0257098 0.00504509 0)
(-0.0266443 0.00491064 0)
(-0.0275515 0.00476348 0)
(-0.028429 0.00460359 0)
(-0.0292745 0.0044309 0)
(-0.0300855 0.00424532 0)
(-0.0308596 0.00404673 0)
(-0.0315943 0.00383506 0)
(-0.0322872 0.0036102 0)
(-0.032936 0.0033721 0)
(-0.0335381 0.00312077 0)
(-0.0340912 0.00285625 0)
(-0.0345929 0.00257867 0)
(-0.0350409 0.00228822 0)
(-0.0354329 0.00198521 0)
(-0.0357667 0.00167003 0)
(-0.0360402 0.00134321 0)
(-0.0362514 0.00100538 0)
(-0.0363984 0.000657304 0)
(-0.0364796 0.000299892 0)
(-0.0364934 -6.5817e-05 0)
(-0.0364386 -0.000438637 0)
(-0.0363141 -0.00081724 0)
(-0.036119 -0.00120016 0)
(-0.0358528 -0.00158579 0)
(-0.0355153 -0.0019724 0)
(-0.0351065 -0.00235813 0)
(-0.034627 -0.00274099 0)
(-0.0340774 -0.00311892 0)
(-0.0334589 -0.00348974 0)
(-0.0327732 -0.00385123 0)
(-0.0320221 -0.00420111 0)
(-0.0312081 -0.00453705 0)
(-0.0303339 -0.00485673 0)
(-0.0294027 -0.00515785 0)
(-0.0284181 -0.00543813 0)
(-0.0273841 -0.00569536 0)
(-0.026305 -0.00592742 0)
(-0.0251857 -0.00613233 0)
(-0.024031 -0.0063082 0)
(-0.0228465 -0.00645333 0)
(-0.0216378 -0.00656622 0)
(-0.0204106 -0.00664555 0)
(-0.0191713 -0.00669025 0)
(-0.0179259 -0.00669948 0)
(-0.0166809 -0.00667267 0)
(-0.0154427 -0.00660951 0)
(-0.0142177 -0.00651 0)
(-0.0130123 -0.00637441 0)
(-0.0118328 -0.00620335 0)
(-0.0106853 -0.00599771 0)
(-0.00957572 -0.00575874 0)
(-0.00850976 -0.00548799 0)
(-0.00749268 -0.0051874 0)
(-0.00652939 -0.00485924 0)
(-0.00562434 -0.00450619 0)
(-0.00478143 -0.00413138 0)
(-0.00400402 -0.00373837 0)
(-0.00329481 -0.00333129 0)
(-0.00265578 -0.00291486 0)
(-0.00208818 -0.0024945 0)
(-0.00159244 -0.00207649 0)
(-0.00116818 -0.00166808 0)
(-0.000814168 -0.00127769 0)
(-0.000528349 -0.000915123 0)
(-0.000307757 -0.000591831 0)
(-0.00014846 -0.000321142 0)
(-4.76411e-05 -0.000118533 0)
(-5.84188e-06 -2.81859e-06 0)
(-1.74688e-05 0.000204835 0)
(-0.00011893 0.00067342 0)
(-0.00034118 0.00117684 0)
(-0.000664214 0.0016966 0)
(-0.00107778 0.00221767 0)
(-0.00157659 0.00272829 0)
(-0.00215499 0.00321955 0)
(-0.0028072 0.0036849 0)
(-0.00352761 0.00411976 0)
(-0.00431068 0.00452116 0)
(-0.00515092 0.00488738 0)
(-0.00604292 0.00521772 0)
(-0.00698134 0.00551228 0)
(-0.00796099 0.0057717 0)
(-0.0089768 0.00599707 0)
(-0.0100239 0.00618976 0)
(-0.0110974 0.00635133 0)
(-0.012193 0.00648344 0)
(-0.0133063 0.00658776 0)
(-0.0144331 0.00666597 0)
(-0.0155695 0.00671964 0)
(-0.0167117 0.0067503 0)
(-0.0178563 0.00675933 0)
(-0.0189998 0.00674796 0)
(-0.020139 0.00671733 0)
(-0.0212707 0.00666838 0)
(-0.0223921 0.00660194 0)
(-0.0235001 0.00651868 0)
(-0.024592 0.00641916 0)
(-0.0256652 0.00630379 0)
(-0.0267169 0.00617286 0)
(-0.0277444 0.00602659 0)
(-0.0287453 0.00586507 0)
(-0.0297168 0.00568835 0)
(-0.0306565 0.0054964 0)
(-0.0315617 0.00528914 0)
(-0.0324299 0.00506649 0)
(-0.0332584 0.00482833 0)
(-0.0340448 0.00457456 0)
(-0.0347864 0.0043051 0)
(-0.0354805 0.0040199 0)
(-0.0361247 0.00371898 0)
(-0.0367164 0.0034024 0)
(-0.0372531 0.00307032 0)
(-0.0377322 0.002723 0)
(-0.0381513 0.0023608 0)
(-0.0385082 0.00198423 0)
(-0.0388005 0.00159389 0)
(-0.0390262 0.00119056 0)
(-0.0391832 0.000775164 0)
(-0.0392699 0.000348771 0)
(-0.0392845 -8.7371e-05 0)
(-0.0392257 -0.00053185 0)
(-0.0390923 -0.000983089 0)
(-0.0388835 -0.00143935 0)
(-0.0385986 -0.00189872 0)
(-0.0382375 -0.00235914 0)
(-0.0378002 -0.00281841 0)
(-0.0372872 -0.00327418 0)
(-0.0366993 -0.003724 0)
(-0.0360378 -0.00416531 0)
(-0.0353042 -0.00459547 0)
(-0.0345008 -0.00501177 0)
(-0.0336299 -0.00541148 0)
(-0.0326946 -0.00579185 0)
(-0.0316983 -0.00615014 0)
(-0.0306448 -0.00648368 0)
(-0.0295383 -0.00678987 0)