/*--------------------------------*- C++ -*----------------------------------*\
  =========                 |
  \\      /  F ield         | OpenFOAM: The Open Source CFD Toolbox
   \\    /   O peration     | Website:  https://openfoam.org
    \\  /    A nd           | Version:  7
     \\/     M anipulation  |
\*---------------------------------------------------------------------------*/
FoamFile
{
    version     2.0;
    format      ascii;
    class       surfaceScalarField;
    location    "2.9997";
    object      phi;
}
// * * * * * * * * * * * * * * * * * * * * * * * * * * * * * * * * * * * * * //

dimensions      [0 3 -1 0 0 0 0];

internalField   nonuniform List<scalar> 
37105
(
-1.5288e-05
1.52879e-05
9.96902e-11
-3.49122e-05
1.96241e-05
1.23056e-10
-5.53658e-05
2.04534e-05
1.21619e-10
-7.69888e-05
2.16229e-05
1.14743e-10
-0.000100106
2.3117e-05
1.06061e-10
-0.000125373
2.5267e-05
1.02679e-10
-0.00015313
2.77567e-05
9.9857e-11
-0.000182851
2.97215e-05
8.71013e-11
-0.00021325
3.03981e-05
6.12717e-11
-0.00024268
2.94299e-05
2.54994e-11
-0.000269457
2.67771e-05
-1.71509e-11
-0.000291851
2.23942e-05
-6.43725e-11
-0.000307855
1.60041e-05
-1.12661e-10
-0.000315319
7.46451e-06
-1.59838e-10
-2.54641e-06
-1.97111e-10
-0.000312773
-1.50452e-05
3.03332e-05
-3.44614e-05
3.90402e-05
-5.47604e-05
4.07525e-05
-7.62815e-05
4.31439e-05
-9.93279e-05
4.61634e-05
-0.000124478
5.04166e-05
-0.000151969
5.52479e-05
-0.000181207
5.89597e-05
-0.00021093
6.01214e-05
-0.000239637
5.81368e-05
-0.00026583
5.29704e-05
-0.000287928
4.44921e-05
-0.000304046
3.21224e-05
-0.000312195
1.56131e-05
-3.84946e-06
-0.000310892
-1.45566e-05
4.48898e-05
-3.35494e-05
5.8033e-05
-5.35232e-05
6.07263e-05
-7.48118e-05
6.44325e-05
-9.76778e-05
6.90294e-05
-0.00012257
7.53085e-05
-0.000149589
8.22669e-05
-0.000178089
8.74597e-05
-0.000206908
8.89413e-05
-0.000234755
8.59839e-05
-0.000260272
7.84865e-05
-0.000281823
6.60432e-05
-0.000297489
4.77883e-05
-0.000305348
2.34724e-05
-5.28942e-06
-0.000303908
-1.38213e-05
5.87111e-05
-3.21599e-05
7.63716e-05
-5.16088e-05
8.01752e-05
-7.24853e-05
8.5309e-05
-9.4993e-05
9.15371e-05
-0.000119429
9.97442e-05
-0.000145767
0.000108606
-0.000173355
0.000115047
-0.00020116
0.000116746
-0.000228049
0.000112873
-0.000252655
0.000103092
-0.000273136
8.65244e-05
-0.00028753
6.21826e-05
-0.000294199
3.01411e-05
-7.73546e-06
-0.000291753
-1.28541e-05
7.15652e-05
-3.0264e-05
9.37815e-05
-4.89473e-05
9.88586e-05
-6.91686e-05
0.00010553
-9.10524e-05
0.000113421
-0.000114725
0.000123417
-0.000140038
0.000133918
-0.000166332
0.000141342
-0.000192666
0.00014308
-0.00021799
0.000138196
-0.000240928
0.000126031
-0.000259566
0.000105163
-0.000271975
7.45918e-05
-0.000276897
3.50623e-05
-1.1268e-05
-0.000273364
-1.16164e-05
8.31816e-05
-2.78253e-05
0.00010999
-4.54821e-05
0.000116515
-6.47572e-05
0.000124805
-8.56716e-05
0.000134335
-0.00010816
0.000145905
-0.000131957
0.000157715
-0.000156415
0.000165799
-0.000180662
0.000167328
-0.000203738
0.000161272
-0.00022438
0.000146673
-0.000240793
0.000121576
-0.000250963
8.47615e-05
-0.000253325
3.74251e-05
-1.72287e-05
-0.000247365
-1.00705e-05
9.32521e-05
-2.48164e-05
0.000124736
-4.11751e-05
0.000132874
-5.91808e-05
0.000142811
-7.87392e-05
0.000153894
-9.96012e-05
0.000166767
-0.000121427
0.000179541
-0.000143635
0.000188007
-0.000165478
0.000189171
-0.000186153
0.000181947
-0.000204642
0.000165161
-0.000219352
0.000136286
-0.000227992
9.34023e-05
-0.000227851
3.72834e-05
-2.70424e-05
-0.000218037
-8.23008e-06
0.000101482
-2.12367e-05
0.000137743
-3.60322e-05
0.00014767
-5.2454e-05
0.000159233
-7.02992e-05
0.000171739
-8.91727e-05
0.000185641
-0.000108721
0.00019909
-0.000128505
0.000207791
-0.000147979
0.000208644
-0.000166538
0.000200507
-0.000183403
0.000182026
-0.000197211
0.000150093
-0.000205421
0.000101613
-0.000203867
3.57292e-05
-4.06619e-05
-0.000190247
-6.1094e-06
0.000107592
-1.71082e-05
0.000148742
-3.01107e-05
0.000160672
-4.46681e-05
0.00017379
-6.05076e-05
0.000187578
-7.71387e-05
0.000202272
-9.42331e-05
0.000216185
-0.000111539
0.000225097
-0.000128724
0.00022583
-0.000145313
0.000217096
-0.000160678
0.000197391
-0.000173723
0.000163138
-0.000181908
0.000109798
-0.000180021
3.38424e-05
-5.66509e-05
-0.000164032
-3.7207e-06
0.000111312
-1.25137e-05
0.000157535
-2.35208e-05
0.000171679
-3.59659e-05
0.000186235
-4.95633e-05
0.000201176
-6.37635e-05
0.000216472
-7.82649e-05
0.000230686
-9.29752e-05
0.000239807
-0.000107709
0.000240563
-0.000122026
0.000231413
-0.000135391
0.000210756
-0.000146983
0.00017473
-0.000154248
0.000117063
-0.000152122
3.17169e-05
-7.29123e-05
-0.000135861
-1.03318e-06
0.000112345
-7.57903e-06
0.000164081
-1.63934e-05
0.000180494
-2.65063e-05
0.000196348
-3.76738e-05
0.000212343
-4.92985e-05
0.000228097
-6.10573e-05
0.000242445
-7.29399e-05
0.00025169
-8.48538e-05
0.000252477
-9.6373e-05
0.000242932
-0.000107026
0.000221409
-0.000116275
0.000183978
-0.000120817
0.000121605
-0.000116786
2.76858e-05
-8.82418e-05
-0.000101456
1.56461e-06
0.000110781
-2.47071e-06
0.000168116
-8.8462e-06
0.000186869
-1.64727e-05
0.000203975
-2.50684e-05
0.000220939
-3.39909e-05
0.000237019
-4.28637e-05
0.000251317
-5.16773e-05
0.000260503
-6.03963e-05
0.000261196
-6.86777e-05
0.000251213
-7.60722e-05
0.000228803
-8.24795e-05
0.000190385
-8.30194e-05
0.000122145
-7.40044e-05
1.86708e-05
-0.00010342
-5.88264e-05
4.16529e-06
0.000106616
2.87047e-06
0.000169411
-9.84483e-07
0.000190724
-6.06062e-06
0.000209051
-1.1993e-05
0.000226871
-1.81245e-05
0.000243151
-2.40008e-05
0.000257194
-2.95454e-05
0.000266048
-3.47478e-05
0.000266399
-3.93939e-05
0.000255859
-4.30703e-05
0.00023248
-4.59483e-05
0.000193263
-4.2815e-05
0.000119012
-2.61795e-05
2.03529e-06
-0.000120614
-8.98507e-06
6.83868e-06
9.97769e-05
8.30964e-06
0.00016794
6.89485e-06
0.000192139
4.47096e-06
0.000211475
1.25551e-06
0.000230087
-2.08051e-06
0.000246487
-4.89189e-06
0.000260005
-7.09098e-06
0.000268247
-8.55648e-06
0.000267864
-9.06255e-06
0.000256366
-8.51258e-06
0.00023193
-5.60578e-06
0.000190356
-6.43471e-08
0.00011347
2.25e-05
-2.0529e-05
-0.000137955
3.9841e-05
9.43163e-06
9.03453e-05
1.362e-05
0.000163751
1.46638e-05
0.000191095
1.48489e-05
0.00021129
1.45557e-05
0.00023038
1.42281e-05
0.000246814
1.45611e-05
0.000259672
1.59053e-05
0.000266903
1.84343e-05
0.000265335
2.26585e-05
0.000252141
2.93249e-05
0.000225263
4.06378e-05
0.000179044
5.15177e-05
0.00010259
7.10818e-05
-4.00931e-05
-0.000157663
9.07894e-05
1.18131e-05
7.85322e-05
1.86628e-05
0.000156902
2.21014e-05
0.000187656
2.48384e-05
0.000208553
2.73796e-05
0.000227839
3.00276e-05
0.000244166
3.35206e-05
0.000256179
3.8408e-05
0.000262015
4.49525e-05
0.000258791
5.40237e-05
0.00024307
6.58648e-05
0.000213422
8.5489e-05
0.000159419
0.000101204
8.68751e-05
0.000118473
-5.73617e-05
-0.000178835
0.000139645
1.38308e-05
6.47014e-05
2.32441e-05
0.000147488
2.90021e-05
0.000181898
3.41612e-05
0.000203393
3.94297e-05
0.00022257
4.49859e-05
0.00023861
5.15002e-05
0.000249665
5.97898e-05
0.000253726
7.0006e-05
0.000248575
8.34526e-05
0.000229623
9.79706e-05
0.000198904
0.000122783
0.000134607
0.000143741
6.59177e-05
0.000161077
-7.46982e-05
-0.000199775
0.000182017
1.52824e-05
4.9419e-05
2.7145e-05
0.000135626
3.51832e-05
0.00017386
4.25593e-05
0.000196017
5.03562e-05
0.000214774
5.87203e-05
0.000230246
6.79943e-05
0.000240391
7.93391e-05
0.000242381
9.27778e-05
0.000235136
0.000110096
0.000212306
0.000126769
0.000182231
0.000152349
0.000109027
0.000177096
4.11708e-05
0.000197288
-9.48901e-05
-0.000220009
0.000217522
1.58228e-05
3.35962e-05
3.01178e-05
0.000121331
4.04829e-05
0.000163495
4.98375e-05
0.000186663
5.97904e-05
0.000204821
7.07525e-05
0.000219284
8.26467e-05
0.000228497
9.63973e-05
0.00022863
0.000112691
0.000218842
0.000132988
0.000192009
0.000153799
0.00016142
0.000177978
8.48478e-05
0.000205043
1.41056e-05
0.000227949
-0.000117797
-0.000237983
0.000245924
1.488e-05
1.87162e-05
3.19048e-05
0.000104306
4.46966e-05
0.000150703
5.58539e-05
0.000175505
6.75571e-05
0.000193117
8.05401e-05
0.000206301
9.49098e-05
0.000214127
0.000110121
0.000213419
0.000129348
0.000199615
0.000150751
0.000170607
0.000177311
0.000134859
0.000199783
6.2376e-05
0.000228776
-1.4887e-05
0.000251458
-0.000140479
-0.000252073
0.000265548
1.22386e-05
6.47769e-06
3.22878e-05
8.42566e-05
4.75956e-05
0.000135395
6.04393e-05
0.000162662
7.3599e-05
0.000179958
8.77708e-05
0.000192129
0.000104725
0.000197172
0.000120578
0.000197566
0.000141825
0.000178368
0.000162597
0.000149834
0.000193761
0.000103696
0.000214733
4.14035e-05
0.000245926
-4.60797e-05
0.000265647
-0.0001602
-0.000262417
0.00027599
8.69601e-06
-2.21833e-06
3.105e-05
6.19026e-05
4.8929e-05
0.000117516
6.35501e-05
0.000148041
7.80644e-05
0.000165444
9.22733e-05
0.00017792
0.000111277
0.000178169
0.000128846
0.000179997
0.000150794
0.00015642
0.000170605
0.000130023
0.000203041
7.12596e-05
0.00022289
2.15547e-05
0.000256532
-7.97212e-05
0.000270754
-0.000174422
-0.000270113
0.00027845
5.00929e-06
-7.22762e-06
2.75155e-05
3.93964e-05
4.84533e-05
9.65786e-05
6.50788e-05
0.000131415
8.10803e-05
0.000149442
9.51139e-05
0.000163887
0.000113312
0.000159971
0.000133544
0.000159765
0.000156202
0.000133762
0.000176959
0.000109266
0.00020584
4.23787e-05
0.000227214
1.80278e-07
0.000260422
-0.000112929
0.000266948
-0.000180948
-0.000278686
0.000275521
1.37992e-06
-8.60754e-06
2.12282e-05
1.95481e-05
4.582e-05
7.19868e-05
6.49779e-05
0.000112257
8.19939e-05
0.000132426
9.72383e-05
0.000148642
0.000112506
0.000144703
0.000132743
0.000139529
0.000155205
0.000111299
0.000178822
8.56491e-05
0.000201351
1.98499e-05
0.000228766
-2.72347e-05
0.000254233
-0.000138396
0.000255673
-0.000182387
-0.000295517
0.000272504
-1.49441e-06
-7.11313e-06
1.37358e-05
4.31787e-06
4.03174e-05
4.54053e-05
6.30869e-05
8.94876e-05
8.0572e-05
0.000114941
9.71274e-05
0.000132087
0.000111536
0.000130294
0.00012869
0.000122375
0.000150077
8.9912e-05
0.000174525
6.1201e-05
0.000194703
-3.28283e-07
0.000225203
-5.77346e-05
0.000237341
-0.000150534
0.000244171
-0.000189217
-0.000325941
0.000274595
-2.02357e-06
-5.08956e-06
8.21777e-06
-5.92347e-06
3.17523e-05
2.18707e-05
5.78727e-05
6.33673e-05
7.69516e-05
9.58621e-05
9.35524e-05
0.000115486
0.000109487
0.000114359
0.000123917
0.000107946
0.000143827
7.00022e-05
0.000164944
4.00842e-05
0.000188234
-2.36187e-05
0.000212196
-8.16962e-05
0.000215933
-0.000154271
0.000241082
-0.000214366
-0.000367507
0.000282648
-2.10758e-07
-4.8788e-06
6.89249e-06
-1.30267e-05
2.38992e-05
4.864e-06
4.90313e-05
3.82353e-05
6.99894e-05
7.4904e-05
8.66086e-05
9.88668e-05
0.000102888
9.808e-05
0.000117507
9.33264e-05
0.000135355
5.21544e-05
0.000153469
2.197e-05
0.000177532
-4.76814e-05
0.000188001
-9.21653e-05
0.000201607
-0.000167878
0.000249269
-0.000262029
-0.000410636
0.000292398
2.44076e-06
-7.31956e-06
9.74477e-06
-2.03307e-05
2.11208e-05
-6.51205e-06
3.9928e-05
1.94281e-05
5.94908e-05
5.53412e-05
7.59195e-05
8.24382e-05
9.10153e-05
8.29841e-05
0.000106152
7.81894e-05
0.000120897
3.74095e-05
0.000139485
3.38278e-06
0.000154558
-6.27551e-05
0.000164334
-0.000101941
0.000204433
-0.000207977
0.00026205
-0.000319646
-0.000446676
0.00029809
5.06989e-06
-1.23895e-05
1.3323e-05
-2.85838e-05
2.20651e-05
-1.52542e-05
3.32344e-05
8.25876e-06
4.74404e-05
4.11353e-05
6.12426e-05
6.86359e-05
7.43343e-05
6.98924e-05
8.76496e-05
6.48741e-05
0.000101292
2.37675e-05
0.000116366
-1.16912e-05
0.000125215
-7.16043e-05
0.000160003
-0.000136729
0.00022004
-0.000268014
0.000269348
-0.000368954
-0.000474337
0.000297008
6.76278e-06
-1.91522e-05
1.46313e-05
-3.64524e-05
2.15415e-05
-2.21644e-05
2.71501e-05
2.65014e-06
3.47703e-05
3.35151e-05
4.4009e-05
5.93972e-05
5.27294e-05
6.11721e-05
6.37134e-05
5.38901e-05
7.50658e-05
1.24151e-05
8.55634e-05
-2.21888e-05
0.000115103
-0.000101144
0.000178328
-0.000199955
0.000233254
-0.000322939
0.000266132
-0.000401832
-0.00049956
0.000291356
6.8843e-06
-2.60365e-05
1.27205e-05
-4.22885e-05
1.69789e-05
-2.64228e-05
1.86968e-05
9.32287e-07
2.07293e-05
3.14825e-05
2.46662e-05
5.54604e-05
2.79382e-05
5.79e-05
3.48004e-05
4.70279e-05
4.21911e-05
5.02439e-06
7.19539e-05
-5.19515e-05
0.000133954
-0.000163144
0.000198874
-0.000264875
0.000239439
-0.000363504
0.000265834
-0.000428227
-0.000502882
0.000269156
5.33197e-06
-3.13685e-05
8.01086e-06
-4.49674e-05
8.81782e-06
-2.72298e-05
7.04319e-06
2.70692e-06
4.93518e-06
3.35905e-05
3.42661e-06
5.69689e-05
2.23948e-06
5.90871e-05
4.0639e-06
4.52035e-05
2.80198e-05
-1.89316e-05
9.14767e-05
-0.000115408
0.000158331
-0.000229998
0.000208581
-0.000315125
0.000238625
-0.000393548
0.000259277
-0.000448878
-0.000503758
0.000260153
2.49321e-06
-3.38617e-05
1.26331e-06
-4.37375e-05
-1.61793e-06
-2.43485e-05
-6.51936e-06
7.60835e-06
-1.30916e-05
4.01628e-05
-2.02232e-05
6.41006e-05
-2.63289e-05
6.51928e-05
-8.24498e-06
2.71196e-05
4.86399e-05
-7.58164e-05
0.000119868
-0.000186636
0.000172487
-0.000282617
0.000210887
-0.000353525
0.000235572
-0.000418233
0.00024865
-0.000461957
-0.000506978
0.00025187
-9.7695e-07
-3.28848e-05
-5.67246e-06
-3.9042e-05
-1.20784e-05
-1.79426e-05
-2.03141e-05
1.58441e-05
-3.105e-05
5.08987e-05
-4.1588e-05
7.46386e-05
-4.09141e-05
6.45189e-05
8.91288e-06
-2.27075e-05
8.02388e-05
-0.000147142
0.000137789
-0.000244186
0.000179906
-0.000324735
0.000210759
-0.000384377
0.000229312
-0.000436787
0.000240443
-0.000473088
-0.000514475
0.00024794
-4.27578e-06
-2.8609e-05
-1.23208e-05
-3.0997e-05
-2.18765e-05
-8.38694e-06
-3.2621e-05
2.65885e-05
-4.4777e-05
6.30547e-05
-5.2518e-05
8.23797e-05
-2.49806e-05
3.69814e-05
4.29587e-05
-9.06467e-05
0.000101378
-0.000205561
0.000149502
-0.00029231
0.000184096
-0.000359329
0.000207845
-0.000408127
0.000223171
-0.000452112
0.000233191
-0.000483108
-0.000519629
0.000238346
-6.91657e-06
-2.16924e-05
-1.74856e-05
-2.0428e-05
-2.9009e-05
3.13645e-06
-4.03245e-05
3.7904e-05
-4.83599e-05
7.10901e-05
-4.74239e-05
8.14437e-05
2.83815e-06
-1.32806e-05
6.91012e-05
-0.00015691
0.000118962
-0.000255422
0.000157754
-0.000331102
0.00018496
-0.000386535
0.000204209
-0.000427376
0.000216365
-0.000464268
0.000224579
-0.000491322
-0.000526943
0.000231892
-8.35982e-06
-1.33326e-05
-1.99419e-05
-8.84587e-06
-3.11266e-05
1.43212e-05
-4.01716e-05
4.69491e-05
-4.12928e-05
7.22113e-05
-2.0496e-05
6.06469e-05
3.74908e-05
-7.12674e-05
8.77585e-05
-0.000207177
0.000130991
-0.000298655
0.000162414
-0.000362525
0.000184255
-0.000408376
0.000199296
-0.000442417
0.000209395
-0.000474367
0.000217846
-0.000499773
-0.000532175
0.000223079
-8.50854e-06
-4.82406e-06
-1.9706e-05
2.35162e-06
-2.927e-05
2.38852e-05
-3.42047e-05
5.18837e-05
-3.12457e-05
6.92523e-05
4.22126e-06
2.51799e-05
6.34297e-05
-0.000130476
0.000106032
-0.000249779
0.000140055
-0.000332678
0.00016495
-0.00038742
0.000181791
-0.000425218
0.000194073
-0.000454698
0.000202816
-0.000483109
0.000209481
-0.000506438
-0.000538095
0.0002154
-7.44391e-06
2.61985e-06
-1.69987e-05
1.19064e-05
-2.37249e-05
3.06115e-05
-2.29411e-05
5.10999e-05
-1.42704e-05
6.05816e-05
2.96157e-05
-1.87062e-05
7.96817e-05
-0.000180542
0.000118027
-0.000288125
0.000145555
-0.000360206
0.000164889
-0.000406754
0.000178422
-0.00043875
0.000188425
-0.000464702
0.000195644
-0.000490328
0.00020267
-0.000513464
-0.000543269
0.000207844
-5.64566e-06
8.2655e-06
-1.27029e-05
1.89637e-05
-1.6128e-05
3.40365e-05
-1.23426e-05
4.73144e-05
5.61677e-06
4.26223e-05
5.58886e-05
-6.89781e-05
9.5541e-05
-0.000220194
0.000127173
-0.000319757
0.00014888
-0.000381912
0.000163784
-0.000421658
0.000174239
-0.000449205
0.000182477
-0.00047294
0.000189204
-0.000497056
0.000194951
-0.000519211
-0.000548023
0.000199706
-3.63144e-06
1.18969e-05
-8.22725e-06
2.35595e-05
-8.71323e-06
3.45225e-05
-4.99419e-06
4.35954e-05
2.00903e-05
1.75377e-05
7.24055e-05
-0.000121293
0.000106726
-0.000254515
0.000131929
-0.000344961
0.00014919
-0.000399172
0.000160846
-0.000433315
0.00016942
-0.00045778
0.000176546
-0.000480066
0.000182138
-0.000502648
0.000187949
-0.000525022
-0.000552911
0.000192837
-1.80518e-06
1.37021e-05
-4.20417e-06
2.59585e-05
-2.39676e-06
3.27151e-05
2.0306e-06
3.9168e-05
3.4997e-05
-1.54286e-05
8.25173e-05
-0.000168814
0.000115052
-0.00028705
0.000135422
-0.000365331
0.000148547
-0.000412297
0.000157543
-0.000442311
0.000164402
-0.000464639
0.000170313
-0.000485976
0.000175701
-0.000508036
0.000180802
-0.000530123
-0.00055685
0.000184741
-5.16701e-07
1.42188e-05
-9.14989e-07
2.63568e-05
6.79002e-07
3.11211e-05
9.87406e-06
2.9973e-05
5.15184e-05
-5.7073e-05
9.18314e-05
-0.000209127
0.000119582
-0.0003148
0.000135881
-0.000381629
0.000145994
-0.00042241
0.000153019
-0.000449336
0.000158811
-0.000470432
0.000164216
-0.000491381
0.000168817
-0.000512637
0.00017363
-0.000534936
-0.000561215
0.000177995
1.71329e-07
1.40475e-05
8.83625e-07
2.56445e-05
1.05602e-06
3.09487e-05
1.67779e-05
1.42511e-05
6.48412e-05
-0.000105136
9.89589e-05
-0.000243244
0.000121734
-0.000337575
0.00013511
-0.000395005
0.000143
-0.0004303
0.000148558
-0.000454893
0.000153391
-0.000475265
0.000157902
-0.000495892
0.000162306
-0.000517041
0.000166791
-0.000539422
-0.000564612
0.000170188
5.40553e-07
1.35069e-05
1.7228e-06
2.44622e-05
1.54006e-06
3.11315e-05
2.52988e-05
-9.5076e-06
7.29268e-05
-0.000152764
0.000103897
-0.000274215
0.000122173
-0.000355852
0.000132536
-0.000405368
0.000138741
-0.000436506
0.000143278
-0.00045943
0.000147447
-0.000479434
0.000151679
-0.000500124
0.000155564
-0.000520926
0.000159549
-0.000543406
-0.000568352
0.000163288
7.67608e-07
1.27393e-05
2.0082e-06
2.32216e-05
4.26006e-06
2.88796e-05
3.7255e-05
-4.25026e-05
7.84305e-05
-0.00019394
0.000105954
-0.000301738
0.000121068
-0.000370965
0.000129339
-0.000413639
0.000134352
-0.000441519
0.000138168
-0.000463246
0.00014182
-0.000483086
0.000145375
-0.00050368
0.000148983
-0.000524533
0.000152818
-0.000547241
-0.00057134
0.000155806
7.089e-07
1.20304e-05
5.80634e-07
2.33499e-05
8.79788e-06
2.06623e-05
4.91987e-05
-8.29034e-05
8.32471e-05
-0.000227988
0.000106045
-0.000324536
0.000118638
-0.000383558
0.000125209
-0.00042021
0.000129253
-0.000445563
0.000132519
-0.000466512
0.000135723
-0.000486289
0.00013907
-0.000507027
0.000142336
-0.000527799
0.000145615
-0.00055052
-0.000574434
0.000148709
2.86716e-07
1.17437e-05
-1.25714e-06
2.48937e-05
1.33995e-05
6.00566e-06
5.7629e-05
-0.000127133
8.6783e-05
-0.000257142
0.000105022
-0.000342775
0.000115211
-0.000393748
0.000120698
-0.000425697
0.000124174
-0.000449039
0.000127052
-0.00046939
0.000129951
-0.000489189
0.000132793
-0.000509869
0.00013572
-0.000530726
0.000138878
-0.000553678
-0.000577031
0.000141475
-2.08576e-07
1.19523e-05
-2.42959e-06
2.71148e-05
2.03306e-05
-1.67545e-05
6.15058e-05
-0.000168308
8.83038e-05
-0.00028394
0.000103237
-0.000357708
0.00011131
-0.000401821
0.000115744
-0.000430131
0.000118694
-0.000451989
0.000121252
-0.000471948
0.000123804
-0.000491741
0.000126448
-0.000512513
0.00012913
-0.000533408
0.000131765
-0.000556313
-0.000579511
0.000134246
-5.45517e-07
1.24978e-05
-7.94972e-08
2.66487e-05
2.93149e-05
-4.61489e-05
6.45462e-05
-0.000203539
8.79511e-05
-0.000307345
0.000100538
-0.000370294
0.000106973
-0.000408256
0.000110653
-0.000433812
0.000113285
-0.00045462
0.000115598
-0.000474261
0.000117934
-0.000494077
0.000120195
-0.000514774
0.000122511
-0.000535724
0.000124984
-0.000558786
-0.000581676
0.000127148
-8.67079e-07
1.33649e-05
3.34724e-06
2.24344e-05
3.82486e-05
-8.10503e-05
6.71226e-05
-0.000232413
8.64649e-05
-0.000326687
9.70112e-05
-0.000380841
0.000102363
-0.000413608
0.000105419
-0.000436868
0.000107684
-0.000456885
0.000109754
-0.000476331
0.000111792
-0.000496115
0.000113843
-0.000516826
0.000115953
-0.000537833
0.000117967
-0.000560801
-0.000583571
0.000119863
-1.09993e-06
1.44648e-05
7.16659e-06
1.41679e-05
4.44708e-05
-0.000118355
6.89482e-05
-0.000256891
8.44202e-05
-0.000342159
9.29919e-05
-0.000389412
9.74554e-05
-0.000418071
0.000100123
-0.000439535
0.000102177
-0.000458939
0.000104031
-0.000478185
0.000105866
-0.00049795
0.000107604
-0.000518563
0.000109346
-0.000539575
0.000111147
-0.000562602
-0.000585239
0.000112815
-1.22266e-06
1.56875e-05
1.13729e-05
1.57232e-06
4.74312e-05
-0.000154413
6.97105e-05
-0.00027917
8.20425e-05
-0.000354491
8.87686e-05
-0.000396139
9.2466e-05
-0.000421768
9.47822e-05
-0.000441851
9.65774e-05
-0.000460734
9.8212e-05
-0.000479819
9.9768e-05
-0.000499506
0.000101272
-0.000520067
0.00010281
-0.000541113
0.000104217
-0.000564009
-0.000586557
0.000105535
-1.85096e-06
1.75384e-05
1.68628e-05
-1.71414e-05
4.81797e-05
-0.00018573
6.87639e-05
-0.000299754
7.9249e-05
-0.000364976
8.4481e-05
-0.000401371
8.74331e-05
-0.000424721
8.94406e-05
-0.000443859
9.10619e-05
-0.000462355
9.24878e-05
-0.000481245
9.38324e-05
-0.000500851
9.50534e-05
-0.000521288
9.62307e-05
-0.00054229
9.73835e-05
-0.000565161
-0.000587673
9.84995e-05
-2.15404e-06
1.96925e-05
2.1889e-05
-4.11845e-05
4.9088e-05
-0.000212929
6.67481e-05
-0.000317414
7.58333e-05
-0.000374062
8.01081e-05
-0.000405645
8.24804e-05
-0.000427093
8.41573e-05
-0.000445536
8.55225e-05
-0.000463721
8.67266e-05
-0.00048245
8.78027e-05
-0.000501927
8.87728e-05
-0.000522259
8.97287e-05
-0.000543246
9.05261e-05
-0.000565959
-0.00058842
9.12727e-05
-1.43869e-06
2.11312e-05
2.6117e-05
-6.87402e-05
4.94736e-05
-0.000236285
6.43536e-05
-0.000332294
7.20063e-05
-0.000381714
7.5615e-05
-0.000409254
7.75535e-05
-0.000429031
7.893e-05
-0.000446912
8.00769e-05
-0.000464868
8.10482e-05
-0.000483421
8.18938e-05
-0.000502773
8.25921e-05
-0.000522957
8.31991e-05
-0.000543853
8.37156e-05
-0.000566475
-0.00058896
8.4256e-05
1.36421e-07
2.09947e-05
2.91776e-05
-9.77814e-05
4.94072e-05
-0.000256515
6.1711e-05
-0.000344598
6.7997e-05
-0.000388
7.103e-05
-0.000412287
7.2671e-05
-0.000430672
7.37836e-05
-0.000448025
7.46553e-05
-0.000465739
7.53767e-05
-0.000484142
7.59503e-05
-0.000503346
7.63836e-05
-0.00052339
7.67534e-05
-0.000544223
7.69507e-05
-0.000566673
-0.000589125
7.71154e-05
1.86816e-06
1.91266e-05
3.10041e-05
-0.000126917
4.90106e-05
-0.000274521
5.90005e-05
-0.000354588
6.39905e-05
-0.00039299
6.64475e-05
-0.000414744
6.77976e-05
-0.000432022
6.86747e-05
-0.000448902
6.93178e-05
-0.000466382
6.97822e-05
-0.000484607
7.01002e-05
-0.000503664
7.02593e-05
-0.000523549
7.02941e-05
-0.000544258
7.02036e-05
-0.000566582
-0.000589068
7.01468e-05
4.39132e-06
1.47353e-05
3.14973e-05
-0.000154023
4.81789e-05
-0.000291203
5.6253e-05
-0.000362662
6.00371e-05
-0.000396774
6.1915e-05
-0.000416622
6.29804e-05
-0.000433088
6.36275e-05
-0.000449549
6.40119e-05
-0.000466767
6.4217e-05
-0.000484812
6.42563e-05
-0.000503704
6.41362e-05
-0.000523429
6.39159e-05
-0.000544038
6.35273e-05
-0.000566193
-0.000588666
6.31249e-05
7.71323e-06
7.02203e-06
3.13698e-05
-0.00017768
4.65774e-05
-0.000306411
5.33992e-05
-0.000369484
5.61747e-05
-0.00039955
5.74856e-05
-0.000417933
5.82197e-05
-0.000433822
5.86196e-05
-0.000449949
5.8774e-05
-0.000466921
5.87185e-05
-0.000484756
5.84866e-05
-0.000503472
5.80835e-05
-0.000523026
5.75345e-05
-0.000543489
5.68561e-05
-0.000565515
-0.000588095
5.6285e-05
1.08934e-05
-3.87137e-06
3.1653e-05
-0.000198439
4.45941e-05
-0.000319352
5.02824e-05
-0.000375172
5.23265e-05
-0.000401594
5.31415e-05
-0.000418748
5.35459e-05
-0.000434226
5.36845e-05
-0.000450088
5.35773e-05
-0.000466814
5.32608e-05
-0.00048444
5.2749e-05
-0.00050296
5.2056e-05
-0.000522333
5.12331e-05
-0.000542666
5.0257e-05
-0.000564539
-0.000587175
4.9337e-05
1.34837e-05
-1.7355e-05
3.1628e-05
-0.000216584
4.23835e-05
-0.000330107
4.69344e-05
-0.000379723
4.84265e-05
-0.000403086
4.88645e-05
-0.000419186
4.8949e-05
-0.000434311
4.88094e-05
-0.000449948
4.84507e-05
-0.000466455
4.78668e-05
-0.000483856
4.70756e-05
-0.000502169
4.60924e-05
-0.00052135
4.49437e-05
-0.000541517
4.36589e-05
-0.000563254
-0.000585923
4.24078e-05
1.51346e-05
-3.24896e-05
3.1127e-05
-0.000232576
3.99735e-05
-0.000338954
4.34693e-05
-0.000383219
4.44915e-05
-0.000404108
4.46255e-05
-0.00041932
4.4431e-05
-0.000434116
4.4017e-05
-0.000449534
4.33816e-05
-0.00046582
4.25274e-05
-0.000483002
4.1454e-05
-0.000501095
4.01725e-05
-0.000520068
3.873e-05
-0.000540074
3.71269e-05
-0.000561651
-0.00058425
3.54532e-05
1.58253e-05
-4.83149e-05
3.01474e-05
-0.000246898
3.73993e-05
-0.000346206
3.99764e-05
-0.000385796
4.05718e-05
-0.000404704
4.04376e-05
-0.000419186
3.99794e-05
-0.000433658
3.92923e-05
-0.000448847
3.83891e-05
-0.000464917
3.72561e-05
-0.000481869
3.5896e-05
-0.000499735
3.43178e-05
-0.00051849
3.25421e-05
-0.000538299
3.06035e-05
-0.000559713
-0.000582234
2.85875e-05
1.58132e-05
-6.41281e-05
2.87461e-05
-0.000259831
3.46922e-05
-0.000352152
3.64971e-05
-0.000387601
3.66957e-05
-0.000404902
3.63016e-05
-0.000418792
3.55969e-05
-0.000432953
3.46466e-05
-0.000447897
3.34633e-05
-0.000463733
3.20522e-05
-0.000480457
3.04063e-05
-0.00049809
2.85271e-05
-0.000516611
2.64406e-05
-0.000536212
2.41332e-05
-0.000557405
-0.00057984
2.17398e-05
1.53756e-05
-7.95037e-05
2.70337e-05
-0.000271489
3.18898e-05
-0.000357008
3.30507e-05
-0.000388762
3.28894e-05
-0.000404741
3.22388e-05
-0.000418141
3.12848e-05
-0.000431999
3.00708e-05
-0.000446683
2.86162e-05
-0.000462279
2.69199e-05
-0.000478761
2.49836e-05
-0.000496153
2.28098e-05
-0.000514437
2.04036e-05
-0.000533806
1.76869e-05
-0.000554688
-0.000577123
1.49691e-05
1.46701e-05
-9.41738e-05
2.5106e-05
-0.000281925
2.90308e-05
-0.000360933
2.9653e-05
-0.000389384
2.91638e-05
-0.000404252
2.82533e-05
-0.000417231
2.70495e-05
-0.000430795
2.55737e-05
-0.000445207
2.38405e-05
-0.000460546
2.18619e-05
-0.000476783
1.96367e-05
-0.000493928
1.71635e-05
-0.000511964
1.44654e-05
-0.000531108
1.13588e-05
-0.000551582
-0.000573928
8.16448e-06
1.37948e-05
-0.000107969
2.30493e-05
-0.00029118
2.61566e-05
-0.00036404
2.6319e-05
-0.000389546
2.55304e-05
-0.000403463
2.43597e-05
-0.00041606
2.28966e-05
-0.000429332
2.11538e-05
-0.000443464
1.9146e-05
-0.000458538
1.68765e-05
-0.000474513
1.43538e-05
-0.000491405
1.15906e-05
-0.000509201
8.57253e-06
-0.00052809
5.2225e-06
-0.000548232
-0.000569957
1.25066e-06
1.28e-05
-0.000120769
2.0921e-05
-0.000299301
2.33071e-05
-0.000366426
2.30664e-05
-0.000389306
2.19941e-05
-0.000402391
2.05578e-05
-0.000414624
1.883e-05
-0.000427604
1.68162e-05
-0.00044145
1.4529e-05
-0.000456251
1.19696e-05
-0.000471954
9.14271e-06
-0.000488578
6.08152e-06
-0.000506139
2.68594e-06
-0.000524694
-6.20857e-07
-0.000544925
-0.000565513
-5.0647e-06
1.16285e-05
-0.000132397
1.87726e-05
-0.000306445
2.05206e-05
-0.000368174
1.99117e-05
-0.000388697
1.85608e-05
-0.00040104
1.68545e-05
-0.000412917
1.4854e-05
-0.000425604
1.25621e-05
-0.000439158
9.99404e-06
-0.000453683
7.13458e-06
-0.000469094
3.99971e-06
-0.000485444
5.60108e-07
-0.0005027
-2.99286e-06
-0.000521141
-6.9576e-06
-0.00054096
-0.000561168
-1.13026e-05
1.04916e-05
-0.000142889
1.66547e-05
-0.000312608
1.78165e-05
-0.000369336
1.68639e-05
-0.000387744
1.52291e-05
-0.000399405
1.3246e-05
-0.000410934
1.0967e-05
-0.000423325
8.39377e-06
-0.000436585
5.52898e-06
-0.000450818
2.36907e-06
-0.000465934
-1.04544e-06
-0.000482029
-4.68014e-06
-0.000499065
-8.53692e-06
-0.000517284
-1.29733e-05
-0.000536524
-0.000556603
-1.75382e-05
9.463e-06
-0.000152352
1.46129e-05
-0.000317758
1.52043e-05
-0.000369927
1.39126e-05
-0.000386452
1.19979e-05
-0.000397491
9.73595e-06
-0.000408672
7.16848e-06
-0.000420757
4.30582e-06
-0.000433722
1.11524e-06
-0.000447627
-2.28765e-06
-0.000462531
-5.96928e-06
-0.000478347
-9.88686e-06
-0.000495148
-1.40932e-05
-0.000513078
-1.88351e-05
-0.000531782
-0.000551731
-2.37066e-05
8.47524e-06
-0.000160827
1.26604e-05
-0.000321943
1.26938e-05
-0.000369961
1.10626e-05
-0.000384821
8.86547e-06
-0.000395293
6.31764e-06
-0.000406125
3.45067e-06
-0.00041789
2.40445e-07
-0.000430512
-3.13659e-06
-0.00044425
-6.83739e-06
-0.000458831
-1.08138e-05
-0.000474371
-1.50439e-05
-0.000490917
-1.96114e-05
-0.000508511
-2.459e-05
-0.000526803
-0.000546522
-2.97993e-05
7.52481e-06
-0.000168352
1.08039e-05
-0.000325222
1.02884e-05
-0.000369445
8.31896e-06
-0.000382852
5.83323e-06
-0.000392808
2.98183e-06
-0.000403273
-2.15865e-07
-0.000414693
-3.58673e-06
-0.000427141
-7.3024e-06
-0.000440534
-1.13087e-05
-0.000454824
-1.55829e-05
-0.000470097
-2.01338e-05
-0.000486367
-2.50508e-05
-0.000503594
-3.0265e-05
-0.000521589
-0.000541003
-3.57835e-05
6.61429e-06
-0.000174966
9.04243e-06
-0.00032765
7.99307e-06
-0.000368396
5.68164e-06
-0.00038054
2.89334e-06
-0.000390019
-2.97468e-07
-0.000400082
-3.66383e-06
-0.000411326
-7.37157e-06
-0.000423434
-1.13875e-05
-0.000436519
-1.56921e-05
-0.00045052
-2.02717e-05
-0.000465517
-2.51458e-05
-0.000481492
-3.03607e-05
-0.000498379
-3.58614e-05
-0.000516089
-0.000535189
-4.16758e-05
5.74818e-06
-0.000180714
7.3755e-06
-0.000329278
5.81465e-06
-0.000366835
3.14797e-06
-0.000377874
-2.49764e-08
-0.000386846
-3.35675e-06
-0.000396751
-7.05831e-06
-0.000407625
-1.10727e-05
-0.000419419
-1.53876e-05
-0.000432204
-1.99919e-05
-0.000445915
-2.48781e-05
-0.000460631
-3.00663e-05
-0.000476304
-3.55805e-05
-0.000492864
-4.13781e-05
-0.000510291
-0.000529093
-4.74741e-05
4.92947e-06
-0.000185644
5.79791e-06
-0.000330146
3.75439e-06
-0.000364791
6.94909e-07
-0.000374814
-2.64669e-06
-0.000383505
-6.35611e-06
-0.000393041
-1.03686e-05
-0.000403612
-1.46861e-05
-0.000415102
-1.93003e-05
-0.000427589
-2.42049e-05
-0.000441011
-2.93981e-05
-0.000455438
-3.48975e-05
-0.000470805
-4.07153e-05
-0.000487047
-4.68195e-05
-0.000504187
-0.000522702
-5.32101e-05
4.16045e-06
-0.000189804
4.30825e-06
-0.000330294
1.80054e-06
-0.000362284
-1.57609e-06
-0.000371437
-5.24838e-06
-0.000379833
-9.2663e-06
-0.000389023
-1.35886e-05
-0.00039929
-1.82104e-05
-0.00041048
-2.31259e-05
-0.000422674
-2.83316e-05
-0.000435805
-3.38284e-05
-0.000449941
-3.96349e-05
-0.000464998
-4.57681e-05
-0.000480913
-5.21919e-05
-0.000497763
-0.00051602
-5.88741e-05
3.43964e-06
-0.000193244
2.91298e-06
-0.000329767
-1.27769e-07
-0.000359243
-3.75304e-06
-0.000367812
-7.76217e-06
-0.000375823
-1.20903e-05
-0.000384695
-1.67205e-05
-0.00039466
-2.16463e-05
-0.000405554
-2.68634e-05
-0.000417457
-3.23703e-05
-0.000430298