/*--------------------------------*- C++ -*----------------------------------*\
  =========                 |
  \\      /  F ield         | OpenFOAM: The Open Source CFD Toolbox
   \\    /   O peration     | Website:  https://openfoam.org
    \\  /    A nd           | Version:  7
     \\/     M anipulation  |
\*---------------------------------------------------------------------------*/
FoamFile
{
    version     2.0;
    format      ascii;
    class       volVectorField;
    location    "29.0004";
    object      U;
}
// * * * * * * * * * * * * * * * * * * * * * * * * * * * * * * * * * * * * * //

dimensions      [0 1 -1 0 0 0 0];

internalField   nonuniform List<vector> 
18750
(
(-0.0349908 0.0339819 -6.19756e-21)
(-0.124023 0.041613 2.20667e-21)
(-0.22103 0.0388624 2.51504e-20)
(-0.306143 0.0364066 5.94169e-21)
(-0.390747 0.0340428 -1.48193e-20)
(-0.470254 0.0317428 -3.64927e-20)
(-0.547855 0.0294461 3.83382e-20)
(-0.621615 0.0271436 2.56641e-20)
(-0.693001 0.0248295 -1.941e-20)
(-0.760964 0.0225278 -5.28463e-20)
(-0.826378 0.0202507 2.03255e-19)
(-0.88842 0.0179972 -1.69202e-19)
(-0.947414 0.0157568 1.01574e-19)
(-1.00249 0.0135762 -2.01217e-19)
(-1.05384 0.0115878 4.68836e-20)
(-0.0366751 0.0777495 3.54495e-21)
(-0.125376 0.0959066 7.12347e-21)
(-0.221245 0.0900434 4.53019e-21)
(-0.305258 0.0851021 4.10921e-20)
(-0.388732 0.0805429 8.59687e-20)
(-0.46707 0.0762797 1.15643e-19)
(-0.54341 0.0721115 -1.00065e-19)
(-0.61579 0.0679883 1.66323e-19)
(-0.685639 0.0638505 1.56896e-19)
(-0.751892 0.0597264 -5.17017e-20)
(-0.815422 0.0556141 -2.15838e-19)
(-0.87541 0.0515036 1.00098e-20)
(-0.932143 0.0473556 4.92083e-20)
(-0.984667 0.0432658 1.30888e-19)
(-1.03311 0.039509 -2.02267e-19)
(-0.0398132 0.120385 1.2833e-20)
(-0.12792 0.149231 2.11971e-20)
(-0.221699 0.14044 -6.55022e-20)
(-0.303702 0.133081 5.31593e-21)
(-0.38512 0.126379 -1.59709e-19)
(-0.461346 0.120179 5.3984e-20)
(-0.535414 0.114151 -1.54306e-19)
(-0.605324 0.108207 -1.6702e-20)
(-0.672427 0.102239 -1.19482e-19)
(-0.735638 0.0962787 3.66401e-19)
(-0.795819 0.0903197 4.91593e-19)
(-0.852169 0.0843586 4.38116e-19)
(-0.904921 0.0783488 2.59824e-19)
(-0.95299 0.0724169 1.77073e-19)
(-0.996393 0.0669305 -3.31895e-19)
(-0.0442915 0.161228 -7.3703e-20)
(-0.131578 0.201013 8.84558e-20)
(-0.222377 0.189596 -6.68867e-20)
(-0.301507 0.179933 -1.4026e-19)
(-0.380009 0.171176 2.44267e-19)
(-0.45326 0.163088 -2.27691e-19)
(-0.524151 0.15522 3.40512e-19)
(-0.590636 0.147455 -2.91902e-19)
(-0.65397 0.139639 2.09202e-19)
(-0.713043 0.131812 -5.14505e-19)
(-0.768717 0.123973 -7.46196e-19)
(-0.820225 0.116148 4.25283e-20)
(-0.867769 0.108304 -1.43567e-19)
(-0.910123 0.100592 -3.16873e-19)
(-0.947172 0.093401 1.21813e-18)
(-0.0499481 0.199653 -5.86022e-20)
(-0.136235 0.250699 1.32167e-19)
(-0.223246 0.237074 2.92015e-20)
(-0.29871 0.22528 1.10537e-19)
(-0.373522 0.214596 -1.49352e-19)
(-0.44304 0.204692 6.52446e-20)
(-0.509981 0.195024 8.15628e-19)
(-0.572257 0.185452 1.28046e-19)
(-0.631018 0.175787 2.31623e-19)
(-0.685137 0.166082 -8.29459e-20)
(-0.735481 0.156349 6.84631e-20)
(-0.78136 0.146671 -2.89695e-20)
(-0.822984 0.137056 -8.24241e-19)
(-0.859019 0.127669 -4.65175e-19)
(-0.889211 0.118866 -1.38113e-18)
(-0.0566044 0.23512 1.32104e-19)
(-0.141759 0.297754 4.63032e-20)
(-0.224253 0.282473 -6.35034e-20)
(-0.295341 0.268784 -4.73376e-20)
(-0.365799 0.256343 5.10714e-20)
(-0.430946 0.244727 -6.94612e-19)
(-0.493311 0.233324 -8.64444e-20)
(-0.550775 0.221982 4.43895e-20)
(-0.604385 0.210491 -3.38185e-19)
(-0.653007 0.198919 -4.7167e-19)
(-0.697528 0.187307 3.47004e-19)
(-0.737371 0.175808 -3.46115e-19)
(-0.772812 0.164495 1.08376e-18)
(-0.802471 0.153556 -8.55093e-19)
(-0.825951 0.143268 1.88579e-18)
(-0.0640537 0.267092 -1.20299e-19)
(-0.147969 0.341659 -2.03544e-19)
(-0.225303 0.325446 8.19895e-20)
(-0.291422 0.310157 6.22599e-19)
(-0.356981 0.296164 6.34162e-19)
(-0.417249 0.282975 -2.23568e-19)
(-0.474557 0.269932 1.15815e-19)
(-0.526779 0.256887 7.56269e-20)
(-0.574867 0.243621 7.37747e-19)
(-0.617697 0.230229 1.02675e-18)
(-0.65618 0.216785 -5.01465e-19)
(-0.689879 0.203529 -9.76265e-19)
(-0.719203 0.19062 -1.829e-18)
(-0.742793 0.178284 3.17721e-19)
(-0.760111 0.166706 -2.30968e-18)
(-0.0720448 0.295017 -1.0788e-19)
(-0.154657 0.381992 -1.2687e-19)
(-0.226278 0.365714 -9.12654e-19)
(-0.286967 0.349164 3.27875e-19)
(-0.347205 0.33386 -3.79012e-19)
(-0.402211 0.31927 2.60698e-19)
(-0.454121 0.304715 2.83885e-19)
(-0.500828 0.290065 -1.23492e-18)
(-0.543201 0.27511 -8.28901e-19)
(-0.580143 0.259982 -1.41439e-18)
(-0.612584 0.244797 -2.34831e-19)
(-0.640246 0.229884 1.03783e-18)
(-0.663711 0.215506 4.09892e-18)
(-0.68172 0.201951 -6.33635e-19)
(-0.693595 0.189312 1.13291e-18)
(-0.0802601 0.318366 5.79119e-19)
(-0.161568 0.418371 2.3302e-19)
(-0.22705 0.40306 1.00461e-18)
(-0.281978 0.385625 -7.35337e-19)
(-0.336591 0.369276 3.51034e-19)
(-0.38607 0.353491 -5.87788e-19)
(-0.432369 0.337586 -1.36004e-18)
(-0.473419 0.321462 1.21501e-18)
(-0.510025 0.30494 1.46998e-19)
(-0.541128 0.288196 2.11683e-18)
(-0.567671 0.271397 -6.95978e-19)
(-0.589525 0.254959 -3.17563e-18)
(-0.60747 0.239254 -1.95142e-18)
(-0.620414 0.224665 2.05128e-19)
(-0.627546 0.211211 -9.59481e-19)
(-0.0883333 0.336702 -4.83274e-19)
(-0.16841 0.450508 -2.74313e-19)
(-0.227485 0.437322 3.54074e-19)
(-0.276452 0.419407 5.51563e-20)
(-0.325242 0.402304 -1.37875e-19)
(-0.369038 0.385564 -1.60618e-19)
(-0.409621 0.368504 6.20467e-19)
(-0.444982 0.351068 -7.46818e-19)
(-0.475871 0.333127 7.39454e-19)
(-0.501286 0.314921 9.35641e-19)
(-0.522164 0.296668 -1.66848e-18)
(-0.538502 0.278863 3.17843e-18)
(-0.55126 0.261989 3.73132e-19)
(-0.559569 0.246543 5.15701e-19)
(-0.562519 0.232511 1.1896e-18)
(-0.0958362 0.349601 9.11878e-19)
(-0.174835 0.478098 -2.99004e-19)
(-0.227431 0.468387 -1.32343e-18)
(-0.270373 0.450422 5.25596e-19)
(-0.313242 0.432878 -3.03525e-19)
(-0.351291 0.41545 3.55799e-19)
(-0.386146 0.397455 2.66574e-18)
(-0.415867 0.378897 1.29465e-18)
(-0.441162 0.359716 8.65336e-19)
(-0.461094 0.340221 -2.91073e-18)
(-0.476583 0.320696 3.20438e-18)
(-0.487704 0.301705 1.18536e-18)
(-0.495555 0.283818 -1.91697e-18)
(-0.499516 0.267665 2.33042e-18)
(-0.498667 0.253242 -8.04776e-20)
(-0.102309 0.356803 1.89361e-19)
(-0.180509 0.50106 4.60401e-20)
(-0.226752 0.49616 -9.21171e-20)
(-0.263723 0.478616 -9.39359e-19)
(-0.300648 0.46097 1.87926e-18)
(-0.332973 0.443146 -9.60336e-19)
(-0.362165 0.424462 -2.83212e-18)
(-0.38636 0.404997 8.81494e-19)
(-0.406224 0.384767 -1.40389e-18)
(-0.420904 0.364174 2.19111e-18)
(-0.431286 0.343572 -3.97626e-18)
(-0.437483 0.323582 3.15207e-19)
(-0.440651 0.304838 1.71297e-18)
(-0.440398 0.288084 -3.60974e-18)
(-0.435957 0.273407 -8.50734e-19)
(-0.107132 0.357847 -6.05298e-19)
(-0.185027 0.519159 1.73061e-19)
(-0.225301 0.520549 5.35837e-19)
(-0.256457 0.503966 -2.53199e-20)
(-0.287503 0.486591 -2.56845e-18)
(-0.314194 0.468673 2.45912e-19)
(-0.337846 0.449556 9.22174e-19)
(-0.356671 0.429413 -2.52281e-18)
(-0.371303 0.408347 1.91328e-18)
(-0.380958 0.38685 -1.76891e-18)
(-0.386495 0.365365 4.86735e-18)
(-0.388029 0.344569 -2.03358e-18)
(-0.386684 0.325119 2.49378e-18)
(-0.382218 0.307839 5.07611e-18)
(-0.374189 0.292943 2.20264e-18)
(-0.109825 0.353102 -2.41589e-19)
(-0.188084 0.532502 -6.35205e-21)
(-0.223004 0.541412 -1.9858e-20)
(-0.248534 0.526498 -6.20361e-20)
(-0.273821 0.509775 -1.26116e-18)
(-0.295043 0.49207 -5.62305e-19)
(-0.313326 0.472793 9.08393e-19)
(-0.326974 0.452222 5.55647e-19)
(-0.336571 0.430531 -3.23578e-18)
(-0.341422 0.408324 -1.83434e-19)
(-0.342335 0.386141 -9.55077e-19)
(-0.339433 0.364721 1.96174e-18)
(-0.333757 0.344732 -2.75335e-18)
(-0.325012 0.326967 -3.88075e-19)
(-0.3132 0.311687 -2.49157e-18)
(-0.110054 0.34273 1.08171e-18)
(-0.189272 0.540655 -9.64779e-19)
(-0.219698 0.558689 -1.30509e-18)
(-0.239858 0.546252 2.3242e-18)
(-0.25963 0.530591 2.04899e-18)
(-0.275585 0.513393 2.63267e-18)
(-0.288698 0.494221 1.13973e-19)
(-0.297373 0.473471 1.81959e-18)
(-0.302156 0.451374 2.45341e-18)
(-0.302396 0.428652 3.69083e-18)
(-0.298869 0.405941 -1.71952e-18)
(-0.291696 0.384058 3.64098e-18)
(-0.281856 0.363693 -1.71728e-20)
(-0.268873 0.345509 -1.85768e-18)
(-0.252522 0.329619 -4.64233e-18)
(-0.107602 0.326708 -6.87688e-19)
(-0.188282 0.543357 1.06589e-18)
(-0.215245 0.572398 7.10468e-19)
(-0.230406 0.563326 -2.19586e-18)
(-0.244917 0.549101 -1.02267e-18)
(-0.255875 0.532698 -1.88335e-19)
(-0.264041 0.513918 -1.39855e-18)
(-0.267974 0.493242 -2.40623e-18)
(-0.268137 0.470948 -4.13442e-18)
(-0.263956 0.447898 -1.80724e-18)
(-0.256131 0.424817 2.55632e-18)
(-0.24477 0.402594 -5.36376e-18)
(-0.230931 0.382002 1.89889e-19)
(-0.214012 0.363522 3.44938e-18)
(-0.191995 0.346901 4.9828e-18)
(-0.10229 0.305034 -1.66113e-18)
(-0.184902 0.540485 1.28517e-18)
(-0.209463 0.58247 -2.21317e-18)
(-0.22019 0.577839 -1.06709e-18)
(-0.229738 0.565395 -5.8294e-20)
(-0.235959 0.550065 1.47079e-18)
(-0.239419 0.531934 2.38895e-18)
(-0.238823 0.511558 7.96458e-19)
(-0.23457 0.489275 1.16522e-18)
(-0.226126 0.466088 -3.3066e-18)
(-0.214138 0.442783 9.61503e-20)
(-0.198633 0.420332 -2.58449e-18)
(-0.180738 0.399571 -1.91747e-18)
(-0.160446 0.3809 -5.52204e-18)
(-0.131952 0.364101 -6.68836e-20)
(-0.0940533 0.277896 1.4618e-18)
(-0.179022 0.53191 2.32045e-19)
(-0.202251 0.58875 3.41053e-19)
(-0.209171 0.589758 2.64277e-18)
(-0.214138 0.579572 1.11945e-18)
(-0.215906 0.565597 -1.37041e-18)
(-0.214919 0.548376 1.08479e-18)
(-0.209997 0.528483 -6.34201e-19)
(-0.201502 0.50641 -1.28019e-18)
(-0.188934 0.483258 1.44982e-18)
(-0.172896 0.459883 -4.95573e-18)
(-0.153292 0.437305 -2.10326e-19)
(-0.131255 0.416433 -2.84994e-18)
(-0.107901 0.397601 4.41443e-18)
(-0.0729009 0.381387 4.12268e-19)
(-0.0830736 0.245713 -5.61506e-19)
(-0.170631 0.517414 -1.56875e-18)
(-0.193595 0.590976 4.10144e-19)
(-0.197351 0.599017 -3.05306e-18)
(-0.198142 0.59166 -2.081e-18)
(-0.195749 0.579324 -1.17758e-18)
(-0.1906 0.563229 -2.06719e-18)
(-0.181555 0.544028 2.00836e-18)
(-0.168988 0.522392 2.84629e-18)
(-0.152406 0.499445 5.59411e-18)
(-0.132419 0.476133 -2.60819e-19)
(-0.10876 0.453519 6.3848e-18)
(-0.0822968 0.43256 2.52177e-18)
(-0.0565313 0.413654 1.99292e-18)
(-0.0138031 0.399026 -4.40787e-18)
(-0.0699235 0.209129 9.67668e-19)
(-0.159848 0.496642 2.3887e-18)
(-0.183528 0.588716 1.63306e-18)
(-0.184779 0.605466 2.12894e-18)
(-0.181797 0.601662 5.3444e-21)
(-0.175556 0.591247 8.38438e-19)
(-0.166491 0.576497 2.14759e-20)
(-0.153572 0.558222 -1.55112e-18)
(-0.137068 0.537204 2.44274e-18)
(-0.116566 0.514612 -8.56021e-18)
(-0.092717 0.491529 2.52027e-18)
(-0.0651355 0.469003 -1.671e-18)
(-0.0336395 0.447996 3.29538e-19)
(-0.00649962 0.428985 -2.52364e-18)
(0.0456658 0.416981 -2.8593e-18)
(-0.0557517 0.16906 -1.57889e-18)
(-0.146935 0.469061 2.0985e-18)
(-0.172098 0.581328 -5.22138e-19)
(-0.171522 0.608824 -9.04272e-19)
(-0.165196 0.609522 1.88935e-18)
(-0.155393 0.601386 1.99344e-19)
(-0.142691 0.58817 -5.63705e-19)
(-0.12608 0.571029 -6.62299e-20)
(-0.105832 0.550832 -1.57689e-18)
(-0.0814415 0.528743 4.10944e-18)
(-0.0537168 0.505987 2.53913e-18)
(-0.0226386 0.483763 1.35313e-18)
(0.0150328 0.462689 -1.28297e-19)
(0.041875 0.44304 3.2574e-18)
(0.105826 0.435905 -2.95266e-19)
(-0.0423194 0.12696 4.61961e-19)
(-0.132279 0.433955 -5.00499e-19)
(-0.159326 0.567967 3.93035e-19)
(-0.157645 0.608626 1.67462e-18)
(-0.148436 0.615094 -1.07026e-18)
(-0.135399 0.609687 -7.00777e-19)
(-0.119258 0.598252 -1.31488e-18)
(-0.0992027 0.58242 1.04274e-18)
(-0.0753392 0.563167 -1.09047e-18)
(-0.0471554 0.541717 -1.26941e-18)
(-0.0152921 0.519397 -2.19059e-18)
(0.0184473 0.497735 -1.2763e-18)
(0.0640115 0.476989 4.70585e-18)
(0.0884081 0.455116 -6.4835e-18)
(0.166893 0.455593 -1.74784e-19)
(-0.0312293 0.0853135 1.97437e-18)
(-0.116308 0.39051 -7.66122e-19)
(-0.145196 0.54766 -1.98783e-18)
(-0.143191 0.604176 -5.30776e-19)
(-0.131646 0.618044 2.80775e-18)
(-0.115657 0.616067 -5.99789e-20)
(-0.0963932 0.60665 1.37135e-18)
(-0.0729823 0.592289 -7.53783e-19)
(-0.0457475 0.574171 -2.9594e-18)
(-0.0139165 0.553498 6.89194e-18)
(0.0228117 0.531502 -5.10219e-18)
(0.0576912 0.51061 1.52184e-18)
(0.113684 0.491154 -6.70319e-18)
(0.132418 0.464322 2.37092e-18)
(0.229142 0.476123 1.95702e-18)
(-0.0225165 0.0475723 -7.04224e-19)
(-0.0992935 0.338115 -2.26062e-18)
(-0.129656 0.519414 1.02204e-18)
(-0.128198 0.594486 1.80973e-19)
(-0.114919 0.617823 -2.52729e-18)
(-0.0963674 0.620258 1.56719e-18)
(-0.074154 0.613322 8.3478e-20)
(-0.0477012 0.600542 -3.86713e-19)
(-0.0170299 0.583549 -3.03745e-18)
(0.017736 0.563934 -3.49669e-19)
(0.0608762 0.542239 4.07805e-18)
(0.0946757 0.521819 3.46845e-19)
(0.164654 0.506593 9.73976e-19)
(0.173643 0.469424 2.80869e-18)
(0.291058 0.494324 -7.1676e-18)
(-0.0145591 0.0170183 -1.06798e-18)
(-0.0814767 0.277063 3.44013e-20)
(-0.112672 0.482282 -1.29602e-18)
(-0.112691 0.578237 1.05106e-18)
(-0.0983917 0.613563 1.43051e-18)
(-0.0776031 0.621926 -1.07513e-18)
(-0.0529014 0.61796 -1.86336e-19)
(-0.023439 0.607053 -9.07724e-19)
(0.0107066 0.591242 2.2662e-18)
(0.0473031 0.572805 4.38349e-19)
(0.0990604 0.551389 -5.91899e-18)
(0.128452 0.529568 1.6224e-18)
(0.217384 0.524293 1.00881e-18)
(0.213593 0.474565 -4.54268e-18)
(0.351693 0.50616 1.02735e-18)
(-0.00601545 -0.0044409 2.41188e-19)
(-0.0637248 0.209799 6.4984e-19)
(-0.0944512 0.435285 1.2105e-18)
(-0.0967095 0.553801 -1.02615e-18)
(-0.0821557 0.604078 -4.17293e-20)
(-0.0596734 0.620368 2.6016e-18)
(-0.0325776 0.620422 -1.21214e-19)
(-0.000999594 0.611521 -6.55266e-21)
(0.0378702 0.596648 3.69237e-18)
(0.0738225 0.579787 -2.12327e-18)
(0.137879 0.560241 1.52154e-18)
(0.158239 0.5316 -4.31137e-18)
(0.270057 0.540643 3.7245e-19)
(0.254232 0.48373 -1.15476e-18)
(0.410953 0.515131 1.97855e-18)
(0.00243138 -0.0167618 -1.80868e-19)
(-0.0471412 0.142248 8.08012e-19)
(-0.0756356 0.37763 -1.0769e-18)
(-0.080347 0.519319 2.26427e-18)
(-0.0663783 0.587797 -1.90801e-18)
(-0.0427282 0.614662 -1.71095e-18)
(-0.0137037 0.619825 -1.0666e-18)
(0.0195031 0.613979 -2.31406e-18)
(0.0640396 0.599853 -4.50981e-18)
(0.0969894 0.582953 6.85235e-19)
(0.176694 0.569912 3.57075e-18)
(0.185135 0.529597 2.87122e-18)
(0.32057 0.549418 4.88588e-19)
(0.294616 0.494225 -2.40669e-18)
(0.468831 0.521912 -1.2159e-18)
(0.00911892 -0.0220459 4.31947e-19)
(-0.0314397 0.0828614 7.56304e-19)
(-0.0569319 0.309365 -3.23267e-18)
(-0.0638548 0.473109 -2.23726e-18)
(-0.0512432 0.562701 -6.60657e-20)
(-0.0273597 0.603287 1.79476e-18)
(0.00409992 0.615584 -6.63407e-19)
(0.03634 0.613036 5.14544e-18)
(0.0899994 0.60108 4.22722e-19)
(0.115569 0.581267 -2.91745e-18)
(0.214935 0.579202 -2.75096e-18)
(0.209766 0.527636 -4.40921e-18)
(0.367239 0.549888 4.86881e-18)
(0.334539 0.500654 3.24262e-18)
(0.521956 0.52344 -1.2582e-20)
(0.0133901 -0.0232523 -1.20321e-18)
(-0.0155633 0.0382083 -2.22773e-18)
(-0.039023 0.232553 1.60817e-18)
(-0.0476934 0.413953 1.96917e-18)
(-0.0369669 0.526502 1.22668e-18)
(-0.0141253 0.584083 -1.25168e-18)
(0.0199972 0.605849 3.20287e-18)
(0.0503527 0.608613 -4.59694e-18)
(0.112992 0.600213 5.13491e-18)
(0.13141 0.572137 3.30809e-18)
(0.247693 0.584395 -1.03823e-18)
(0.237612 0.528434 -1.46033e-18)
(0.401922 0.543455 -1.95238e-18)
(0.379066 0.504937 -3.90268e-18)
(0.563921 0.513318 4.69324e-18)
(0.0156201 -0.0225992 3.38489e-18)
(-0.000323735 0.00893053 2.59527e-18)
(-0.0228437 0.154756 5.89042e-19)
(-0.0327029 0.342062 -3.49898e-20)
(-0.0239136 0.476589 -4.26875e-19)
(-0.00377549 0.554582 -5.006e-19)
(0.0338553 0.588732 -2.50274e-18)
(0.0590255 0.59611 4.37228e-18)
(0.134941 0.600294 -3.43868e-18)
(0.143025 0.558751 -3.11935e-20)
(0.270634 0.574047 3.34874e-18)
(0.268943 0.5327 2.36622e-18)
(0.422001 0.525206 2.35767e-18)
(0.421332 0.511771 -2.47833e-20)
(0.602399 0.489787 -2.80312e-18)
(0.0167003 -0.0212842 -2.03082e-18)
(0.0124189 -0.00810747 -2.10575e-18)
(-0.00779981 0.0892566 6.5157e-19)
(-0.0196003 0.261124 -1.05619e-18)
(-0.0123431 0.411439 -5.01381e-19)
(0.00277461 0.511038 1.80577e-18)
(0.0443683 0.562837 -4.769e-19)
(0.0644693 0.573552 -4.47388e-19)
(0.144988 0.589383 -1.38813e-18)
(0.166051 0.554701 -3.22691e-18)
(0.267476 0.548273 1.50173e-18)
(0.31641 0.531007 -1.78667e-18)
(0.412426 0.505338 -2.74422e-18)
(0.496264 0.508004 -1.24218e-18)
(0.566507 0.458245 4.99629e-18)
(0.0177142 -0.019805 2.28731e-18)
(0.0225071 -0.0169394 -1.79581e-18)
(0.00743656 0.044161 -2.95042e-18)
(-0.00775908 0.180539 3.03419e-19)
(-0.00259202 0.332793 7.07364e-19)
(0.00584503 0.450874 -5.04139e-19)
(0.0483569 0.523015 1.36987e-18)
(0.0682673 0.542528 2.87974e-19)
(0.143458 0.563527 -2.05279e-19)
(0.181735 0.537388 1.03277e-19)
(0.272608 0.539105 -1.55904e-18)
(0.327366 0.491429 2.01493e-19)
(0.443037 0.514426 8.82975e-19)
(0.480477 0.449359 -6.93928e-19)
(0.634046 0.479365 4.71602e-18)
(0.0194143 -0.0184925 4.79392e-19)
(0.0312089 -0.0210327 -1.02907e-18)
(0.0222234 0.0176223 2.86845e-18)
(0.00442955 0.113526 2.2177e-18)
(0.00530287 0.24878 -2.22624e-18)
(0.0060032 0.375 -1.53162e-19)
(0.0449434 0.46633 -1.03145e-18)
(0.0669129 0.495516 -4.00684e-19)
(0.133512 0.529962 2.87405e-18)
(0.189599 0.495839 1.47456e-18)
(0.262037 0.520347 2.03722e-18)
(0.357087 0.456617 -1.62075e-18)
(0.428791 0.49588 1.09223e-18)
(0.507792 0.409378 -6.25271e-19)
(0.65803 0.483752 -6.01382e-18)
(0.0220687 -0.0177046 3.82682e-19)
(0.0393197 -0.022974 6.14646e-19)
(0.0349806 0.00310116 -1.57904e-18)
(0.0170913 0.0673515 -1.79912e-18)
(0.0113438 0.172395 -1.6504e-18)
(0.00449564 0.29038 1.41387e-19)
(0.0334337 0.393698 1.2041e-18)
(0.0615047 0.430832 -2.18979e-18)
(0.107969 0.475607 -1.16106e-18)
(0.200071 0.453885 6.43203e-19)
(0.218925 0.455069 -1.86981e-18)
(0.404389 0.445467 1.91813e-19)
(0.350967 0.409651 1.29918e-18)
(0.599708 0.414387 -1.74747e-18)
(0.546759 0.393952 1.41954e-18)
(0.0255557 -0.0176956 -8.61774e-19)
(0.0466149 -0.0246133 1.95451e-18)
(0.0445569 -0.00587627 1.29104e-18)
(0.0276297 0.0382778 8.63807e-19)
(0.0151319 0.112552 1.41094e-18)
(0.00121836 0.208554 -1.41986e-19)
(0.0163959 0.310326 -1.11126e-18)
(0.0478503 0.352968 2.43123e-19)
(0.0767069 0.398293 1.53197e-18)
(0.184572 0.394206 -2.42863e-18)
(0.186458 0.375324 -1.1432e-18)
(0.383346 0.390072 1.00673e-19)
(0.28839 0.304698 -3.68624e-19)
(0.613353 0.380718 2.07773e-18)
(0.4007 0.252154 -1.99888e-18)
(0.0292945 -0.0184286 9.40555e-19)
(0.0520397 -0.027037 6.27923e-19)
(0.0497898 -0.0139218 -7.42369e-20)
(0.0327827 0.0174561 -5.59964e-19)
(0.0148606 0.0681055 1.25605e-19)
(-0.00616702 0.137709 -1.64979e-18)
(-0.00254496 0.225561 3.65782e-19)
(0.0213223 0.265238 -7.23103e-19)
(0.0476157 0.312678 -7.35891e-19)
(0.139402 0.300111 1.65804e-18)
(0.166806 0.300607 2.41843e-18)
(0.308041 0.286777 1.1391e-18)
(0.286473 0.242733 1.19722e-18)
(0.578381 0.316326 -1.55803e-18)
(0.537485 0.269936 -1.64633e-18)
(0.0323388 -0.0195778 7.78367e-19)
(0.0541806 -0.0305083 -1.47876e-18)
(0.0493746 -0.0232898 -7.13734e-19)
(0.0303795 -0.00184803 -1.5955e-18)
(0.00771004 0.0320379 7.16741e-19)
(-0.0194438 0.0782326 1.74154e-18)
(-0.0246925 0.14574 -1.98861e-18)
(-0.0141909 0.174118 6.95843e-19)
(0.0137571 0.222253 1.32478e-18)
(0.0870801 0.194138 3.52121e-19)
(0.128693 0.207402 -1.53563e-18)
(0.263461 0.198305 -6.56048e-19)
(0.366827 0.230934 -3.29925e-21)
(0.665141 0.317137 9.16211e-19)
(0.829236 0.390262 3.65313e-18)
(0.0336089 -0.0206279 -1.26048e-18)
(0.0518349 -0.0345941 -1.2633e-18)
(0.0424792 -0.0342104 7.06017e-19)
(0.0196853 -0.0222677 2.83471e-18)
(-0.00811482 -0.00152676 -1.84062e-18)
(-0.0394888 0.025619 5.17944e-19)
(-0.0538209 0.0714781 7.72958e-19)
(-0.0537356 0.0855557 -6.29503e-20)
(-0.0281072 0.127312 1.67832e-19)
(0.0357886 0.0951146 7.11588e-19)
(0.115975 0.12208 -6.42208e-19)
(0.332444 0.178276 -1.38019e-18)
(0.551345 0.271501 -1.30018e-18)
(0.841566 0.37651 1.08997e-18)
(0.982839 0.440577 3.56567e-19)
(0.0321871 -0.021001 -3.10809e-19)
(0.0444649 -0.0384133 2.50332e-18)
(0.0292792 -0.0456218 5.25417e-19)
(0.00157589 -0.0433825 7.47829e-19)
(-0.0319006 -0.034843 6.8103e-19)
(-0.0674528 -0.0228281 6.52906e-19)
(-0.091135 0.00258613 -2.33405e-19)
(-0.0954067 0.00381179 4.21175e-19)
(-0.0685716 0.0379316 2.0209e-19)
(0.0367256 0.0362139 8.87992e-19)
(0.228274 0.113618 5.48313e-20)
(0.508305 0.224519 9.60577e-19)
(0.759757 0.3376 -8.23268e-19)
(0.958558 0.412883 -8.45482e-19)
(1.06244 0.458262 5.91263e-19)
(0.0275802 -0.0201895 1.12219e-18)
(0.0323217 -0.0408177 -1.0274e-18)
(0.0109311 -0.0555213 1.06209e-19)
(-0.0219428 -0.0625748 -1.52525e-18)
(-0.0610429 -0.0648182 -1.26509e-18)
(-0.101411 -0.0641939 2.17953e-18)
(-0.130064 -0.0554251 6.19736e-19)
(-0.122047 -0.0582856 -8.82095e-19)
(-0.0554698 -0.0178948 2.36804e-19)
(0.154873 0.0513407 -2.41022e-18)
(0.432683 0.172316 8.41422e-19)
(0.701865 0.291024 -1.02551e-18)
(0.894994 0.376942 1.29911e-18)
(1.03285 0.430701 -1.31005e-19)
(1.12073 0.468982 -8.55673e-19)
(0.0199443 -0.0178566 -1.7516e-18)
(0.0165442 -0.0405767 -1.78315e-18)
(-0.0103403 -0.0613211 -1.82994e-18)
(-0.0473057 -0.0753392 -1.3759e-18)
(-0.0893445 -0.084639 9.23232e-19)
(-0.129255 -0.0897303 -3.73375e-18)
(-0.148803 -0.0871357 3.39694e-19)
(-0.0984137 -0.0792307 3.25894e-19)
(0.0568857 -0.00969615 1.70337e-19)
(0.355386 0.116934 1.12563e-18)
(0.632231 0.240395 -9.2962e-19)
(0.841109 0.335116 2.27032e-18)
(0.98673 0.399723 -4.98344e-19)
(1.08784 0.441707 -1.01808e-18)
(1.14271 0.463866 5.81581e-19)
(0.0101177 -0.0139861 3.09179e-19)
(-0.00094367 -0.0368423 1.44621e-18)
(-0.0312924 -0.0607489 2.06418e-18)
(-0.0692018 -0.0778424 3.38079e-19)
(-0.108203 -0.0886648 1.64819e-18)
(-0.137061 -0.091573 9.16385e-19)
(-0.131134 -0.0840755 2.8551e-19)
(-0.0102764 -0.0527585 -1.41578e-18)
(0.247272 0.0603531 -8.27646e-20)
(0.551003 0.188719 6.02917e-19)
(0.781354 0.290523 2.30085e-18)
(0.94323 0.365534 -2.96912e-19)
(1.05048 0.414131 8.56798e-19)
(1.11451 0.441312 8.33447e-19)
(1.15897 0.459082 1.3971e-18)
(-0.000623829 -0.00896138 5.68701e-19)
(-0.018028 -0.0296818 -1.90427e-18)
(-0.0489598 -0.0535625 -4.11109e-19)
(-0.0833521 -0.0698002 1.97461e-20)
(-0.112902 -0.077159 -3.07938e-18)
(-0.121442 -0.0727868 8.02635e-19)
(-0.0777215 -0.0593149 -4.02808e-19)
(0.136947 0.0120361 4.73342e-19)
(0.44489 0.140423 1.54019e-18)
(0.709687 0.246253 -5.23409e-19)
(0.895531 0.328729 -1.80377e-18)
(1.01576 0.385807 -2.55205e-19)
(1.08783 0.418767 -2.91661e-19)
(1.1355 0.440502 -6.40044e-19)
(1.1673 0.451792 -1.50126e-18)
(-0.0109631 -0.00348198 1.18559e-19)
(-0.0330951 -0.0201495 5.15252e-19)
(-0.061793 -0.0414066 -1.33434e-18)
(-0.0888112 -0.0540542 5.58115e-19)
(-0.104501 -0.0557176 1.27841e-18)
(-0.0890096 -0.0447035 -5.46758e-19)
(0.00858983 -0.0237137 -1.16795e-19)
(0.315075 0.0897263 -1.27165e-18)
(0.612628 0.204337 2.61659e-19)
(0.835763 0.29116 -8.93137e-19)
(0.978022 0.356312 8.74366e-19)
(1.06307 0.397196 -7.39303e-19)
(1.11493 0.421729 1.33706e-18)
(1.14537 0.436112 -5.24661e-19)
(1.16809 0.442475 -1.11336e-18)
(-0.0198794 0.001691 6.08469e-19)
(-0.0452656 -0.00976401 3.81195e-19)
(-0.0697041 -0.0268671 3.44104e-19)
(-0.0869865 -0.0349282 8.26412e-20)
(-0.0868375 -0.0310905 5.89123e-19)
(-0.0457225 -0.0200055 -1.42736e-18)
(0.135015 0.0326163 7.86376e-19)
(0.482166 0.156576 1.83694e-18)
(0.751456 0.257146 -1.78521e-19)
(0.931089 0.326097 1.36203e-18)
(1.03603 0.375791 8.36446e-19)
(1.09666 0.404798 1.37218e-19)
(1.12928 0.420533 2.87107e-19)
(1.151 0.431062 5.57119e-19)
(1.17186 0.435965 1.30496e-18)
(-0.0268125 0.0059441 9.27865e-19)
(-0.0543261 -2.99011e-05 1.32377e-18)
(-0.0733935 -0.0124799 -1.1954e-18)
(-0.0800037 -0.0161349 1.08685e-18)
(-0.0647201 -0.00936002 -2.52828e-18)
(0.0141132 -0.00288618 6.15623e-19)
(0.298426 0.100673 -2.20056e-19)
(0.630886 0.214457 -1.14801e-18)
(0.861069 0.299241 -2.02926e-18)
(1.00118 0.352031 -7.70592e-19)
(1.07663 0.38945 -1.93028e-18)
(1.11636 0.40752 1.2215e-18)
(1.13904 0.419128 -1.68446e-18)
(1.15533 0.426722 1.1766e-18)
(1.16955 0.4276 8.23368e-19)
(-0.0316462 0.00893021 -2.19926e-18)
(-0.0605311 0.00791667 7.75274e-20)
(-0.0739045 -0.000124069 1.56868e-19)
(-0.0699678 0.000383447 3.04301e-19)
(-0.04073 0.00404233 1.65832e-19)
(0.106879 0.0297373 1.20877e-18)
(0.460378 0.161709 6.66428e-19)
(0.756687 0.262325 -1.86011e-19)
(0.945128 0.331732 9.17117e-19)
(1.05111 0.37127 5.95514e-19)
(1.10266 0.398144 2.79072e-19)
(1.13019 0.409212 -6.94117e-19)
(1.14455 0.417162 2.32898e-18)
(1.15554 0.421175 4.14418e-19)
(1.1696 0.421458 -8.76167e-19)
(-0.0346302 0.0105838 2.02488e-18)
(-0.0643838 0.0134407 -1.45038e-18)
(-0.0721089 0.00922504 4.63123e-19)
(-0.0593349 0.0132424 -4.88586e-20)
(-0.00594219 0.00644401 2.42653e-18)
(0.244867 0.0875315 -1.99803e-19)
(0.602656 0.214955 -8.00325e-19)
(0.857844 0.301463 1.95873e-18)
(1.00742 0.356635 1.82136e-19)
(1.0851 0.384831 7.93421e-19)
(1.12033 0.404125 -1.58416e-18)
(1.13771 0.408973 3.42161e-20)
(1.14689 0.414795 -7.36669e-19)
(1.15701 0.417131 -1.55592e-19)
(1.16773 0.415498 -5.19588e-19)
(-0.0362597 0.011046 -5.41585e-19)
(-0.0664194 0.0163138 1.51584e-18)
(-0.0685939 0.0158474 9.17714e-19)
(-0.0495486 0.0188392 7.35802e-19)
(0.053476 0.0140684 -4.01798e-19)
(0.400701 0.147197 -1.60945e-19)
(0.72638 0.260118 1.05204e-18)
(0.937586 0.332376 -8.29135e-19)
(1.05252 0.374908 2.55582e-19)
(1.10815 0.394562 -1.33007e-18)
(1.13046 0.407442 9.09741e-20)
(1.1423 0.408474 2.08462e-19)
(1.1487 0.413233 -3.07115e-19)
(1.15588 0.412441 -1.85373e-18)
(1.16513 0.41 7.89149e-19)
(-0.0371547 0.0105253 -9.54588e-19)
(-0.0669463 0.016693 -1.19645e-18)
(-0.0646438 0.0201955 6.29733e-19)
(-0.0353214 0.0150333 -8.20838e-20)
(0.152307 0.0527891 -9.90139e-19)
(0.539592 0.19898 -4.10944e-20)
(0.826913 0.297735 -7.3857e-19)
(0.997566 0.356592 -1.46117e-18)
(1.08397 0.388478 -5.93787e-19)
(1.12236 0.401121 5.50403e-19)
(1.13682 0.409613 5.09211e-19)
(1.14462 0.407698 -5.09899e-20)
(1.14813 0.411162 -8.26977e-19)
(1.15524 0.408566 1.52517e-18)
(1.16342 0.406002 4.82764e-19)
(-0.0379129 0.00916521 9.39703e-19)
(-0.0662626 0.0155428 1.63084e-21)
(-0.0617726 0.0214266 -1.54515e-18)
(-0.00490428 0.00442033 -3.43823e-20)
(0.291971 0.111001 2.37197e-19)
(0.662899 0.244098 4.35929e-19)
(0.908099 0.328356 -7.83981e-19)
(1.04257 0.375181 4.04907e-19)
(1.10543 0.398042 -1.8187e-20)
(1.13143 0.405767 4.51416e-19)
(1.13982 0.410627 -4.07568e-19)
(1.14505 0.406773 -1.15456e-18)
(1.14787 0.409895 -5.75905e-20)
(1.15374 0.404895 -7.40182e-19)
(1.15962 0.401744 -6.48938e-19)
(-0.0388482 0.0072051 3.82815e-19)
(-0.0647673 0.0144563 -7.81811e-19)
(-0.059122 0.0177688 7.85682e-19)
(0.0532328 0.00789261 -2.50351e-19)
(0.436748 0.164537 -1.36281e-19)
(0.768183 0.281849 -3.9225e-19)
(0.970855 0.352759 6.17891e-19)
(1.0744 0.389206 4.00763e-19)
(1.11929 0.405061 -2.39266e-19)
(1.13603 0.408887 -6.81549e-19)
(1.14099 0.411193 -2.47986e-19)
(1.14488 0.406203 1.18444e-18)
(1.14614 0.408319 7.30124e-19)
(1.15163 0.401391 7.27618e-19)
(1.15719 0.399001 -2.27741e-19)
(-0.0399082 0.00495513 -2.40506e-19)
(-0.0634729 0.0141919 8.65387e-20)
(-0.0508592 0.00847579 -3.2503e-19)
(0.144745 0.0451581 -2.71207e-21)
(0.560831 0.211141 -2.53585e-19)
(0.854024 0.314356 -3.80983e-19)
(1.01893 0.372407 1.33837e-19)
(1.09708 0.399829 -7.95932e-19)
(1.12795 0.409963 7.09542e-19)
(1.13845 0.411163 9.07028e-19)
(1.14092 0.411444 1.17699e-19)
(1.14342 0.405524 -1.03157e-18)
(1.14446 0.407144 -1.01268e-18)
(1.14965 0.39858 -7.72202e-19)
(1.15308 0.396173 3.15005e-19)
(-0.0409532 0.00326377 -7.75259e-19)
(-0.0637183 0.0130308 2.12838e-19)
(-0.0272915 -0.00473332 -1.56105e-19)
(0.271519 0.102171 -1.79794e-22)
(0.671039 0.251613 -6.27188e-20)
(0.923887 0.340822 -1.44698e-19)
(1.05494 0.387701 2.70653e-19)
(1.1121 0.407679 -1.56249e-19)
(1.13273 0.413649 -2.03561e-19)
(1.13873 0.412843 -3.95003e-19)
(1.13975 0.411549 -3.51252e-19)
(1.14182 0.405275 -1.62664e-19)
(1.14209 0.405944 6.28881e-19)
(1.1466 0.395744 -2.54184e-20)
(1.14961 0.394247 5.04291e-19)
(-0.0419359 0.00339144 3.22287e-19)
(-0.0648728 0.00914314 5.34783e-19)
(0.0188162 -0.00952329 9.12402e-20)
(0.408294 0.154606 3.31996e-19)
(0.766483 0.285708 7.33419e-19)
(0.978361 0.362516 2.72756e-19)
(1.08084 0.399842 1.00504e-18)
(1.12196 0.413786 5.30876e-19)
(1.13502 0.416421 3.37803e-19)
(1.1381 0.414209 7.75931e-19)
(1.13821 0.41172 2.40825e-19)
(1.13938 0.404994 4.4294e-19)
(1.13942 0.404847 2.20682e-19)
(1.1439 0.393676 1.04619e-19)
(1.1454 0.392598 3.49028e-19)
(-0.0426957 0.00602166 4.49052e-19)
(-0.0642005 0.00255215 -7.61526e-19)
(0.0875167 0.00921815 -1.47445e-19)
(0.526756 0.199232 3.49163e-19)
(0.846203 0.316271 -7.3971e-19)
(1.02107 0.380553 -3.0407e-19)
(1.09943 0.40933 -6.20675e-19)
(1.12777 0.418406 -2.09745e-20)
(1.13545 0.4187 -1.6745e-19)
(1.13647 0.415436 -6.54384e-19)
(1.13587 0.411886 4.9928e-19)
(1.1368 0.405025 3.82486e-20)
(1.13653 0.40393 -2.13724e-20)
(1.14024 0.391675 1.84377e-19)
(1.14104 0.391256 -4.27906e-19)
(-0.0433916 0.0101443 -3.277e-20)
(-0.0565935 -0.00664336 3.34236e-19)
(0.180597 0.0531518 9.36055e-20)
(0.628502 0.238923 -4.90359e-19)
(0.911669 0.342508 3.27976e-19)
(1.0536 0.39545 1.05287e-19)
(1.11194 0.41695 -2.76501e-19)
(1.13082 0.422254 -1.31494e-19)
(1.13469 0.420709 -3.99982e-19)
(1.13437 0.416602 7.11305e-20)
(1.13342 0.412245 -4.84064e-19)
(1.13372 0.405109 -3.44694e-19)
(1.13315 0.403016 9.28697e-20)
(1.13675 0.390289 9.67762e-20)
(1.13666 0.39035 -1.68527e-19)
(-0.044536 0.0127066 -1.66624e-19)
(-0.0366141 -0.0150103 -1.05921e-19)
(0.292996 0.105711 2.27654e-19)
(0.717402 0.27255 4.21707e-19)
(0.964016 0.364614 8.21456e-20)
(1.0779 0.407822 -2.26842e-19)
(1.12034 0.423214 2.86403e-19)
(1.13191 0.425474 2.50217e-19)
(1.13305 0.422592 1.30307e-19)
(1.13175 0.41783 2.48311e-20)
(1.13035 0.412676 1.56044e-19)
(1.13038 0.405384 6.91539e-20)
(1.12969 0.402368 -4.8989e-20)
(1.13261 0.389092 -6.1986e-20)
(1.13177 0.389396 5.5268e-20)
(-0.0462428 0.0106592 -7.74703e-20)
(-0.00243909 -0.0166205 -9.09228e-20)
(0.40946 0.154429 7.47505e-20)
(0.7951 0.302359 -9.93209e-20)
(1.00553 0.383033 -2.13957e-19)
(1.09545 0.417973 1.64409e-20)
(1.12526 0.428516 1.3221e-19)
(1.13157 0.428496 -1.19685e-19)
(1.13081 0.424526 7.93523e-20)