/*--------------------------------*- C++ -*----------------------------------*\
  =========                 |
  \\      /  F ield         | OpenFOAM: The Open Source CFD Toolbox
   \\    /   O peration     | Website:  https://openfoam.org
    \\  /    A nd           | Version:  7
     \\/     M anipulation  |
\*---------------------------------------------------------------------------*/
FoamFile
{
    version     2.0;
    format      ascii;
    class       volVectorField;
    location    "15.9984";
    object      U;
}
// * * * * * * * * * * * * * * * * * * * * * * * * * * * * * * * * * * * * * //

dimensions      [0 1 -1 0 0 0 0];

internalField   nonuniform List<vector> 
18750
(
(-0.0432605 0.0268319 -1.07334e-20)
(-0.150157 0.032087 3.62431e-21)
(-0.263192 0.0299131 3.91042e-20)
(-0.362292 0.0282283 8.99591e-21)
(-0.459794 0.0265524 -2.16526e-20)
(-0.549609 0.0249475 -5.25363e-20)
(-0.635563 0.0233448 5.39829e-20)
(-0.714962 0.0217792 3.55108e-20)
(-0.78999 0.0202619 -2.65404e-20)
(-0.8594 0.0188451 -7.10048e-20)
(-0.924794 0.0175445 2.69154e-19)
(-0.985415 0.0163641 -2.20524e-19)
(-1.04242 0.0152829 1.30742e-19)
(-1.09522 0.0143183 -2.54563e-19)
(-1.14472 0.0135245 5.92797e-20)
(-0.0450016 0.0801483 6.529e-21)
(-0.151394 0.0960132 1.06048e-20)
(-0.263102 0.0895645 5.31541e-21)
(-0.360927 0.0845408 6.01036e-20)
(-0.457104 0.079539 1.24266e-19)
(-0.545544 0.0747393 1.65955e-19)
(-0.630011 0.0699408 -1.41212e-19)
(-0.707793 0.0652488 2.3001e-19)
(-0.781035 0.0606981 2.14156e-19)
(-0.848492 0.0564456 -6.75104e-20)
(-0.911772 0.0525426 -2.85073e-19)
(-0.970124 0.0490087 1.47948e-20)
(-1.02466 0.0457836 6.40054e-20)
(-1.07472 0.0429065 1.66458e-19)
(-1.12113 0.0405168 -2.52649e-19)
(-0.0484162 0.132134 1.99844e-20)
(-0.153829 0.158811 3.02311e-20)
(-0.262931 0.148294 -9.66696e-20)
(-0.358251 0.140015 6.80061e-21)
(-0.451841 0.131759 -2.31052e-19)
(-0.537616 0.123806 7.582e-20)
(-0.619225 0.115838 -2.14502e-19)
(-0.693929 0.108034 -2.55565e-20)
(-0.763806 0.100457 -1.64648e-19)
(-0.827624 0.0933679 4.89716e-19)
(-0.887011 0.0868662 6.45416e-19)
(-0.941245 0.081007 5.65375e-19)
(-0.991387 0.0756988 3.30886e-19)
(-1.03666 0.0709711 2.23456e-19)
(-1.07776 0.0669885 -4.12e-19)
(-0.0533717 0.181939 -1.04834e-19)
(-0.157387 0.219752 1.24885e-19)
(-0.262691 0.205512 -9.4055e-20)
(-0.35436 0.194126 -1.98875e-19)
(-0.444219 0.182742 3.45106e-19)
(-0.526189 0.171713 -3.21315e-19)
(-0.603767 0.16063 4.7453e-19)
(-0.674194 0.149752 -4.00916e-19)
(-0.739467 0.139174 2.80708e-19)
(-0.798385 0.129264 -6.86341e-19)
(-0.852622 0.120186 -9.79191e-19)
(-0.901536 0.112058 5.30539e-20)
(-0.946163 0.104768 -1.85452e-19)
(-0.985595 0.0983013 -4.00541e-19)
(-1.02038 0.0927748 1.51372e-18)
(-0.0596753 0.228764 -7.97361e-20)
(-0.16195 0.278134 1.80994e-19)
(-0.262385 0.260667 4.19934e-20)
(-0.349372 0.2464 1.57478e-19)
(-0.43451 0.232075 -2.10241e-19)
(-0.511725 0.218094 9.073e-20)
(-0.584339 0.203989 1.12137e-18)
(-0.649593 0.190107 1.73366e-19)
(-0.709403 0.176588 3.06658e-19)
(-0.762621 0.163908 -1.06405e-19)
(-0.810994 0.152313 9.36896e-20)
(-0.854019 0.142006 -3.70671e-20)
(-0.892763 0.132878 -1.04526e-18)
(-0.926212 0.124841 -5.84178e-19)
(-0.954711 0.117894 -1.71656e-18)
(-0.0671231 0.271928 1.80725e-19)
(-0.167386 0.333285 5.90329e-20)
(-0.261998 0.313257 -8.71498e-20)
(-0.343405 0.296426 -6.38437e-20)
(-0.423007 0.279413 7.05986e-20)
(-0.494721 0.262656 -9.57177e-19)
(-0.561683 0.245668 -1.23533e-19)
(-0.621165 0.228896 6.12885e-20)
(-0.675007 0.212541 -4.54193e-19)
(-0.722136 0.197191 -6.20418e-19)
(-0.764388 0.183182 4.51057e-19)
(-0.801449 0.170828 -4.45179e-19)
(-0.83448 0.16004 1.37237e-18)
(-0.862384 0.15065 -1.0683e-18)
(-0.885214 0.142476 2.34143e-18)
(-0.0754693 0.310754 -1.61439e-19)
(-0.173494 0.384564 -2.76017e-19)
(-0.26145 0.362865 1.13341e-19)
(-0.33656 0.343866 8.51465e-19)
(-0.41 0.32448 8.65654e-19)
(-0.475664 0.305181 -3.01145e-19)
(-0.536511 0.285504 1.53206e-19)
(-0.589877 0.266009 9.88552e-20)
(-0.637539 0.246974 9.7397e-19)
(-0.678508 0.229103 1.34374e-18)
(-0.714705 0.212833 -6.51719e-19)
(-0.746031 0.198595 -1.24506e-18)
(-0.773779 0.186345 -2.30682e-18)
(-0.796786 0.17584 3.96678e-19)
(-0.814693 0.166663 -2.86171e-18)
(-0.0844135 0.344542 -1.42039e-19)
(-0.180036 0.431457 -1.67924e-19)
(-0.260635 0.40917 -1.22657e-18)
(-0.328921 0.388459 4.36727e-19)
(-0.395748 0.367067 -5.20165e-19)
(-0.454994 0.34552 3.55472e-19)
(-0.509455 0.323406 3.76864e-19)
(-0.556563 0.301403 -1.64984e-18)
(-0.598042 0.279893 -1.09658e-18)
(-0.632989 0.2597 -1.84637e-18)
(-0.663378 0.24136 -3.08926e-19)
(-0.689309 0.225423 1.32322e-18)
(-0.712211 0.211905 5.16527e-18)
(-0.730869 0.200508 -7.88732e-19)
(-0.744391 0.190538 1.40655e-18)
(-0.0935733 0.372638 7.65062e-19)
(-0.186714 0.473521 3.09237e-19)
(-0.259429 0.45194 1.34522e-18)
(-0.320546 0.430012 -9.92884e-19)
(-0.380472 0.407033 4.7121e-19)
(-0.433084 0.383591 -7.89391e-19)
(-0.48104 0.359341 -1.81818e-18)
(-0.521892 0.335096 1.6182e-18)
(-0.557314 0.311358 1.92584e-19)
(-0.586485 0.289079 2.7533e-18)
(-0.611373 0.268894 -8.94149e-19)
(-0.632211 0.251451 -4.02434e-18)
(-0.650532 0.236834 -2.45136e-18)
(-0.665099 0.22472 2.55436e-19)
(-0.674421 0.214127 -1.18728e-18)
(-0.102497 0.394479 -6.34159e-19)
(-0.193179 0.510418 -3.61745e-19)
(-0.257694 0.49101 4.63779e-19)
(-0.31148 0.468394 7.1565e-20)
(-0.364339 0.444283 -1.85117e-19)
(-0.41023 0.419348 -2.13233e-19)
(-0.45168 0.39332 8.3037e-19)
(-0.486368 0.367139 -9.83044e-19)
(-0.515919 0.341451 9.66091e-19)
(-0.539576 0.317345 1.20353e-18)
(-0.559238 0.295547 -2.13123e-18)
(-0.57517 0.276779 4.02717e-18)
(-0.588937 0.261185 4.70244e-19)
(-0.59933 0.248452 6.3808e-19)
(-0.604334 0.237338 1.46819e-18)
(-0.110663 0.409577 1.18703e-18)
(-0.199015 0.541852 -3.89375e-19)
(-0.255273 0.526278 -1.74153e-18)
(-0.301726 0.503515 6.92506e-19)
(-0.347478 0.478773 -4.01678e-19)
(-0.38666 0.452802 4.73368e-19)
(-0.421678 0.425384 3.52042e-18)
(-0.450347 0.397604 1.69683e-18)
(-0.474221 0.370263 1.12375e-18)
(-0.492593 0.344592 -3.75656e-18)
(-0.507229 0.321411 4.08988e-18)
(-0.518323 0.301486 1.48888e-18)
(-0.527357 0.284989 -2.39878e-18)
(-0.533228 0.27165 2.90393e-18)
(-0.533642 0.260087 -9.62997e-20)
(-0.117465 0.417513 2.37867e-19)
(-0.20381 0.567732 6.18527e-20)
(-0.252015 0.557641 -1.15783e-19)
(-0.291296 0.535332 -1.23722e-18)
(-0.329961 0.510495 2.47328e-18)
(-0.362528 0.483964 -1.26714e-18)
(-0.391257 0.455578 -3.72922e-18)
(-0.414069 0.426562 1.1413e-18)
(-0.432441 0.397877 -1.82249e-18)
(-0.445693 0.370893 2.81838e-18)
(-0.455418 0.346531 -5.06311e-18)
(-0.461659 0.325587 3.94858e-19)
(-0.465688 0.308209 2.14076e-18)
(-0.46651 0.294185 -4.48516e-18)
(-0.461959 0.282125 -1.05249e-18)
(-0.122151 0.417923 -7.81931e-19)
(-0.207099 0.587894 2.26297e-19)
(-0.247786 0.584994 6.96322e-19)
(-0.280123 0.563832 -3.31411e-20)
(-0.311836 0.539468 -3.36364e-18)
(-0.337956 0.512896 3.2472e-19)
(-0.360558 0.483962 1.21451e-18)
(-0.377683 0.454079 -3.29382e-18)
(-0.3907 0.424358 2.4657e-18)
(-0.398937 0.396295 -2.26301e-18)
(-0.403792 0.370917 6.1774e-18)
(-0.405137 0.349068 -2.56841e-18)
(-0.403909 0.330833 3.11184e-18)
(-0.399109 0.31597 6.30397e-18)
(-0.38932 0.303245 2.72339e-18)
(-0.12416 0.41119 -3.07791e-19)
(-0.208536 0.602437 -4.96163e-21)
(-0.242487 0.608147 -2.79351e-20)
(-0.268195 0.589072 -7.8022e-20)
(-0.293113 0.565746 -1.62911e-18)
(-0.313004 0.539612 -7.27871e-19)
(-0.329695 0.510564 1.18569e-18)
(-0.341291 0.480201 7.2017e-19)
(-0.349075 0.449753 -4.17695e-18)
(-0.352357 0.42083 -2.34494e-19)
(-0.352317 0.394563 -1.21237e-18)
(-0.348708 0.371879 2.46674e-18)
(-0.342151 0.352815 -3.43748e-18)
(-0.331333 0.336955 -4.79053e-19)
(-0.315464 0.323161 -3.07998e-18)
(-0.123014 0.39749 1.36862e-18)
(-0.207689 0.610872 -1.21345e-18)
(-0.235964 0.627054 -1.66851e-18)
(-0.25535 0.611124 2.98995e-18)
(-0.273821 0.58937 2.65406e-18)
(-0.287766 0.564202 3.41792e-18)
(-0.29873 0.535431 1.48361e-19)
(-0.304956 0.504962 2.34639e-18)
(-0.307609 0.474084 3.15312e-18)
(-0.305977 0.444508 4.70717e-18)
(-0.301 0.417451 -2.17342e-18)
(-0.292349 0.393946 4.56939e-18)
(-0.28053 0.374104 -2.66615e-20)
(-0.263715 0.357242 -2.3107e-18)
(-0.240593 0.341797 -5.74355e-18)
(-0.118443 0.37675 -8.59702e-19)
(-0.204143 0.612794 1.35066e-18)
(-0.228126 0.641874 9.00699e-19)
(-0.241637 0.630098 -2.81072e-18)
(-0.253978 0.610463 -1.32251e-18)
(-0.262238 0.586605 -2.44796e-19)
(-0.267757 0.558545 -1.80005e-18)
(-0.26875 0.528362 -3.09826e-18)
(-0.266359 0.497352 -5.2938e-18)
(-0.259857 0.467336 -2.29921e-18)
(-0.249914 0.43959 3.22525e-18)
(-0.236077 0.415242 -6.73429e-18)
(-0.219031 0.394576 2.36409e-19)
(-0.1971 0.37681 4.28159e-18)
(-0.164735 0.359821 6.16126e-18)
(-0.110271 0.348942 -2.05798e-18)
(-0.197672 0.608059 1.60569e-18)
(-0.218762 0.652482 -2.78489e-18)
(-0.227064 0.646145 -1.34533e-18)
(-0.23375 0.629168 -7.99765e-20)
(-0.236539 0.606849 1.88305e-18)
(-0.236809 0.579959 3.07158e-18)
(-0.232737 0.550389 1.02102e-18)
(-0.225381 0.519523 1.48592e-18)
(-0.214035 0.489265 -4.19852e-18)
(-0.199175 0.460965 1.15006e-19)
(-0.180086 0.435761 -3.23381e-18)
(-0.157612 0.414169 -2.39147e-18)
(-0.131425 0.395666 -6.85557e-18)
(-0.0906995 0.378186 -8.47382e-20)
(-0.0984852 0.314288 1.81095e-18)
(-0.188223 0.596552 2.8682e-19)
(-0.2078 0.658678 4.37209e-19)
(-0.211634 0.65919 3.33877e-18)
(-0.213143 0.645356 1.41456e-18)
(-0.210826 0.62505 -1.7549e-18)
(-0.206026 0.599681 1.38519e-18)
(-0.197057 0.571028 -8.09244e-19)
(-0.184814 0.540574 -1.62262e-18)
(-0.168627 0.510266 1.84841e-18)
(-0.148908 0.481574 -6.24285e-18)
(-0.124621 0.455612 -2.5768e-19)
(-0.0963844 0.432948 -3.54202e-18)
(-0.0667105 0.413516 5.47665e-18)
(-0.0168312 0.397073 5.1017e-19)
(-0.0834267 0.273302 -6.87852e-19)
(-0.175912 0.578011 -1.93282e-18)
(-0.195317 0.660098 5.16598e-19)
(-0.195438 0.669075 -3.83282e-18)
(-0.192208 0.659007 -2.63555e-18)
(-0.185162 0.64116 -1.49077e-18)
(-0.175538 0.617627 -2.63091e-18)
(-0.161845 0.590192 2.55231e-18)
(-0.144817 0.560423 3.61265e-18)
(-0.123789 0.530271 7.06562e-18)
(-0.0992642 0.501352 -3.173e-19)
(-0.070024 0.474768 7.98294e-18)
(-0.035423 0.450999 3.14001e-18)
(-0.00357019 0.430616 2.46269e-18)
(0.0576056 0.416498 -5.44599e-18)
(-0.0660363 0.226787 1.17969e-18)
(-0.161038 0.551938 2.93793e-18)
(-0.181467 0.656119 2.01967e-18)
(-0.178618 0.675551 2.66753e-18)
(-0.171084 0.670101 1.42358e-20)
(-0.159645 0.655114 1.06554e-18)
(-0.145477 0.633683 2.73451e-20)
(-0.127261 0.607754 -1.9699e-18)
(-0.105585 0.578936 3.08344e-18)
(-0.0797274 0.54916 -1.07854e-17)
(-0.0503634 0.520172 3.16449e-18)
(-0.0167487 0.49326 -2.09376e-18)
(0.0254263 0.468308 4.0982e-19)
(0.0570214 0.446023 -3.12391e-18)
(0.132752 0.437381 -3.51855e-18)
(-0.0482292 0.175897 -1.92488e-18)
(-0.14412 0.517533 2.5621e-18)
(-0.166419 0.645807 -6.53911e-19)
(-0.16134 0.678187 -1.12021e-18)
(-0.149942 0.678529 2.364e-18)
(-0.134443 0.666798 2.54966e-19)
(-0.116009 0.647754 -7.1333e-19)
(-0.0934743 0.623575 -8.44369e-20)
(-0.0673553 0.595957 -1.99e-18)
(-0.0367467 0.566747 5.17178e-18)
(-0.00222979 0.537731 3.17029e-18)
(0.0345214 0.510868 1.68231e-18)
(0.0863541 0.485326 -1.55273e-19)
(0.11429 0.458861 4.01679e-18)
(0.208498 0.45942 -3.58405e-19)
(-0.0329422 0.122804 5.62535e-19)
(-0.125845 0.473705 -6.1829e-19)
(-0.150284 0.627949 4.74432e-19)
(-0.143743 0.676303 2.07282e-18)
(-0.128982 0.684006 -1.33081e-18)
(-0.109746 0.67612 -8.68267e-19)
(-0.0873514 0.659694 -1.65306e-18)
(-0.0607087 0.637485 1.30841e-18)
(-0.0303493 0.61126 -1.37073e-18)
(0.00465 0.582894 -1.57798e-18)
(0.0452449 0.553804 -2.74154e-18)
(0.0830438 0.527201 -1.59465e-18)
(0.147652 0.502636 5.80923e-18)
(0.166882 0.467044 -7.98941e-18)
(0.283549 0.481583 -2.0977e-19)
(-0.0222331 0.0716156 2.4016e-18)
(-0.106919 0.419251 -9.36639e-19)
(-0.13309 0.601197 -2.43159e-18)
(-0.125941 0.6689 -6.56468e-19)
(-0.108389 0.686024 3.47152e-18)
(-0.0857823 0.682796 -6.49393e-20)
(-0.0597382 0.6694 1.70584e-18)
(-0.0292189 0.649308 -9.40054e-19)
(0.00526431 0.624592 -3.68939e-18)
(0.043732 0.597368 8.59559e-18)
(0.0922018 0.568046 -6.33636e-18)
(0.127827 0.541127 1.88081e-18)
(0.210012 0.522663 -8.27041e-18)
(0.215513 0.471484 2.9254e-18)
(0.354236 0.496544 2.39995e-18)
(-0.014708 0.0276329 -8.56973e-19)
(-0.0875845 0.353258 -2.74676e-18)
(-0.114793 0.564263 1.24054e-18)
(-0.108004 0.654601 2.19281e-19)
(-0.0883579 0.683738 -3.11249e-18)
(-0.0627362 0.686538 1.93743e-18)
(-0.0334439 0.676587 9.77289e-20)
(0.000586082 0.658894 -4.75253e-19)
(0.039558 0.635605 -3.75207e-18)
(0.0795939 0.609999 -4.41543e-19)
(0.138877 0.580901 5.03925e-18)
(0.167584 0.549912 4.22133e-19)
(0.272256 0.544283 1.19651e-18)
(0.263958 0.480882 3.43232e-18)
(0.419911 0.503857 -8.73373e-18)
(-0.00692384 -0.00502167 -1.2982e-18)
(-0.0681307 0.276295 4.2941e-20)
(-0.09538 0.515982 -1.57576e-18)
(-0.0900135 0.631604 1.27838e-18)
(-0.0690403 0.675927 1.75356e-18)
(-0.0408831 0.686643 -1.32181e-18)
(-0.0086245 0.681088 -2.33161e-19)
(0.0281146 0.666015 -1.11373e-18)
(0.0726485 0.643966 2.82054e-18)
(0.111383 0.619815 5.38719e-19)
(0.185528 0.593798 -7.27968e-18)
(0.202307 0.553043 1.98064e-18)
(0.331221 0.55995 1.23244e-18)
(0.312278 0.49602 -5.54959e-18)
(0.482642 0.512186 1.26304e-18)
(0.00230861 -0.0247694 2.92556e-19)
(-0.0500169 0.192915 7.86277e-19)
(-0.0752652 0.455151 1.46613e-18)
(-0.0720339 0.59774 -1.24577e-18)
(-0.0506347 0.660937 -5.5387e-20)
(-0.020474 0.682347 3.16962e-18)
(0.0145229 0.68214 -1.52012e-19)
(0.0525836 0.670593 -1.83721e-21)
(0.104801 0.6496 4.53064e-18)
(0.138205 0.62538 -2.60229e-18)
(0.2316 0.607438 1.87434e-18)
(0.233854 0.554562 -5.27902e-18)
(0.385525 0.565498 4.54061e-19)
(0.358168 0.507824 -1.39319e-18)
(0.540725 0.520395 2.41286e-18)
(0.0108335 -0.0333141 -2.18873e-19)
(-0.0343215 0.11343 9.81947e-19)
(-0.055468 0.381048 -1.30586e-18)
(-0.054287 0.550655 2.73927e-18)
(-0.0332832 0.636574 -2.3146e-18)
(-0.00211469 0.672081 -2.08397e-18)
(0.036174 0.679252 -1.29627e-18)
(0.0730143 0.671627 -2.81045e-18)
(0.13577 0.653189 -5.48524e-18)
(0.160089 0.624372 8.52507e-19)
(0.27494 0.619126 4.34614e-18)
(0.264136 0.559863 3.48463e-18)
(0.434254 0.564914 5.9024e-19)
(0.402823 0.514974 -2.90874e-18)
(0.592557 0.52183 -1.45336e-18)
(0.0165364 -0.0346341 5.25122e-19)
(-0.0189586 0.0503339 9.21966e-19)
(-0.0366121 0.29446 -3.91721e-18)
(-0.037186 0.488556 -2.70476e-18)
(-0.0172216 0.600275 -7.9062e-20)
(0.0135662 0.653922 2.17215e-18)
(0.0558777 0.670575 -7.98426e-19)
(0.0891761 0.668353 6.24428e-18)
(0.164648 0.655485 5.40912e-19)
(0.177599 0.617872 -3.50888e-18)
(0.312474 0.621306 -3.33877e-18)
(0.294628 0.566306 -5.33401e-18)
(0.474591 0.563351 5.8932e-18)
(0.445702 0.519389 3.90759e-18)
(0.639375 0.519275 -9.90431e-21)
(0.0191936 -0.0324077 -1.46259e-18)
(-0.00218596 0.00859065 -2.71395e-18)
(-0.0196064 0.199591 1.94986e-18)
(-0.0214873 0.410394 2.38169e-18)
(-0.00265249 0.548878 1.4786e-18)
(0.0255132 0.624888 -1.51103e-18)
(0.0734577 0.654991 3.85374e-18)
(0.0999844 0.656743 -5.53133e-18)
(0.189872 0.656243 6.18501e-18)
(0.193747 0.609392 3.98128e-18)
(0.3379 0.614995 -1.24199e-18)
(0.325949 0.563063 -1.74122e-18)
(0.504409 0.559928 -2.35607e-18)
(0.482668 0.51755 -4.6916e-18)
(0.684719 0.510331 5.61631e-18)
(0.0198964 -0.0291471 4.12834e-18)
(0.0136498 -0.014709 3.16708e-18)
(-0.00440792 0.112631 7.17244e-19)
(-0.00842111 0.318372 -4.16795e-20)
(0.0100121 0.47969 -5.14364e-19)
(0.0330376 0.580978 -6.05401e-19)
(0.0868647 0.629717 -3.00573e-18)
(0.107269 0.636178 5.23326e-18)
(0.204949 0.648201 -4.1091e-18)
(0.214024 0.600051 -4.41452e-20)
(0.347571 0.604492 4.01339e-18)
(0.358492 0.551205 2.82017e-18)
(0.521072 0.551449 2.82382e-18)
(0.514973 0.509178 -2.75029e-20)
(0.719723 0.487735 -3.33146e-18)
(0.0203819 -0.0259534 -2.48036e-18)
(0.0266749 -0.025478 -2.57297e-18)
(0.011785 0.0509815 8.00518e-19)
(0.00231231 0.221476 -1.2879e-18)
(0.0202056 0.392149 -6.03115e-19)
(0.0358511 0.518237 2.17383e-18)
(0.0938353 0.591023 -5.76453e-19)
(0.110737 0.602319 -5.41194e-19)
(0.207592 0.631364 -1.63299e-18)
(0.234965 0.580043 -3.77045e-18)
(0.344543 0.592683 1.77101e-18)
(0.396649 0.528372 -2.1078e-18)
(0.525953 0.55123 -3.27293e-18)
(0.540184 0.469895 -1.48125e-18)
(0.763696 0.502451 5.95151e-18)
(0.0219731 -0.0234153 2.80407e-18)
(0.0379244 -0.02938 -2.20379e-18)
(0.0295344 0.0165494 -3.61191e-18)
(0.0135543 0.136583 3.64638e-19)
(0.0280401 0.293976 8.67101e-19)
(0.0345425 0.433837 -6.03513e-19)
(0.0908034 0.535225 1.64913e-18)
(0.113434 0.553127 3.35799e-19)
(0.189425 0.592415 -2.24873e-19)
(0.266573 0.562948 1.39759e-19)
(0.308522 0.551881 -1.83309e-18)
(0.469441 0.526751 2.3569e-19)
(0.474993 0.512997 1.05873e-18)
(0.634935 0.45931 -8.28484e-19)
(0.754594 0.504521 5.68049e-18)
(0.0251868 -0.0219282 5.90945e-19)
(0.0485728 -0.0306774 -1.27102e-18)
(0.0458951 -0.000272916 3.5226e-18)
(0.0273685 0.0776939 2.72006e-18)
(0.0333283 0.201647 -2.71361e-18)
(0.032164 0.335375 -1.78965e-19)
(0.0748255 0.455151 -1.2412e-18)
(0.114385 0.494381 -4.72749e-19)
(0.155285 0.520293 3.37166e-18)
(0.284406 0.535715 1.70738e-18)
(0.269345 0.487567 2.33732e-18)
(0.507684 0.513711 -1.90674e-18)
(0.396149 0.425796 1.30467e-18)
(0.737372 0.473976 -7.41453e-19)
(0.556406 0.378932 -7.24396e-18)
(0.0297577 -0.02174 4.72494e-19)
(0.0584412 -0.0321864 7.52384e-19)
(0.0584677 -0.00984059 -1.94337e-18)
(0.0408766 0.0426948 -2.21195e-18)
(0.0360918 0.128966 -2.02746e-18)
(0.0284829 0.239064 1.75274e-19)
(0.0521748 0.355376 1.44289e-18)
(0.100148 0.417973 -2.59338e-18)
(0.125613 0.436266 -1.33491e-18)
(0.256338 0.459485 7.45696e-19)
(0.259686 0.428695 -2.12861e-18)
(0.455571 0.437504 2.25197e-19)
(0.386855 0.362986 1.50859e-18)
(0.678653 0.411003 -2.09505e-18)
(0.414182 0.254646 1.70778e-18)
(0.0348541 -0.0227509 -1.06369e-18)
(0.0660098 -0.0352637 2.41539e-18)
(0.0655128 -0.0191051 1.5967e-18)
(0.0483924 0.0187677 1.06657e-18)
(0.0347271 0.0761756 1.73449e-18)
(0.0196237 0.155735 -1.75246e-19)
(0.028783 0.252633 -1.33826e-18)
(0.0673558 0.319251 2.99838e-19)
(0.0988802 0.349855 1.77102e-18)
(0.202403 0.350097 -2.80379e-18)
(0.242799 0.35128 -1.29436e-18)
(0.387729 0.340155 1.27967e-19)
(0.369322 0.296861 -4.26919e-19)
(0.614527 0.336117 2.48388e-18)
(0.622457 0.305105 -2.3616e-18)
(0.0391292 -0.0244612 1.16454e-18)
(0.0692361 -0.0400235 7.82184e-19)
(0.0652723 -0.0309016 -9.006e-20)
(0.0459506 -0.00425709 -6.92405e-19)
(0.0253433 0.0335285 1.535e-19)
(0.00277057 0.0856712 -2.03113e-18)
(0.00235076 0.157631 4.401e-19)
(0.0244982 0.209738 -8.54571e-19)
(0.06194 0.251543 -8.42234e-19)
(0.146196 0.236261 1.9098e-18)
(0.208496 0.247438 2.74502e-18)
(0.319194 0.23885 1.32586e-18)
(0.399764 0.248553 1.40885e-18)
(0.712133 0.33442 -1.85455e-18)
(0.89747 0.394609 -1.95412e-18)
(0.0410535 -0.0261047 9.68335e-19)
(0.0664235 -0.0456742 -1.83097e-18)
(0.0565822 -0.0451211 -8.86172e-19)
(0.0324229 -0.0298152 -1.98603e-18)
(0.00518922 -0.00727395 8.90417e-19)
(-0.0232159 0.0229256 2.13999e-18)
(-0.0322805 0.0699619 -2.41756e-18)
(-0.0235618 0.100281 8.37057e-19)
(0.017003 0.141695 1.52637e-18)
(0.0912929 0.124845 4.05478e-19)
(0.173066 0.142973 -1.75766e-18)
(0.345216 0.185762 -7.66696e-19)
(0.587726 0.279912 -3.61453e-21)
(0.890267 0.380308 1.08332e-18)
(1.06349 0.44624 4.31347e-18)
(0.0393676 -0.0268239 -1.56345e-18)
(0.0569763 -0.0509521 -1.57074e-18)
(0.0396914 -0.060046 8.81397e-19)
(0.00916966 -0.0569316 3.52796e-18)
(-0.0251696 -0.0489512 -2.28515e-18)
(-0.0592852 -0.0367455 6.31452e-19)
(-0.0774121 -0.0132827 9.33945e-19)
(-0.0737138 -0.00400771 -8.28146e-20)
(-0.0304313 0.032726 1.92981e-19)
(0.0691413 0.0393909 8.24077e-19)
(0.254977 0.109141 -7.51704e-19)
(0.532563 0.223571 -1.60954e-18)
(0.804399 0.339038 -1.5376e-18)
(1.02222 0.418073 1.28702e-18)
(1.14864 0.462572 4.12091e-19)
(0.0334203 -0.0258959 -3.88172e-19)
(0.0414019 -0.0542645 3.12592e-18)
(0.0161656 -0.0729071 6.60838e-19)
(-0.0212291 -0.0819411 9.38389e-19)
(-0.0629806 -0.0875597 8.50394e-19)
(-0.103745 -0.0902492 8.01624e-19)
(-0.127612 -0.0866844 -2.75361e-19)
(-0.110569 -0.0870196 5.08227e-19)
(-0.0263785 -0.0404807 2.37315e-19)
(0.178744 0.033472 1.0395e-18)
(0.468913 0.160352 5.26375e-20)
(0.743621 0.28714 1.11602e-18)
(0.951553 0.378027 -9.76353e-19)
(1.09926 0.430838 -9.92176e-19)
(1.18926 0.457183 6.87939e-19)
(0.0234699 -0.0228331 1.40623e-18)
(0.0212816 -0.0539168 -1.28087e-18)
(-0.0109713 -0.0803041 1.42257e-19)
(-0.0540594 -0.0989004 -1.91236e-18)
(-0.101125 -0.114148 -1.59297e-18)
(-0.142676 -0.125767 2.75538e-18)
(-0.155009 -0.130303 7.78921e-19)
(-0.0854688 -0.119901 -1.07929e-18)
(0.0966267 -0.038573 3.04079e-19)
(0.400045 0.0962248 -2.83061e-18)
(0.681211 0.226487 9.88875e-19)
(0.891624 0.328101 -1.22487e-18)
(1.04197 0.392458 1.5405e-18)
(1.14355 0.429013 -1.5949e-19)
(1.21298 0.45121 -9.93895e-19)
(0.0106898 -0.0176021 -2.20203e-18)
(-0.000816836 -0.0487926 -2.25036e-18)
(-0.037519 -0.0793007 -2.30609e-18)
(-0.082513 -0.102203 -1.75632e-18)
(-0.127558 -0.120346 1.16609e-18)
(-0.156585 -0.131787 -4.77402e-18)
(-0.134651 -0.131108 4.32171e-19)
(0.0247102 -0.0905091 4.26788e-19)
(0.309637 0.0335967 2.20967e-19)
(0.60968 0.165793 1.3218e-18)
(0.833959 0.270974 -1.11876e-18)
(0.992189 0.348924 2.71225e-18)
(1.10039 0.396477 -5.94033e-19)
(1.17381 0.42644 -1.19738e-18)
(1.22298 0.438509 6.81105e-19)
(-0.00319602 -0.0107395 3.90499e-19)
(-0.022149 -0.0390091 1.83054e-18)
(-0.0595892 -0.0693652 2.63515e-18)
(-0.101152 -0.0913201 4.14177e-19)
(-0.135836 -0.106324 2.14282e-18)
(-0.140418 -0.111543 1.18784e-18)
(-0.0660665 -0.103311 3.77704e-19)
(0.204092 -0.01463 -1.78764e-18)
(0.519481 0.112536 -1.0012e-19)
(0.770411 0.216803 7.32872e-19)
(0.946412 0.300815 2.77582e-18)
(1.06312 0.361452 -3.51767e-19)
(1.14073 0.397857 1.02087e-18)
(1.1893 0.417703 9.84631e-19)
(1.22711 0.427094 1.6204e-18)
(-0.0164201 -0.00323688 7.27136e-19)
(-0.0406938 -0.0260429 -2.43862e-18)
(-0.0753527 -0.0529137 -5.14943e-19)
(-0.108739 -0.0703971 1.20823e-20)
(-0.127928 -0.0792742 -4.05078e-18)
(-0.102463 -0.0791779 1.08278e-18)
(0.0474094 -0.0551219 -5.27757e-19)
(0.402063 0.0667586 6.13451e-19)
(0.688191 0.171185 1.93461e-18)
(0.895512 0.255347 -6.34111e-19)
(1.0289 0.323015 -2.19067e-18)
(1.11275 0.369094 -3.03046e-19)
(1.16412 0.393887 -3.48318e-19)
(1.19935 0.410726 -7.624e-19)
(1.22904 0.416347 -1.74708e-18)
(-0.0276316 0.00385539 1.51039e-19)
(-0.0554112 -0.0119343 6.59671e-19)
(-0.0848027 -0.0333694 -1.72683e-18)
(-0.107159 -0.0448704 7.20841e-19)
(-0.108759 -0.04762 1.69253e-18)
(-0.0466781 -0.0490675 -7.37884e-19)
(0.207843 0.0200861 -1.73668e-19)
(0.570472 0.130911 -1.67037e-18)
(0.825216 0.220519 3.29563e-19)
(0.990549 0.28707 -1.11526e-18)
(1.08808 0.339642 1.06825e-18)
(1.14469 0.371761 -8.92544e-19)
(1.18066 0.391162 1.59414e-18)
(1.2051 0.402944 -6.13266e-19)
(1.22761 0.405 -1.2824e-18)
(-0.0360837 0.00971409 7.84852e-19)
(-0.0660718 0.0013985 4.91148e-19)
(-0.0888592 -0.0138765 4.43297e-19)
(-0.0987927 -0.019098 1.01022e-19)
(-0.08363 -0.019351 8.01383e-19)
(0.034657 -0.0198921 -1.94085e-18)
(0.389553 0.0937457 1.05529e-18)
(0.717776 0.187246 2.40387e-18)
(0.933084 0.260902 -2.22648e-19)
(1.06075 0.311373 1.70625e-18)
(1.12845 0.350711 1.03448e-18)
(1.16731 0.37365 1.68219e-19)
(1.19009 0.386889 3.39119e-19)
(1.2074 0.39562 6.48453e-19)
(1.22707 0.397025 1.50261e-18)
(-0.0415498 0.0138669 1.20676e-18)
(-0.0729343 0.0125461 1.72455e-18)
(-0.0887001 0.00331881 -1.56628e-18)
(-0.086168 0.00469394 1.432e-18)
(-0.0531912 -1.36002e-05 -3.42821e-18)
(0.155262 0.0333308 8.36103e-19)
(0.547974 0.151662 -3.01185e-19)
(0.839444 0.233476 -1.50992e-18)
(1.01548 0.292988 -2.59116e-18)
(1.11039 0.330125 -9.60324e-19)
(1.15665 0.35967 -2.37354e-18)
(1.18086 0.373408 1.48575e-18)
(1.19592 0.383757 -2.01049e-18)
(1.20961 0.390004 1.3747e-18)
(1.22438 0.388111 9.4298e-19)
(-0.0442636 0.0162029 -2.86099e-18)
(-0.0764938 0.0206621 1.02369e-19)
(-0.0851409 0.0170539 2.06162e-19)
(-0.0727578 0.0235236 4.06235e-19)
(-0.00707861 0.00668598 2.44557e-19)
(0.312778 0.0979848 1.64197e-18)
(0.686702 0.203046 9.01546e-19)
(0.937322 0.272644 -2.40531e-19)
(1.07636 0.318671 1.17206e-18)
(1.14519 0.344867 7.42887e-19)
(1.17424 0.36522 3.44655e-19)
(1.19004 0.373308 -8.41615e-19)
(1.19967 0.381106 2.78206e-18)
(1.2091 0.38378 4.86045e-19)
(1.22218 0.381916 -1.01221e-18)
(-0.0448181 0.0168579 2.63583e-18)
(-0.0771783 0.0252778 -1.89132e-18)
(-0.0788448 0.0277088 6.06051e-19)
(-0.0602487 0.0329459 -6.58662e-20)
(0.0663615 0.0229528 3.24255e-18)
(0.46876 0.1523 -2.68262e-19)
(0.806602 0.245833 -1.08072e-18)
(1.01391 0.303579 2.5779e-18)
(1.12044 0.338291 2.33115e-19)
(1.1678 0.355474 9.9089e-19)
(1.18596 0.369829 -1.95667e-18)
(1.19531 0.372829 4.52731e-20)
(1.20073 0.378686 -8.72698e-19)
(1.20923 0.379565 -1.76361e-19)
(1.21938 0.376021 -5.9361e-19)
(-0.0440213 0.0159735 -7.06042e-19)
(-0.0756331 0.0264616 1.9713e-18)
(-0.0715917 0.0349328 1.19637e-18)
(-0.0430354 0.0292101 9.68688e-19)
(0.180142 0.0683922 -5.3757e-19)
(0.604876 0.200127 -2.14101e-19)
(0.902983 0.282182 1.39588e-18)
(1.07109 0.328709 -1.09615e-18)
(1.15034 0.353384 3.2817e-19)
(1.18255 0.364056 -1.66855e-18)
(1.1924 0.372777 1.10734e-19)
(1.19794 0.372414 2.52452e-19)
(1.20163 0.377376 -3.63349e-19)
(1.20771 0.374905 -2.16947e-18)
(1.21583 0.371216 9.08515e-19)
(-0.0427299 0.0139123 -1.24026e-18)
(-0.0726498 0.0251398 -1.55513e-18)
(-0.0661325 0.0366557 8.17047e-19)
(-0.00968317 0.0149378 -1.1231e-19)
(0.330223 0.122072 -1.30509e-18)
(0.728208 0.24078 -4.62204e-20)
(0.981726 0.311387 -9.89931e-19)
(1.11372 0.347783 -1.90872e-18)
(1.17099 0.364699 -7.53953e-19)
(1.19109 0.370049 6.93061e-19)
(1.19602 0.375142 6.27176e-19)
(1.19929 0.372443 -6.11461e-20)
(1.20053 0.375832 -9.86405e-19)
(1.20615 0.371476 1.7911e-18)
(1.21278 0.367775 5.55742e-19)
(-0.041614 0.0110563 1.21801e-18)
(-0.0686502 0.0232023 6.0881e-22)
(-0.0628772 0.0312909 -2.00806e-18)
(0.0525372 0.0145128 -4.88933e-20)
(0.478501 0.169093 3.11786e-19)
(0.831977 0.275156 5.78097e-19)
(1.04117 0.334836 -1.02693e-18)
(1.14309 0.362758 5.25491e-19)
(1.18322 0.373228 -2.42467e-20)
(1.19566 0.375087 5.65314e-19)
(1.19732 0.377004 -5.01577e-19)
(1.19871 0.372361 -1.39915e-18)
(1.19951 0.375156 -6.89423e-20)
(1.20405 0.368289 -8.68374e-19)
(1.20846 0.364467 -7.47232e-19)
(-0.0408544 0.00772676 4.92967e-19)
(-0.0649305 0.0217519 -1.00853e-18)
(-0.0560775 0.017747 1.01962e-18)
(0.151868 0.0499534 -3.18181e-19)
(0.606267 0.211758 -1.79614e-19)
(0.917387 0.304824 -5.12773e-19)
(1.08739 0.353621 8.14031e-19)
(1.16389 0.373907 5.17176e-19)
(1.19113 0.379705 -3.05152e-19)
(1.19758 0.378771 -8.53276e-19)
(1.19712 0.378412 -3.05958e-19)
(1.19789 0.372879 1.43639e-18)
(1.19734 0.374315 8.73725e-19)
(1.20121 0.365579 8.57676e-19)
(1.20477 0.362622 -2.63133e-19)
(-0.0404832 0.00485454 -3.1189e-19)
(-0.0643001 0.0190802 1.11451e-19)
(-0.0335119 -0.00153727 -4.17657e-19)
(0.28913 0.104602 -7.00297e-21)
(0.71992 0.247798 -3.29132e-19)
(0.986493 0.328712 -4.93016e-19)
(1.12097 0.368186 1.75852e-19)
(1.17692 0.382545 -1.02186e-18)
(1.19441 0.384676 8.96651e-19)
(1.19735 0.381984 1.1289e-18)
(1.19596 0.379902 1.41695e-19)
(1.19567 0.373288 -1.24998e-18)
(1.1949 0.373873 -1.20805e-18)
(1.19844 0.363573 -9.07695e-19)
(1.20012 0.360793 3.62813e-19)
(-0.0405546 0.00439859 -9.96959e-19)
(-0.0665819 0.0130095 2.7225e-19)
(0.0141172 -0.0125642 -1.96445e-19)
(0.436742 0.153898 -2.21453e-21)
(0.818033 0.278528 -8.16589e-20)
(1.04017 0.348492 -1.83516e-19)
(1.14535 0.379926 3.51452e-19)
(1.18528 0.389194 -1.96217e-19)
(1.19595 0.388718 -2.56783e-19)
(1.19628 0.384653 -4.92757e-19)
(1.19391 0.38107 -4.34426e-19)
(1.19341 0.374121 -1.98848e-19)
(1.19204 0.373519 7.50661e-19)
(1.19471 0.361735 -2.96959e-20)
(1.19564 0.359905 5.83325e-19)
(-0.0409944 0.00720109 4.14683e-19)
(-0.0676837 0.00381561 6.93731e-19)
(0.0868987 0.00302415 1.13323e-19)
(0.562269 0.195814 4.28988e-19)
(0.899931 0.306469 9.44296e-19)
(1.08231 0.364978 3.50719e-19)
(1.16224 0.389022 1.2873e-18)
(1.18958 0.394468 6.77145e-19)
(1.19512 0.392057 4.2459e-19)
(1.19386 0.387059 9.66256e-19)
(1.19138 0.382499 2.96709e-19)
(1.19025 0.374961 5.38698e-19)
(1.18859 0.373257 2.66008e-19)
(1.19114 0.360652 1.23348e-19)
(1.19079 0.359225 4.03865e-19)
(-0.0418838 0.0119986 5.75429e-19)
(-0.0616726 -0.00811024 -9.82693e-19)
(0.187299 0.0480633 -1.84807e-19)
(0.668927 0.233216 4.4699e-19)
(0.966845 0.33076 -9.49752e-19)
(1.11414 0.378841 -3.89386e-19)
(1.17355 0.396592 -7.92843e-19)
(1.19144 0.398876 -2.55681e-20)
(1.19361 0.395075 -2.11038e-19)
(1.19133 0.389375 -8.13166e-19)
(1.18832 0.383775 6.14235e-19)
(1.18697 0.376006 4.65209e-20)
(1.18509 0.373256 -2.59107e-20)
(1.18683 0.359749 2.16702e-19)
(1.18568 0.358914 -4.954e-19)
(-0.0436625 0.0151832 -4.2377e-20)
(-0.0423178 -0.0189672 4.29102e-19)
(0.309379 0.102101 1.15188e-19)
(0.761574 0.264664 -6.23449e-19)
(1.02014 0.351342 4.19305e-19)
(1.13797 0.390506 1.33913e-19)
(1.18079 0.402818 -3.51144e-19)
(1.19141 0.402686 -1.65983e-19)
(1.19097 0.397854 -5.02063e-19)
(1.18785 0.391548 8.81388e-20)
(1.18487 0.385293 -5.94639e-19)
(1.18313 0.377171 -4.18077e-19)
(1.18092 0.373262 1.10963e-19)
(1.18246 0.359398 1.13753e-19)
(1.18061 0.358889 -1.97073e-19)
(-0.0463959 0.0131935 -2.13251e-19)
(-0.00743145 -0.0221266 -1.35578e-19)
(0.435073 0.150646 2.9531e-19)
(0.842489 0.292661 5.35375e-19)
(1.06222 0.368619 1.04191e-19)
(1.15486 0.400241 -2.88574e-19)
(1.18477 0.408341 3.63631e-19)
(1.19012 0.406302 3.15815e-19)
(1.18799 0.400632 1.63586e-19)
(1.18444 0.393848 3.07857e-20)
(1.1811 0.38682 1.91174e-19)
(1.17904 0.378409 8.38556e-20)
(1.17676 0.373562 -5.8099e-20)
(1.17767 0.359295 -7.32294e-20)
(1.17515 0.358896 6.40857e-20)
(-0.0496807 0.00402747 -9.9365e-20)
(0.0423981 -0.0144009 -1.16521e-19)
(0.547089 0.192571 9.59806e-20)
(0.912475 0.318778 -1.26924e-19)
(1.0954 0.383719 -2.7152e-19)
(1.16664 0.408609 2.1279e-20)
(1.18651 0.413259 1.67225e-19)
(1.18794 0.409759 -1.50932e-19)
(1.18445 0.403429 9.95407e-20)
(1.18033 0.396109 1.99494e-19)
(1.17691 0.388523 3.17315e-20)
(1.17459 0.379821 7.84652e-20)
(1.17202 0.373901 -9.40847e-20)
(1.17264 0.359494 6.39332e-20)