/*--------------------------------*- C++ -*----------------------------------*\
  =========                 |
  \\      /  F ield         | OpenFOAM: The Open Source CFD Toolbox
   \\    /   O peration     | Website:  https://openfoam.org
    \\  /    A nd           | Version:  7
     \\/     M anipulation  |
\*---------------------------------------------------------------------------*/
FoamFile
{
    version     2.0;
    format      ascii;
    class       volVectorField;
    location    "9.999";
    object      U;
}
// * * * * * * * * * * * * * * * * * * * * * * * * * * * * * * * * * * * * * //

dimensions      [0 1 -1 0 0 0 0];

internalField   nonuniform List<vector> 
18750
(
(-0.0527469 0.0322236 -1.45642e-20)
(-0.179243 0.0375368 4.88618e-21)
(-0.310291 0.0349912 5.2503e-20)
(-0.426497 0.0331349 1.20423e-20)
(-0.540843 0.0311634 -2.88869e-20)
(-0.646011 0.0291742 -7.0058e-20)
(-0.74603 0.027056 7.17076e-20)
(-0.837249 0.0248633 4.69493e-20)
(-0.922001 0.0226195 -3.48895e-20)
(-0.998396 0.0204142 -9.30166e-20)
(-1.06813 0.0182885 3.49887e-19)
(-1.12985 0.0162676 -2.83916e-19)
(-1.18484 0.0143379 1.66833e-19)
(-1.23239 0.0125429 -3.19605e-19)
(-1.27393 0.0109609 7.45462e-20)
(-0.0547014 0.096075 8.81615e-21)
(-0.180368 0.112095 1.43087e-20)
(-0.309622 0.104533 7.29876e-21)
(-0.424056 0.0989896 8.05241e-20)
(-0.53651 0.0930997 1.66307e-19)
(-0.639668 0.0871475 2.21267e-19)
(-0.73749 0.0808072 -1.87825e-19)
(-0.826313 0.0742442 3.04902e-19)
(-0.908439 0.0675279 2.82945e-19)
(-0.982003 0.0609257 -8.77925e-20)
(-1.04874 0.0545682 -3.70127e-19)
(-1.10731 0.0485471 2.03139e-20)
(-1.15898 0.0428319 8.27089e-20)
(-1.20296 0.0375314 2.10021e-19)
(-1.24067 0.03283 -3.13163e-19)
(-0.05853 0.158208 2.71703e-20)
(-0.18259 0.185185 4.1065e-20)
(-0.30834 0.172828 -1.30538e-19)
(-0.419326 0.163681 9.07181e-21)
(-0.528136 0.153949 -3.09387e-19)
(-0.627472 0.144083 1.01762e-19)
(-0.721174 0.133567 -2.86336e-19)
(-0.805575 0.122678 -3.39932e-20)
(-0.882925 0.111533 -2.17372e-19)
(-0.951411 0.100575 6.41989e-19)
(-1.01284 0.0900413 8.38234e-19)
(-1.06595 0.0801312 7.26587e-19)
(-1.11196 0.0708249 4.20992e-19)
(-1.14998 0.0622424 2.8126e-19)
(-1.18141 0.0545557 -5.08262e-19)
(-0.0640778 0.217539 -1.43218e-19)
(-0.185853 0.25587 1.70057e-19)
(-0.306533 0.239095 -1.27764e-19)
(-0.412556 0.226502 -2.68308e-19)
(-0.516202 0.213075 4.63531e-19)
(-0.610211 0.199396 -4.30033e-19)
(-0.698277 0.184798 6.32394e-19)
(-0.776747 0.169676 -5.32543e-19)
(-0.847814 0.154196 3.70848e-19)
(-0.909743 0.138966 -9.01082e-19)
(-0.964443 0.124354 -1.27401e-18)
(-1.0108 0.11072 6.84518e-20)
(-1.05004 0.0980917 -2.37768e-19)
(-1.0812 0.0865477 -5.05873e-19)
(-1.10566 0.0761238 1.87186e-18)
(-0.0711205 0.273069 -1.09021e-19)
(-0.190056 0.323259 2.46523e-19)
(-0.304292 0.302621 5.70654e-20)
(-0.404034 0.286837 2.12741e-19)
(-0.501268 0.269944 -2.82587e-19)
(-0.588777 0.252623 1.22253e-19)
(-0.670097 0.234107 1.49826e-18)
(-0.741625 0.214907 2.29312e-19)
(-0.805491 0.195243 4.05045e-19)
(-0.860063 0.175881 -1.38318e-19)
(-0.907378 0.157344 1.23958e-19)
(-0.946561 0.140201 -4.55093e-20)
(-0.978961 0.124582 -1.32989e-18)
(-1.00364 0.110498 -7.36236e-19)
(-1.02203 0.0977476 -2.12827e-18)
(-0.0794324 0.323955 2.46854e-19)
(-0.195091 0.38651 7.99608e-20)
(-0.301679 0.36278 -1.18507e-19)
(-0.394043 0.344172 -8.69766e-20)
(-0.483896 0.324129 9.41641e-20)
(-0.56405 0.303417 -1.28497e-18)
(-0.63788 0.281218 -1.6435e-19)
(-0.701874 0.258165 8.26554e-20)
(-0.7581 0.234539 -5.99489e-19)
(-0.805047 0.211261 -8.14822e-19)
(-0.844916 0.18903 5.86176e-19)
(-0.877176 0.168671 -5.73222e-19)
(-0.903462 0.150471 1.7434e-18)
(-0.92301 0.134392 -1.33967e-18)
(-0.93721 0.119932 2.90618e-18)
(-0.0887286 0.369367 -2.19737e-19)
(-0.200755 0.44486 -3.7558e-19)
(-0.298673 0.419071 1.53375e-19)
(-0.382833 0.398102 1.15066e-18)
(-0.46461 0.375309 1.16588e-18)
(-0.536828 0.35154 -4.03566e-19)
(-0.602719 0.325973 2.04721e-19)
(-0.658901 0.299368 1.30402e-19)
(-0.707397 0.272083 1.28273e-18)
(-0.74684 0.245193 1.75712e-18)
(-0.779617 0.219589 -8.48029e-19)
(-0.805616 0.196387 -1.59902e-18)
(-0.826869 0.1761 -2.92999e-18)
(-0.842847 0.158691 4.95116e-19)
(-0.854716 0.143293 -3.5469e-18)
(-0.0986531 0.408453 -1.92038e-19)
(-0.206797 0.4977 -2.26945e-19)
(-0.295219 0.471135 -1.65903e-18)
(-0.370615 0.448326 5.88544e-19)
(-0.443856 0.423251 -7.01727e-19)
(-0.50779 0.396833 4.76379e-19)
(-0.56553 0.368287 5.00864e-19)
(-0.613859 0.3385 -2.19125e-18)
(-0.654774 0.307929 -1.44654e-18)
(-0.687067 0.277813 -2.41781e-18)
(-0.71329 0.24925 -4.06922e-19)
(-0.733738 0.223665 1.69984e-18)
(-0.75084 0.201834 6.55648e-18)
(-0.764274 0.183764 -9.86985e-19)
(-0.77465 0.168157 1.75154e-18)
(-0.108766 0.440484 1.03306e-18)
(-0.212904 0.544573 4.16899e-19)
(-0.29124 0.518725 1.81748e-18)
(-0.357554 0.494635 -1.33974e-18)
(-0.422008 0.467799 6.325e-19)
(-0.477501 0.439214 -1.05572e-18)
(-0.527046 0.408147 -2.42035e-18)
(-0.567625 0.375615 2.14714e-18)
(-0.601216 0.342202 2.5277e-19)
(-0.62677 0.309322 3.59682e-18)
(-0.646937 0.278278 -1.15761e-18)
(-0.662337 0.250779 -5.14499e-18)
(-0.675695 0.227865 -3.10334e-18)
(-0.686778 0.209634 3.19538e-19)
(-0.695313 0.194369 -1.47086e-18)
(-0.118518 0.464764 -8.53172e-19)
(-0.218664 0.585078 -4.87316e-19)
(-0.286617 0.561699 6.20222e-19)
(-0.343778 0.536891 9.54756e-20)
(-0.399356 0.508864 -2.48216e-19)
(-0.446395 0.478647 -2.843e-19)
(-0.48783 0.445563 1.10656e-18)
(-0.520843 0.410766 -1.29712e-18)
(-0.547402 0.374994 1.26777e-18)
(-0.566603 0.339834 1.56138e-18)
(-0.581108 0.306783 -2.74705e-18)
(-0.591715 0.2778 5.14882e-18)
(-0.601215 0.254167 5.98048e-19)
(-0.609306 0.236104 7.90692e-19)
(-0.614854 0.221469 1.80863e-18)
(-0.127318 0.480871 1.58635e-18)
(-0.223657 0.619063 -5.1967e-19)
(-0.281242 0.599957 -2.33314e-18)
(-0.329373 0.575012 9.24252e-19)
(-0.376113 0.546402 -5.36303e-19)
(-0.414817 0.515133 6.31715e-19)
(-0.448309 0.480572 4.66313e-18)
(-0.473977 0.444026 2.23283e-18)
(-0.49377 0.406396 1.46848e-18)
(-0.506907 0.36945 -4.88457e-18)
(-0.515967 0.334863 5.26654e-18)
(-0.521743 0.304783 1.8833e-18)
(-0.526853 0.280632 -3.01817e-18)
(-0.530873 0.262691 3.63329e-18)
(-0.532203 0.248647 -1.16536e-19)
(-0.134352 0.488135 3.08392e-19)
(-0.227366 0.646381 8.42295e-20)
(-0.274967 0.633433 -1.49891e-19)
(-0.314381 0.608967 -1.64982e-18)
(-0.352439 0.580439 3.28821e-18)
(-0.383012 0.548697 -1.68209e-18)
(-0.408795 0.5132 -4.93054e-18)
(-0.427349 0.475422 1.48785e-18)
(-0.4406 0.436435 -2.38072e-18)
(-0.447862 0.39817 3.6536e-18)
(-0.451556 0.362453 -6.50025e-18)
(-0.452346 0.331541 4.95426e-19)
(-0.452495 0.306917 2.68731e-18)
(-0.451262 0.28896 -5.57661e-18)
(-0.447049 0.275306 -1.30148e-18)
(-0.138777 0.486573 -1.0384e-18)
(-0.229363 0.667165 3.02233e-19)
(-0.267757 0.661984 9.24639e-19)
(-0.298797 0.638802 -4.33188e-20)
(-0.328425 0.611014 -4.45526e-18)
(-0.351185 0.579368 4.32086e-19)
(-0.369532 0.543479 1.60626e-18)
(-0.381209 0.504989 -4.32275e-18)
(-0.388097 0.465125 3.19728e-18)
(-0.38958 0.425964 -2.91458e-18)
(-0.387865 0.389458 7.89396e-18)
(-0.383428 0.357937 -3.26536e-18)
(-0.378049 0.332907 3.88339e-18)
(-0.370431 0.314535 7.81612e-18)
(-0.35947 0.300373 3.3458e-18)
(-0.139966 0.476661 -4.04212e-19)
(-0.229178 0.681256 -3.37925e-21)
(-0.259493 0.685519 -3.95326e-20)
(-0.282569 0.664634 -1.01716e-19)
(-0.304172 0.638244 -2.13634e-18)
(-0.31948 0.607194 -9.50287e-19)
(-0.330701 0.571416 1.55692e-18)
(-0.335733 0.532688 9.38553e-19)
(-0.336404 0.492389 -5.42301e-18)
(-0.33215 0.452714 -2.99089e-19)
(-0.324925 0.415707 -1.55021e-18)
(-0.314969 0.383703 3.10776e-18)
(-0.303763 0.358185 -4.29973e-18)
(-0.289245 0.33919 -5.98023e-19)
(-0.269808 0.323999 -3.78038e-18)
(-0.137452 0.45856 1.7878e-18)
(-0.226332 0.688188 -1.57836e-18)
(-0.250049 0.704117 -2.18955e-18)
(-0.26565 0.686697 3.92493e-18)
(-0.279713 0.662177 3.48976e-18)
(-0.288041 0.632202 4.48271e-18)
(-0.292471 0.597032 1.93425e-19)
(-0.291107 0.558514 3.04084e-18)
(-0.28571 0.518188 4.07067e-18)
(-0.275725 0.478313 6.02482e-18)
(-0.262849 0.44103 -2.75388e-18)
(-0.247051 0.408592 5.71974e-18)
(-0.229721 0.382651 -5.00068e-20)
(-0.208562 0.362967 -2.86555e-18)
(-0.178403 0.345883 -7.02876e-18)
(-0.130931 0.432205 -1.11369e-18)
(-0.220438 0.687677 1.7651e-18)
(-0.239219 0.717991 1.17545e-18)
(-0.248117 0.705254 -3.67686e-18)
(-0.255179 0.682945 -1.736e-18)
(-0.256963 0.654482 -3.20597e-19)
(-0.254988 0.620326 -2.33369e-18)
(-0.247486 0.582384 -4.00864e-18)
(-0.236113 0.542285 -6.80117e-18)
(-0.220422 0.502505 -2.93197e-18)
(-0.201834 0.465136 4.06222e-18)
(-0.179942 0.432394 -8.43578e-18)
(-0.156058 0.405744 2.82737e-19)
(-0.129051 0.385425 5.25037e-18)
(-0.0876571 0.367988 7.51979e-18)
(-0.120188 0.397629 -2.64987e-18)
(-0.211287 0.679681 2.07822e-18)
(-0.226848 0.727136 -3.61692e-18)
(-0.229952 0.720327 -1.74241e-18)
(-0.230699 0.700754 -1.06756e-19)
(-0.226403 0.674172 2.44289e-18)
(-0.218425 0.641377 3.97568e-18)
(-0.205132 0.604308 1.31136e-18)
(-0.187938 0.56466 1.89745e-18)
(-0.166492 0.525117 -5.32149e-18)
(-0.142118 0.487823 1.22659e-19)
(-0.11403 0.454897 -4.003e-18)
(-0.0830031 0.42759 -2.95437e-18)
(-0.0507085 0.40639 -8.3943e-18)
(0.00265304 0.389494 -1.18317e-19)
(-0.105213 0.355145 2.33201e-18)
(-0.198855 0.664146 3.685e-19)
(-0.212939 0.731409 5.74735e-19)
(-0.211206 0.731956 4.33281e-18)
(-0.206325 0.715667 1.82853e-18)
(-0.196476 0.691293 -2.27277e-18)
(-0.182929 0.660119 1.78525e-18)
(-0.164178 0.624115 -1.03577e-18)
(-0.141433 0.585194 -2.0518e-18)
(-0.114275 0.546022 2.36323e-18)
(-0.0841031 0.508915 -7.81353e-18)
(-0.0498842 0.475806 -2.91935e-19)
(-0.0109272 0.447335 -4.31671e-18)
(0.0250659 0.425632 6.67238e-18)
(0.0938869 0.412331 5.97758e-19)
(-0.0864398 0.305367 -8.80025e-19)
(-0.183327 0.640821 -2.48221e-18)
(-0.197625 0.730442 6.70152e-19)
(-0.192005 0.74011 -4.95347e-18)
(-0.182142 0.727774 -3.40924e-18)
(-0.167296 0.705895 -1.91938e-18)
(-0.148661 0.676552 -3.37613e-18)
(-0.124831 0.641834 3.26049e-18)
(-0.096832 0.603757 4.58167e-18)
(-0.0640827 0.564973 8.87271e-18)
(-0.0281033 0.527988 -3.63559e-19)
(0.0116096 0.494952 9.83603e-18)
(0.0604461 0.465404 3.85089e-18)
(0.0968788 0.441206 2.95513e-18)
(0.185491 0.434387 -6.5741e-18)
(-0.065062 0.249198 1.50593e-18)
(-0.165131 0.609144 3.76987e-18)
(-0.181125 0.72354 2.59851e-18)
(-0.172524 0.744579 3.44302e-18)
(-0.158278 0.737119 2.02243e-20)
(-0.138986 0.718072 1.3716e-18)
(-0.115761 0.690732 4.0176e-20)
(-0.0872712 0.657382 -2.50203e-18)
(-0.0544349 0.620236 3.88293e-18)
(-0.0163338 0.581827 -1.34912e-17)
(0.0258558 0.544565 3.92675e-18)
(0.0692242 0.511874 -2.59277e-18)
(0.130773 0.481142 5.01838e-19)
(0.162851 0.452695 -3.77014e-18)
(0.27842 0.458625 -4.19194e-18)
(-0.0437972 0.187762 -2.45831e-18)
(-0.144982 0.568116 3.28029e-18)
(-0.163648 0.709564 -8.44413e-19)
(-0.152915 0.744916 -1.43836e-18)
(-0.134885 0.743701 3.03826e-18)
(-0.111689 0.72789 3.23572e-19)
(-0.0844073 0.702721 -9.15249e-19)
(-0.0516623 0.670827 -1.08918e-19)
(-0.0144147 0.634527 -2.5013e-18)
(0.028285 0.596481 6.4546e-18)
(0.077994 0.558364 3.88885e-18)
(0.121932 0.526458 2.04074e-18)
(0.201211 0.496259 -1.7546e-19)
(0.219039 0.452489 4.78114e-18)
(0.368276 0.478853 -4.12482e-19)
(-0.0274081 0.123776 7.18772e-19)
(-0.123864 0.51631 -7.92245e-19)
(-0.145336 0.687013 6.05718e-19)
(-0.133309 0.74033 2.66183e-18)
(-0.112102 0.747276 -1.70801e-18)
(-0.0855294 0.735382 -1.10974e-18)
(-0.0547479 0.712571 -2.1027e-18)
(-0.0182054 0.682101 1.65433e-18)
(0.0232361 0.646568 -1.72132e-18)
(0.0688739 0.609132 -1.95007e-18)
(0.128656 0.568987 -3.37642e-18)
(0.167633 0.53654 -1.95598e-18)
(0.273456 0.516554 6.9298e-18)
(0.269604 0.449419 -9.49153e-18)
(0.447663 0.479937 -2.36628e-19)
(-0.0185145 0.0633367 3.07047e-18)
(-0.102834 0.452077 -1.19976e-18)
(-0.126141 0.654179 -3.11716e-18)
(-0.113739 0.729687 -8.42227e-19)
(-0.0900748 0.747358 4.44691e-18)
(-0.0606294 0.740414 -8.33402e-20)
(-0.0269473 0.720365 2.16344e-18)
(0.0127586 0.691431 -1.19135e-18)
(0.058959 0.656092 -4.59708e-18)
(0.104435 0.619868 1.06298e-17)
(0.178894 0.578167 -7.72934e-18)
(0.204226 0.536874 2.25855e-18)
(0.343427 0.535353 -9.85433e-18)
(0.321744 0.458917 3.48438e-18)
(0.518217 0.473005 2.81117e-18)
(-0.0130587 0.0138275 -1.09545e-18)
(-0.081841 0.373796 -3.51643e-18)
(-0.105968 0.609524 1.58831e-18)
(-0.0941969 0.711274 2.80769e-19)
(-0.0688875 0.742967 -3.98719e-18)
(-0.0370919 0.742727 2.47596e-18)
(-0.000992144 0.726001 1.2044e-19)
(0.0405474 0.698921 -6.10311e-19)
(0.093286 0.663173 -4.67839e-18)
(0.134035 0.627707 -5.6252e-19)
(0.22955 0.58997 6.10916e-18)
(0.234217 0.530843 5.00421e-19)
(0.405321 0.538625 1.41842e-18)
(0.372969 0.471666 4.00237e-18)
(0.582249 0.468494 -1.00913e-17)
(-0.0053069 -0.0199163 -1.65993e-18)
(-0.0609996 0.281466 5.46963e-20)
(-0.0845142 0.551599 -2.01805e-18)
(-0.0746663 0.682976 1.63892e-18)
(-0.0486682 0.73268 2.24721e-18)
(-0.0151478 0.741714 -1.68891e-18)
(0.0232837 0.729364 -2.95759e-19)
(0.0643897 0.704768 -1.39908e-18)
(0.126776 0.668175 3.52984e-18)
(0.157074 0.62981 6.7794e-19)
(0.278841 0.604359 -8.81087e-18)
(0.26295 0.529447 2.36245e-18)
(0.458882 0.52964 1.44393e-18)
(0.420574 0.475352 -6.48329e-18)
(0.637094 0.462056 1.48122e-18)
(0.00504407 -0.0371694 3.74084e-19)
(-0.0433652 0.182029 1.00521e-18)
(-0.0625308 0.47858 1.87922e-18)
(-0.055081 0.641905 -1.59899e-18)
(-0.0294145 0.714446 -6.8328e-20)
(0.00474154 0.736407 4.07199e-18)
(0.0462231 0.72978 -1.86638e-19)
(0.0834935 0.708516 7.34864e-21)
(0.15911 0.673596 5.65046e-18)
(0.174674 0.624499 -3.20845e-18)
(0.322961 0.613973 2.26196e-18)
(0.293536 0.535409 -6.29206e-18)
(0.502915 0.520933 5.32968e-19)
(0.467607 0.472987 -1.59869e-18)
(0.68438 0.452621 2.7905e-18)
(0.0139161 -0.041688 -2.77901e-19)
(-0.0291114 0.0921903 1.26028e-18)
(-0.0414067 0.389675 -1.67316e-18)
(-0.0358911 0.585255 3.52324e-18)
(-0.0112 0.685522 -2.98067e-18)
(0.0217924 0.725119 -2.6841e-18)
(0.0678339 0.726612 -1.66694e-18)
(0.0979587 0.708223 -3.57651e-18)
(0.188858 0.680717 -6.87094e-18)
(0.188951 0.615698 1.04269e-18)
(0.355521 0.612144 5.28014e-18)
(0.32898 0.539671 4.12119e-18)
(0.531179 0.513929 6.63877e-19)
(0.513546 0.467432 -3.35938e-18)
(0.725452 0.4406 -1.62542e-18)
(0.0191401 -0.0392451 6.73118e-19)
(-0.0120365 0.0285008 1.18309e-18)
(-0.0213317 0.284626 -5.02618e-18)
(-0.0175278 0.510543 -3.48651e-18)
(0.00593254 0.642543 -1.04205e-19)
(0.0350619 0.705055 2.81524e-18)
(0.0872668 0.718708 -1.02468e-18)
(0.107798 0.701737 7.9425e-18)
(0.213324 0.688344 6.38286e-19)
(0.207315 0.60894 -4.30693e-18)
(0.365505 0.599602 -4.06916e-18)
(0.374065 0.538023 -6.30294e-18)
(0.538199 0.50171 6.9728e-18)
(0.565626 0.459281 4.48389e-18)
(0.759105 0.427336 -9.48761e-21)
(0.0217117 -0.0346043 -1.87431e-18)
(0.00912816 -0.00730491 -3.48257e-18)
(-0.00328103 0.173343 2.50268e-18)
(-0.00129164 0.416315 3.08288e-18)
(0.0216972 0.581431 1.92819e-18)
(0.0439321 0.672032 -1.95624e-18)
(0.102781 0.70449 5.00347e-18)
(0.114432 0.685821 -7.05991e-18)
(0.223576 0.689133 7.82084e-18)
(0.239828 0.612881 4.89337e-18)
(0.351684 0.575159 -1.52357e-18)
(0.43768 0.543218 -2.06152e-18)
(0.520976 0.477844 -2.81184e-18)
(0.644249 0.460509 -5.38961e-18)
(0.774213 0.405924 6.39767e-18)
(0.0239369 -0.0306781 5.30094e-18)
(0.0292259 -0.0231945 4.0663e-18)
(0.0154509 0.0848989 9.26742e-19)
(0.0116056 0.307593 -4.7513e-20)
(0.0349961 0.498664 -6.59157e-19)
(0.0480125 0.620243 -7.96983e-19)
(0.110662 0.681007 -3.90828e-18)
(0.122152 0.662949 6.71506e-18)
(0.21293 0.666818 -5.22107e-18)
(0.280454 0.628201 -3.46503e-20)
(0.32361 0.541992 4.93499e-18)
(0.507315 0.55159 3.35684e-18)
(0.489218 0.444224 3.35108e-18)
(0.737986 0.463423 -2.67045e-20)
(0.752023 0.358038 -3.91162e-18)
(0.0280299 -0.0283225 -3.18596e-18)
(0.0468896 -0.0286596 -3.30082e-18)
(0.038682 0.0349632 1.03833e-18)
(0.0237672 0.200057 -1.67582e-18)
(0.0448416 0.397029 -7.80368e-19)
(0.0482672 0.543877 2.87631e-18)
(0.105563 0.638478 -7.68077e-19)
(0.131356 0.639155 -6.93389e-19)
(0.186388 0.619205 -2.09689e-18)
(0.307925 0.627508 -4.73827e-18)
(0.300891 0.51518 2.17532e-18)
(0.543523 0.532509 -2.58935e-18)
(0.450629 0.408196 -3.88844e-18)
(0.799464 0.432586 -1.73993e-18)
(0.582519 0.277375 6.93957e-18)
(0.0345742 -0.0279209 3.60069e-18)
(0.0635203 -0.0313712 -2.8318e-18)
(0.0624216 0.0123711 -4.66765e-18)
(0.0401663 0.117731 4.75909e-19)
(0.0505784 0.29072 1.15976e-18)
(0.0469409 0.447069 -7.98973e-19)
(0.0871164 0.565509 2.20925e-18)
(0.13136 0.605541 4.75176e-19)
(0.160582 0.565819 -3.10328e-19)
(0.294792 0.584262 8.76405e-20)
(0.303297 0.495008 -2.25496e-18)
(0.503524 0.480277 2.90577e-19)
(0.448123 0.369016 1.25166e-18)
(0.716298 0.369307 -9.58799e-19)
(0.528723 0.208005 6.74415e-18)
(0.0432038 -0.0296345 7.56732e-19)
(0.0792499 -0.0352019 -1.62636e-18)
(0.0813263 0.000313073 4.55366e-18)
(0.0590207 0.0692361 3.55884e-18)
(0.0529036 0.197914 -3.60266e-18)
(0.0428845 0.342924 -2.38211e-19)
(0.0628233 0.467917 -1.66785e-18)
(0.109126 0.53956 -6.068e-19)
(0.142805 0.518627 4.36456e-18)
(0.244822 0.502446 2.19641e-18)
(0.308196 0.463722 2.95803e-18)
(0.42685 0.406722 -2.40724e-18)
(0.427819 0.321965 1.56049e-18)
(0.659757 0.307751 -9.31097e-19)
(0.827464 0.273199 -8.62368e-18)
(0.0527506 -0.0331044 6.03154e-19)
(0.0923271 -0.0414707 9.70067e-19)
(0.0931963 -0.0118444 -2.51043e-18)
(0.0722667 0.0396208 -2.89115e-18)
(0.0521227 0.126885 -2.68436e-18)
(0.03298 0.245179 2.32661e-19)
(0.0357501 0.361524 1.94659e-18)
(0.0730583 0.442676 -3.49378e-18)
(0.10804 0.452013 -1.79174e-18)
(0.198255 0.418791 1.00174e-18)
(0.26782 0.388114 -2.74867e-18)
(0.340333 0.325928 2.52751e-19)
(0.427757 0.264903 1.90762e-18)
(0.812291 0.319578 -2.6368e-18)
(1.03409 0.328665 2.10756e-18)
(0.0614566 -0.0375307 -1.35591e-18)
(0.100253 -0.0500053 3.08045e-18)
(0.0964477 -0.0278158 2.05375e-18)
(0.0738048 0.0126157 1.39263e-18)
(0.044932 0.0723012 2.29531e-18)
(0.0153334 0.159974 -2.30879e-19)
(0.00661202 0.258915 -1.8027e-18)
(0.0244188 0.329137 4.03791e-19)
(0.0635837 0.360263 2.36476e-18)
(0.146143 0.330647 -3.82657e-18)
(0.178298 0.2775 -1.83166e-18)
(0.303718 0.249995 1.32669e-19)
(0.614414 0.277936 -5.74846e-19)
(0.974711 0.350155 3.24544e-18)
(1.15705 0.340456 -2.8739e-18)
(0.0673325 -0.0418305 1.47241e-18)
(0.100983 -0.0596765 9.78697e-19)
(0.0900308 -0.0470857 -1.25405e-19)
(0.0625759 -0.0177024 -9.01895e-19)
(0.0277356 0.0237255 2.0539e-19)
(-0.00986299 0.08503 -2.64246e-18)
(-0.0282875 0.162926 5.83957e-19)
(-0.0260551 0.213404 -1.14497e-18)
(0.0157222 0.255473 -1.16921e-18)
(0.052016 0.215544 2.62588e-18)
(0.146839 0.187984 3.88372e-18)
(0.455667 0.246175 1.89829e-18)
(0.829829 0.318785 1.94673e-18)
(1.09601 0.36193 -2.49457e-18)
(1.27316 0.375671 -2.51464e-18)
(0.0687076 -0.0448281 1.20989e-18)
(0.0936469 -0.0688115 -2.32673e-18)
(0.0741182 -0.0675641 -1.12745e-18)
(0.0403254 -0.0509253 -2.51024e-18)
(0.000102025 -0.0247842 1.13552e-18)
(-0.0427219 0.0152828 2.79586e-18)
(-0.0715974 0.0716181 -3.15351e-18)
(-0.0816829 0.10336 1.11206e-18)
(-0.0615525 0.138076 2.08744e-18)
(0.00758558 0.119009 5.69816e-19)
(0.299351 0.179175 -2.58073e-18)
(0.687949 0.290125 -1.0986e-18)
(0.988544 0.342589 -1.42669e-21)
(1.20361 0.388513 1.40536e-18)
(1.29718 0.374798 5.34529e-18)
(0.0647125 -0.0454831 -1.96624e-18)
(0.0788395 -0.0755094 -1.9717e-18)
(0.0504865 -0.0861557 1.09967e-18)
(0.0100562 -0.0831699 4.45746e-18)
(-0.0356252 -0.0720309 -2.8906e-18)
(-0.0843968 -0.0486511 8.32453e-19)
(-0.124573 -0.0118814 1.20835e-18)
(-0.138716 0.00732826 -9.58521e-20)
(-0.0943109 0.0402274 2.53435e-19)
(0.144541 0.107541 1.17029e-18)
(0.547789 0.230024 -1.13048e-18)
(0.872834 0.323128 -2.413e-18)
(1.11565 0.371628 -2.17321e-18)
(1.24101 0.386583 1.79306e-18)
(1.32572 0.3748 5.11223e-19)
(0.0555121 -0.0431603 -4.8226e-19)
(0.0583728 -0.0778685 3.885e-18)
(0.0223403 -0.0990419 8.04884e-19)
(-0.0236017 -0.108171 1.14726e-18)
(-0.0730882 -0.108422 1.04655e-18)
(-0.123338 -0.0957077 1.01542e-18)
(-0.161238 -0.0707838 -3.66896e-19)
(-0.141919 -0.0503966 6.36021e-19)
(0.0195655 0.0219423 3.06769e-19)
(0.400265 0.163767 1.45979e-18)
(0.756269 0.276108 1.02721e-19)
(1.01908 0.355417 1.68576e-18)
(1.17594 0.374936 -1.33952e-18)
(1.27587 0.387379 -1.27793e-18)
(1.33402 0.378243 8.33455e-19)
(0.0423173 -0.0377958 1.73815e-18)
(0.035001 -0.0745559 -1.59529e-18)
(-0.00576596 -0.102848 1.58438e-19)
(-0.0530753 -0.119309 -2.35135e-18)
(-0.100047 -0.124415 -1.91767e-18)
(-0.138595 -0.113615 3.24252e-18)
(-0.153034 -0.0875348 8.99102e-19)
(-0.0576609 -0.0515932 -1.3085e-18)
(0.258068 0.0852134 3.18983e-19)
(0.629166 0.221763 -3.9325e-18)
(0.919798 0.31514 1.46612e-18)
(1.10223 0.364033 -1.74373e-18)
(1.22383 0.378644 2.12295e-18)
(1.28841 0.385903 -2.49637e-19)
(1.32177 0.363774 -1.2142e-18)
(0.0269521 -0.0300208 -2.71389e-18)
(0.0115768 -0.0656708 -2.76253e-18)
(-0.0299623 -0.0969474 -2.82621e-18)
(-0.0731284 -0.115732 -2.10686e-18)
(-0.108726 -0.120515 1.39345e-18)
(-0.123956 -0.105205 -5.49243e-18)
(-0.100832 -0.0767336 5.00935e-19)
(0.117221 0.00659776 4.29965e-19)
(0.493979 0.156183 2.51017e-19)
(0.811108 0.266183 1.84496e-18)
(1.02569 0.332757 -1.53653e-18)
(1.16571 0.370881 3.83018e-18)
(1.24594 0.376718 -7.99205e-19)
(1.2861 0.373837 -1.53317e-18)
(1.32585 0.364078 8.57335e-19)
(0.011225 -0.0209577 4.79836e-19)
(-0.00988279 -0.0527161 2.2431e-18)
(-0.0484627 -0.0835111 3.1992e-18)
(-0.0830244 -0.101666 5.11513e-19)
(-0.102053 -0.1042 2.48384e-18)
(-0.0893058 -0.0848746 1.33189e-18)
(-0.00569594 -0.0560361 3.93169e-19)
(0.340992 0.0821541 -1.99684e-18)
(0.689338 0.208141 -1.26631e-19)
(0.940586 0.292094 9.31373e-19)
(1.10547 0.346159 3.78227e-18)
(1.20056 0.369937 -5.33438e-19)
(1.2549 0.368329 1.35325e-18)
(1.29211 0.372125 1.26747e-18)
(1.31147 0.354119 1.97568e-18)
(-0.00351917 -0.0118295 8.87167e-19)
(-0.0284634 -0.0379398 -2.97007e-18)
(-0.0617228 -0.0662713 -6.31385e-19)
(-0.0854595 -0.0830507 1.63405e-20)
(-0.08683 -0.0848153 -4.65987e-18)
(-0.0434515 -0.071467 1.1837e-18)
(0.147221 -0.00453163 -5.44302e-19)
(0.545278 0.140352 6.47397e-19)
(0.840712 0.244311 2.23441e-18)
(1.0385 0.311367 -8.175e-19)
(1.15501 0.350923 -2.89648e-18)
(1.22221 0.365065 -4.26771e-19)
(1.26472 0.366307 -4.53775e-19)
(1.28268 0.361435 -9.80664e-19)
(1.3051 0.34688 -2.14665e-18)
(-0.0163723 -0.00371287 1.8409e-19)
(-0.0440245 -0.0234164 8.0249e-19)
(-0.0711667 -0.0482841 -2.08409e-18)
(-0.0844427 -0.0642261 8.51323e-19)
(-0.0686109 -0.0697393 1.94918e-18)
(0.0285833 -0.0632571 -7.83388e-19)
(0.356598 0.0670149 -1.70292e-19)
(0.714431 0.185771 -1.71905e-18)
(0.956816 0.271583 3.88838e-19)
(1.10504 0.322566 -1.32917e-18)
(1.18949 0.352805 1.37377e-18)
(1.23805 0.362661 -1.15079e-18)
(1.26145 0.357538 2.00913e-18)
(1.28116 0.356059 -7.36003e-19)
(1.29937 0.343803 -1.52511e-18)
(-0.0269562 0.00285566 9.5669e-19)
(-0.0567687 -0.0104494 5.99691e-19)
(-0.0780403 -0.031319 5.38395e-19)
(-0.0821901 -0.0467132 1.14832e-19)
(-0.0459139 -0.0613959 9.30858e-19)
(0.154473 -0.0193208 -2.07713e-18)
(0.551831 0.124354 1.07442e-18)
(0.851569 0.221937 2.51225e-18)
(1.04192 0.291225 -2.62331e-19)
(1.15329 0.330643 2.01494e-18)
(1.2126 0.353973 1.24412e-18)
(1.24257 0.355766 2.21875e-19)
(1.26383 0.354533 3.99349e-19)
(1.27611 0.350701 7.85171e-19)
(1.28745 0.334569 1.77786e-18)
(-0.0353845 0.00770771 1.46954e-18)
(-0.066983 0.000259486 2.09436e-18)
(-0.0826082 -0.0159046 -1.89356e-18)
(-0.0778633 -0.0309445 1.70748e-18)
(0.00231341 -0.056615 -3.95126e-18)
(0.338759 0.0560497 8.57774e-19)
(0.70727 0.171229 -3.21742e-19)
(0.956777 0.251525 -1.57894e-18)
(1.1054 0.306677 -2.88995e-18)
(1.18609 0.336313 -1.14952e-18)
(1.22515 0.352144 -2.92465e-18)
(1.24894 0.353188 1.8276e-18)
(1.26021 0.349764 -2.45048e-18)
(1.26938 0.343543 1.63638e-18)
(1.28421 0.332989 1.08967e-18)
(-0.0418441 0.0108896 -3.48585e-18)
(-0.0748202 0.00842202 1.28194e-19)
(-0.0846686 -0.00179945 2.43527e-19)
(-0.0701521 -0.0200301 4.82169e-19)
(0.0948694 -0.02512 2.56158e-19)
(0.51679 0.116776 1.78815e-18)
(0.838043 0.210577 9.58035e-19)
(1.04012 0.275731 -2.65825e-19)
(1.15138 0.318593 1.30883e-18)
(1.20751 0.339638 8.75316e-19)
(1.23504 0.35219 4.06141e-19)
(1.24837 0.348547 -1.02839e-18)
(1.25745 0.346174 3.36069e-18)
(1.26706 0.340908 5.64923e-19)
(1.27423 0.327211 -1.19409e-18)
(-0.0466546 0.0125763 3.21772e-18)
(-0.0801404 0.0141205 -2.30685e-18)
(-0.0848598 0.0106721 7.31077e-19)
(-0.0503581 -0.0179578 -7.83163e-20)
(0.235243 0.0431157 3.81679e-18)
(0.657901 0.164791 -3.16045e-19)
(0.940463 0.244245 -1.15059e-18)
(1.10164 0.296102 2.81059e-18)
(1.18328 0.327824 2.60995e-19)
(1.22226 0.343015 1.15098e-18)
(1.23821 0.350332 -2.31878e-18)
(1.24903 0.34617 5.34182e-20)
(1.25514 0.344507 -1.04858e-18)
(1.25981 0.335213 -2.12244e-19)
(1.26858 0.324654 -6.85328e-19)
(-0.0502395 0.0129221 -8.60245e-19)
(-0.0825638 0.0182706 2.41689e-18)
(-0.0845011 0.0180283 1.47364e-18)
(-0.00264203 -0.0205205 1.19201e-18)
(0.40158 0.105048 -6.08595e-19)
(0.785324 0.206627 -2.48096e-19)
(1.02341 0.272559 1.57586e-18)
(1.14829 0.312524 -1.18673e-18)
(1.20607 0.335564 3.69288e-19)
(1.23032 0.34486 -1.92904e-18)
(1.24119 0.350095 1.38475e-19)
(1.24738 0.344222 2.94619e-19)
(1.25028 0.341701 -4.3199e-19)
(1.25673 0.332987 -2.53597e-18)
(1.26201 0.322717 1.04487e-18)
(-0.052614 0.0119796 -1.52303e-18)
(-0.0820929 0.0226753 -1.9116e-18)
(-0.0822286 0.0199822 1.02688e-18)
(0.0776865 0.00232557 -1.37831e-19)
(0.545639 0.151888 -1.60218e-18)
(0.88866 0.241536 -5.94746e-20)
(1.08549 0.296004 -1.09946e-18)
(1.18072 0.326295 -2.14049e-18)
(1.22008 0.341576 -8.57174e-19)
(1.23572 0.34736 7.97339e-19)
(1.2408 0.349402 7.36226e-19)
(1.24497 0.342665 -7.56478e-20)
(1.24774 0.341268 -1.16063e-18)
(1.25091 0.329802 2.0903e-18)
(1.25447 0.320305 6.33659e-19)
(-0.0534484 0.00999681 1.50094e-18)
(-0.0806409 0.0267024 -2.36011e-21)
(-0.0714549 0.012696 -2.51677e-18)
(0.194654 0.0554338 -5.59386e-20)
(0.6687 0.194431 3.85073e-19)
(0.973705 0.272547 6.81231e-19)
(1.13385 0.315934 -1.19359e-18)
(1.20406 0.337328 5.95879e-19)
(1.22987 0.347038 -2.75586e-20)
(1.23762 0.349177 6.53293e-19)
(1.24017 0.349458 -5.86587e-19)
(1.24271 0.342501 -1.64099e-18)
(1.24272 0.339878 -7.82272e-20)
(1.24631 0.327823 -1.0077e-18)
(1.2492 0.320356 -8.55406e-19)
(-0.0530335 0.00832267 6.09788e-19)
(-0.0810126 0.02688 -1.24616e-18)
(-0.0413355 -0.00259619 1.27957e-18)
(0.342316 0.109394 -4.00559e-19)
(0.780577 0.228942 -2.21367e-19)
(1.04194 0.29711 -6.06034e-19)
(1.16856 0.331622 9.49743e-19)
(1.21904 0.346558 5.98008e-19)
(1.23448 0.351507 -3.51393e-19)
(1.23824 0.351492 -9.88579e-19)
(1.23828 0.349946 -3.55911e-19)
(1.23898 0.342136 1.68036e-18)
(1.23916 0.339835 1.01948e-18)
(1.24139 0.326557 9.92587e-19)
(1.24159 0.319339 -2.99778e-19)
(-0.0518927 0.00903429 -3.84572e-19)
(-0.082997 0.0219994 1.37193e-19)
(0.0137276 -0.00890571 -5.24328e-19)
(0.486712 0.152678 -1.51849e-20)
(0.875364 0.259072 -4.04239e-19)
(1.09441 0.318167 -5.91772e-19)
(1.19369 0.345086 2.03438e-19)
(1.22883 0.354258 -1.19064e-18)
(1.23734 0.355875 1.03951e-18)
(1.23728 0.353733 1.31048e-18)
(1.23582 0.350668 1.65717e-19)
(1.2359 0.342979 -1.45717e-18)
(1.23438 0.339651 -1.40362e-18)
(1.23596 0.325417 -1.04675e-18)
(1.2361 0.320147 4.13144e-19)
(-0.0502111 0.0129192 -1.23042e-18)
(-0.0833713 0.0124448 3.36164e-19)
(0.0938902 0.0105931 -2.36884e-19)
(0.60802 0.190797 7.49805e-21)
(0.955266 0.286424 -1.05128e-19)
(1.13602 0.335646 -2.22747e-19)
(1.21105 0.355639 4.14877e-19)
(1.2342 0.360784 -2.34811e-19)
(1.23731 0.359731 -2.96902e-19)
(1.23543 0.356209 -5.73947e-19)
(1.23297 0.352046 -5.06438e-19)
(1.23163 0.343728 -2.31061e-19)
(1.22994 0.339964 8.71356e-19)
(1.23101 0.325345 -3.33792e-20)
(1.22907 0.320508 6.63875e-19)
(-0.0488492 0.0183336 5.12288e-19)
(-0.0761139 -0.00136288 8.64767e-19)
(0.202407 0.0543927 1.3743e-19)
(0.714142 0.224544 5.37478e-19)
(1.02061 0.310027 1.16326e-18)
(1.16682 0.35059 4.22886e-19)
(1.22243 0.364928 1.53569e-18)
(1.23668 0.366613 7.94645e-19)
(1.23655 0.363676 4.98071e-19)
(1.23296 0.358915 1.12751e-18)
(1.2295 0.353534 3.45811e-19)
(1.22774 0.345217 6.27674e-19)
(1.22512 0.340595 3.09146e-19)
(1.22528 0.325285 1.42262e-19)
(1.22315 0.321683 4.58609e-19)
(-0.048985 0.0212071 7.09605e-19)
(-0.0551097 -0.0146472 -1.22021e-18)
(0.331578 0.103617 -2.31067e-19)
(0.806308 0.252958 5.5014e-19)
(1.07248 0.330059 -1.16795e-18)
(1.19003 0.36321 -4.71135e-19)
(1.22975 0.372615 -9.44423e-19)
(1.23716 0.371832 -2.92779e-20)
(1.23427 0.367418 -2.45605e-19)
(1.22976 0.361711 -9.50701e-19)
(1.22584 0.355568 7.17365e-19)
(1.2231 0.346802 5.41636e-20)
(1.2201 0.341403 -3.02306e-20)
(1.21992 0.326035 2.48786e-19)
(1.21645 0.322848 -5.63209e-19)
(-0.0508911 0.0178632 -5.14474e-20)
(-0.0182794 -0.0206159 5.24712e-19)
(0.461332 0.147911 1.41146e-19)
(0.887593 0.278782 -7.6684e-19)
(1.11376 0.346959 5.12749e-19)
(1.20616 0.373869 1.61525e-19)
(1.23351 0.37965 -4.21345e-19)
(1.236 0.376882 -1.97848e-19)
(1.2316 0.371353 -5.91465e-19)
(1.22629 0.364835 1.02726e-19)
(1.22168 0.357743 -6.94804e-19)
(1.21852 0.348802 -4.86767e-19)
(1.21497 0.342607 1.28355e-19)
(1.21399 0.326917 1.30432e-19)
(1.21026 0.324328 -2.25285e-19)
(-0.0544153 0.0063151 -2.63408e-19)
(0.0341795 -0.0164467 -1.64544e-19)
(0.57603 0.186551 3.72628e-19)
(0.958071 0.303272 6.59131e-19)
(1.14625 0.361905 1.27054e-19)
(1.21741 0.383139 -3.49168e-19)
(1.2351 0.385901 4.35427e-19)
(1.23397 0.381714 3.75374e-19)
(1.22814 0.375283 1.92804e-19)
(1.22223 0.36802 3.5799e-20)
(1.21731 0.360299 2.23414e-19)
(1.21345 0.350974 9.75888e-20)
(1.20953 0.343947 -6.69893e-20)
(1.2082 0.328326 -8.41864e-20)
(1.20362 0.325869 7.28333e-20)
(-0.0582765 -0.0122442 -1.2286e-19)
(0.106948 0.00211101 -1.42171e-19)
(0.674875 0.220257 1.15391e-19)
(1.01726 0.326346 -1.56907e-19)
(1.17203 0.375628 -3.31534e-19)
(1.22466 0.391456 2.58205e-20)
(1.23464 0.391888 2.00989e-19)
(1.23088 0.3866 -1.79702e-19)
(1.22431 0.379436 1.17803e-19)
(1.21796 0.371531 2.35236e-19)
(1.21252 0.363037 3.72909e-20)
(1.20829 0.353409 9.15828e-20)
(1.20397 0.345613 -1.0919e-19)
(1.20203 0.329881 7.35244e-20)
(1.19732 0.327535 -5.3016e-20)
(-0.0606385 -0.0334008 -3.93585e-20)