/*--------------------------------*- C++ -*----------------------------------*\
  =========                 |
  \\      /  F ield         | OpenFOAM: The Open Source CFD Toolbox
   \\    /   O peration     | Website:  https://openfoam.org
    \\  /    A nd           | Version:  7
     \\/     M anipulation  |
\*---------------------------------------------------------------------------*/
FoamFile
{
    version     2.0;
    format      ascii;
    class       volScalarField;
    location    "33";
    object      p;
}
// * * * * * * * * * * * * * * * * * * * * * * * * * * * * * * * * * * * * * //

dimensions      [0 2 -2 0 0 0 0];

internalField   nonuniform List<scalar> 
18750
(
-0.0178137
-0.0259917
-0.0400873
-0.0610421
-0.0876169
-0.119342
-0.155582
-0.195773
-0.239347
-0.285799
-0.334594
-0.38515
-0.436745
-0.488537
-0.53965
-0.0176128
-0.0256954
-0.039668
-0.06049
-0.0869505
-0.118607
-0.154817
-0.195053
-0.238741
-0.285377
-0.334432
-0.385337
-0.437353
-0.489549
-0.540975
-0.0205462
-0.0283248
-0.0419834
-0.0625066
-0.0887155
-0.120188
-0.156287
-0.196492
-0.240225
-0.286976
-0.336224
-0.387409
-0.439745
-0.492186
-0.543709
-0.0264392
-0.0337223
-0.0468883
-0.0669574
-0.0927849
-0.123964
-0.159863
-0.199962
-0.243665
-0.290452
-0.339809
-0.391177
-0.443723
-0.496275
-0.547728
-0.0350047
-0.0416282
-0.0541415
-0.0736172
-0.0989437
-0.129724
-0.165333
-0.20524
-0.248829
-0.295556
-0.344905
-0.396325
-0.448946
-0.501484
-0.55274
-0.0458596
-0.0516924
-0.0634173
-0.0821826
-0.106903
-0.137188
-0.172414
-0.212037
-0.255413
-0.301966
-0.351167
-0.402471
-0.455005
-0.507409
-0.558377
-0.0585477
-0.0634858
-0.074321
-0.0922897
-0.116319
-0.146021
-0.180772
-0.220015
-0.263073
-0.309329
-0.358227
-0.409232
-0.461498
-0.513645
-0.56427
-0.0725738
-0.0765113
-0.0864105
-0.103534
-0.12681
-0.155854
-0.190044
-0.228809
-0.271443
-0.31728
-0.365726
-0.416249
-0.468063
-0.51983
-0.570079
-0.0873923
-0.0902554
-0.0992257
-0.115491
-0.137975
-0.166304
-0.199858
-0.238054
-0.280159
-0.325462
-0.373322
-0.423202
-0.47439
-0.525655
-0.575511
-0.102429
-0.104212
-0.112312
-0.12774
-0.149419
-0.176993
-0.209848
-0.247391
-0.288873
-0.333541
-0.380703
-0.429807
-0.480219
-0.530866
-0.58032
-0.11712
-0.117896
-0.125238
-0.139877
-0.160759
-0.18756
-0.21967
-0.256491
-0.297265
-0.341211
-0.387591
-0.435824
-0.48534
-0.53526
-0.584305
-0.130941
-0.130869
-0.137615
-0.151532
-0.171645
-0.197673
-0.229009
-0.265055
-0.30505
-0.348204
-0.393742
-0.441046
-0.489586
-0.538676
-0.587292
-0.143433
-0.142787
-0.149097
-0.162371
-0.181767
-0.207041
-0.237591
-0.272823
-0.311985
-0.354289
-0.398943
-0.445298
-0.492825
-0.540992
-0.589125
-0.154213
-0.153409
-0.159382
-0.172114
-0.190862
-0.215417
-0.245182
-0.279576
-0.317865
-0.359274
-0.403013
-0.44842
-0.494949
-0.542128
-0.589646
-0.163127
-0.162457
-0.168213
-0.180537
-0.19872
-0.222599
-0.25159
-0.285133
-0.32252
-0.363002
-0.405802
-0.450269
-0.495855
-0.542052
-0.588672
-0.170153
-0.169741
-0.175432
-0.187478
-0.205185
-0.228437
-0.256668
-0.289353
-0.325818
-0.365348
-0.407189
-0.450714
-0.49542
-0.540746
-0.58616
-0.175332
-0.175219
-0.181006
-0.192849
-0.210165
-0.232825
-0.260308
-0.292127
-0.327654
-0.366214
-0.407081
-0.449655
-0.4935
-0.538101
-0.58229
-0.178822
-0.178996
-0.184916
-0.196644
-0.213636
-0.235713
-0.262441
-0.293385
-0.327954
-0.365522
-0.405403
-0.44702
-0.490011
-0.533916
-0.577181
-0.180902
-0.181264
-0.187234
-0.198869
-0.215562
-0.237076
-0.263046
-0.29309
-0.32667
-0.363214
-0.402098
-0.442747
-0.484863
-0.52821
-0.570613
-0.181932
-0.182246
-0.18808
-0.199579
-0.215969
-0.23692
-0.262116
-0.291225
-0.323775
-0.359255
-0.397127
-0.436804
-0.477989
-0.520939
-0.562416
-0.18226
-0.182144
-0.187601
-0.198885
-0.214935
-0.235293
-0.259674
-0.287802
-0.319265
-0.353618
-0.390446
-0.429185
-0.469318
-0.512006
-0.552531
-0.182109
-0.181076
-0.18596
-0.196937
-0.212572
-0.232275
-0.255779
-0.282857
-0.313162
-0.346298
-0.382
-0.419882
-0.458803
-0.501319
-0.540941
-0.181499
-0.17908
-0.183367
-0.193922
-0.209012
-0.22797
-0.25052
-0.276452
-0.305503
-0.337323
-0.371731
-0.408872
-0.446422
-0.488815
-0.527618
-0.180284
-0.176228
-0.180105
-0.190042
-0.204404
-0.222512
-0.244011
-0.268669
-0.296336
-0.326758
-0.359597
-0.396114
-0.43217
-0.474479
-0.51254
-0.178335
-0.172861
-0.176504
-0.185512
-0.198925
-0.216061
-0.236398
-0.259623
-0.2857
-0.314705
-0.345598
-0.381552
-0.416049
-0.458296
-0.495776
-0.175699
-0.169653
-0.172859
-0.180562
-0.192805
-0.208822
-0.22784
-0.249473
-0.273647
-0.301233
-0.329822
-0.365125
-0.398076
-0.440178
-0.477486
-0.172537
-0.167208
-0.169338
-0.17547
-0.186354
-0.20105
-0.218527
-0.238411
-0.260251
-0.286387
-0.312416
-0.346794
-0.378384
-0.419924
-0.457763
-0.169468
-0.165567
-0.166053
-0.170604
-0.179945
-0.193066
-0.208655
-0.226659
-0.245692
-0.270113
-0.293649
-0.326406
-0.357386
-0.397454
-0.436608
-0.166793
-0.164316
-0.163252
-0.166404
-0.173979
-0.185245
-0.198503
-0.214379
-0.230295
-0.252396
-0.273765
-0.303835
-0.335272
-0.372939
-0.414368
-0.164705
-0.163134
-0.161302
-0.163208
-0.168825
-0.178006
-0.188434
-0.201776
-0.214425
-0.233215
-0.253318
-0.278885
-0.312345
-0.345388
-0.394245
-0.163182
-0.161982
-0.160297
-0.161085
-0.164787
-0.171764
-0.178966
-0.188994
-0.198695
-0.212657
-0.232563
-0.252416
-0.288169
-0.315804
-0.364871
-0.162097
-0.161074
-0.15987
-0.159935
-0.162083
-0.166817
-0.17072
-0.17646
-0.183283
-0.191716
-0.210724
-0.226813
-0.260712
-0.289534
-0.331613
-0.161324
-0.160461
-0.159691
-0.159611
-0.160771
-0.163341
-0.164114
-0.164981
-0.168348
-0.171208
-0.188682
-0.201622
-0.235364
-0.261794
-0.305298
-0.16074
-0.160074
-0.159705
-0.159884
-0.160629
-0.161345
-0.159298
-0.155249
-0.154624
-0.151906
-0.167487
-0.177756
-0.21342
-0.236906
-0.284312
-0.16021
-0.159793
-0.159866
-0.160465
-0.161186
-0.16059
-0.156077
-0.147921
-0.142502
-0.135594
-0.146699
-0.157347
-0.190844
-0.217509
-0.266896
-0.159607
-0.159491
-0.16004
-0.161122
-0.161917
-0.160608
-0.154
-0.14321
-0.132271
-0.122946
-0.127896
-0.140585
-0.169334
-0.203053
-0.249065
-0.158828
-0.159048
-0.160035
-0.16153
-0.162425
-0.160833
-0.152704
-0.140595
-0.124745
-0.113642
-0.115044
-0.128491
-0.153689
-0.193063
-0.231585
-0.157816
-0.158372
-0.159685
-0.161504
-0.162455
-0.160783
-0.15191
-0.139127
-0.120489
-0.107662
-0.107725
-0.122061
-0.144234
-0.18396
-0.220033
-0.156574
-0.157431
-0.158948
-0.16092
-0.16191
-0.160129
-0.151414
-0.138273
-0.119392
-0.105779
-0.104649
-0.119533
-0.140531
-0.176498
-0.212632
-0.155183
-0.15626
-0.157817
-0.159792
-0.160767
-0.159028
-0.151235
-0.138188
-0.120854
-0.108053
-0.105873
-0.119607
-0.140515
-0.171991
-0.206872
-0.153809
-0.155006
-0.156465
-0.158256
-0.159257
-0.15802
-0.152173
-0.140431
-0.124231
-0.113371
-0.110876
-0.122211
-0.142263
-0.169839
-0.201955
-0.152672
-0.153906
-0.155207
-0.156883
-0.158009
-0.157736
-0.154909
-0.14553
-0.12954
-0.120023
-0.117745
-0.1268
-0.144775
-0.168934
-0.197672
-0.151972
-0.15319
-0.154388
-0.156044
-0.157485
-0.15838
-0.158938
-0.151036
-0.136314
-0.126815
-0.124796
-0.132051
-0.14754
-0.168544
-0.193785
-0.151808
-0.152982
-0.154139
-0.155856
-0.157723
-0.159696
-0.162165
-0.155699
-0.142646
-0.133279
-0.131233
-0.137096
-0.150185
-0.168166
-0.190146
-0.15215
-0.153247
-0.154396
-0.156163
-0.158337
-0.161335
-0.162384
-0.158826
-0.147669
-0.138974
-0.136799
-0.141441
-0.152371
-0.167607
-0.186644
-0.152872
-0.153851
-0.154959
-0.156655
-0.158874
-0.1626
-0.161612
-0.159846
-0.151075
-0.14358
-0.141336
-0.144902
-0.153964
-0.166742
-0.183163
-0.153814
-0.154627
-0.155603
-0.157036
-0.159465
-0.161405
-0.16136
-0.159575
-0.152992
-0.146949
-0.144797
-0.147468
-0.154882
-0.16551
-0.179658
-0.154835
-0.155445
-0.156178
-0.157123
-0.16021
-0.158948
-0.160773
-0.158876
-0.153806
-0.149118
-0.147181
-0.149149
-0.15514
-0.163914
-0.176068
-0.15584
-0.156233
-0.156572
-0.157336
-0.159648
-0.157927
-0.159561
-0.157839
-0.153877
-0.150257
-0.148563
-0.15001
-0.15477
-0.161945
-0.172367
-0.156792
-0.156981
-0.156735
-0.158032
-0.156699
-0.157957
-0.158393
-0.156646
-0.153444
-0.150568
-0.14907
-0.150109
-0.153815
-0.15964
-0.16853
-0.15771
-0.157651
-0.156895
-0.159019
-0.154244
-0.157384
-0.157302
-0.155419
-0.152657
-0.150234
-0.148838
-0.14953
-0.15233
-0.157007
-0.164535
-0.158652
-0.158221
-0.15768
-0.158389
-0.15495
-0.156624
-0.156152
-0.154183
-0.151619
-0.149399
-0.148001
-0.148353
-0.15036
-0.154071
-0.16037
-0.159695
-0.158733
-0.159502
-0.155554
-0.156626
-0.156388
-0.15508
-0.152911
-0.150368
-0.148166
-0.146662
-0.146662
-0.147965
-0.150845
-0.156017
-0.160856
-0.159387
-0.161817
-0.153319
-0.156937
-0.156196
-0.154149
-0.151623
-0.148939
-0.146607
-0.144911
-0.14453
-0.14519
-0.147343
-0.151471
-0.162108
-0.160742
-0.162791
-0.155203
-0.156891
-0.155823
-0.153273
-0.15031
-0.147343
-0.144768
-0.142806
-0.142018
-0.142088
-0.143585
-0.146727
-0.163485
-0.163337
-0.161693
-0.159821
-0.157924
-0.155483
-0.152343
-0.148922
-0.14559
-0.142683
-0.140394
-0.139176
-0.138693
-0.139585
-0.141801
-0.164987
-0.167104
-0.159185
-0.162728
-0.159376
-0.155376
-0.15141
-0.147448
-0.143677
-0.140372
-0.137706
-0.136036
-0.135032
-0.135361
-0.136715
-0.166748
-0.170946
-0.158289
-0.163133
-0.16023
-0.155367
-0.150515
-0.145894
-0.141607
-0.137847
-0.134762
-0.132625
-0.131124
-0.130921
-0.131498
-0.169096
-0.173601
-0.161645
-0.163165
-0.160393
-0.155183
-0.149592
-0.144259
-0.139381
-0.135112
-0.131571
-0.128957
-0.12698
-0.126278
-0.126172
-0.172378
-0.174552
-0.168351
-0.164776
-0.16046
-0.154744
-0.148525
-0.142497
-0.136987
-0.132166
-0.12814
-0.125041
-0.122607
-0.12144
-0.120745
-0.176907
-0.174228
-0.174891
-0.16799
-0.161058
-0.154193
-0.147253
-0.140546
-0.134394
-0.128999
-0.124466
-0.120879
-0.118009
-0.116413
-0.115211
-0.183047
-0.173728
-0.179751
-0.17162
-0.162226
-0.15371
-0.145795
-0.138359
-0.131563
-0.125588
-0.120541
-0.116472
-0.113187
-0.111195
-0.10955
-0.190689
-0.176105
-0.182963
-0.174801
-0.163582
-0.153303
-0.144183
-0.135917
-0.128458
-0.121907
-0.11635
-0.111812
-0.108136
-0.105779
-0.103741
-0.199438
-0.1828
-0.185621
-0.177135
-0.164668
-0.152813
-0.142399
-0.133208
-0.125054
-0.117929
-0.111875
-0.106888
-0.102845
-0.100149
-0.0977575
-0.20838
-0.193092
-0.188854
-0.178658
-0.165152
-0.152007
-0.140366
-0.130212
-0.121334
-0.113635
-0.107098
-0.101685
-0.0973001
-0.0942931
-0.0915884
-0.216262
-0.20422
-0.192937
-0.179657
-0.16491
-0.150689
-0.137971
-0.126887
-0.117277
-0.109007
-0.102001
-0.0961842
-0.0914823
-0.088195
-0.0852282
-0.222038
-0.213405
-0.197113
-0.180328
-0.163987
-0.148761
-0.135115
-0.123179
-0.112862
-0.10403
-0.0965677
-0.0903666
-0.0853686
-0.0818363
-0.0786704
-0.225316
-0.219472
-0.20025
-0.180557
-0.162478
-0.146215
-0.131736
-0.119037
-0.108059
-0.0986877
-0.0907854
-0.0842161
-0.078938
-0.0751917
-0.0718912
-0.226531
-0.222645
-0.201907
-0.18012
-0.16042
-0.143086
-0.127811
-0.114423
-0.102841
-0.0929637
-0.0846425
-0.077722
-0.0721762
-0.0682342
-0.0648357
-0.226756
-0.223715
-0.20211
-0.178869
-0.157782
-0.139394
-0.123337
-0.109311
-0.0971805
-0.0868387
-0.0781271
-0.0708795
-0.0650839
-0.06095
-0.0574074
-0.226789
-0.223452
-0.201059
-0.176749
-0.154514
-0.135137
-0.118315
-0.103686
-0.0910567
-0.0802941
-0.0712265
-0.063686
-0.0576751
-0.0533587
-0.0494862
-0.22704
-0.222404
-0.198988
-0.173773
-0.150567
-0.130287
-0.112735
-0.0975371
-0.0844515
-0.0733124
-0.0639284
-0.0561384
-0.0499687
-0.0455169
-0.0409874
-0.227584
-0.22085
-0.196073
-0.169971
-0.145905
-0.124812
-0.106577
-0.0908476
-0.0773496
-0.0658807
-0.0562259
-0.0482364
-0.0419749
-0.0374751
-0.0319563
-0.228248
-0.21891
-0.19243
-0.16537
-0.140499
-0.11867
-0.0998122
-0.0835987
-0.0697379
-0.0579927
-0.0481212
-0.0399929
-0.0337035
-0.0291897
-0.0226458
-0.228705
-0.216586
-0.188103
-0.159974
-0.134316
-0.11182
-0.092407
-0.0757708
-0.061609
-0.0496506
-0.039626
-0.0314359
-0.025182
-0.020485
-0.0133968
-0.228579
-0.213752
-0.183064
-0.153762
-0.12732
-0.104221
-0.084331
-0.0673498
-0.0529648
-0.0408635
-0.0307574
-0.0225944
-0.0164276
-0.0113012
-0.00424354
-0.227557
-0.210088
-0.177211
-0.146687
-0.119473
-0.0958397
-0.0755647
-0.0583353
-0.0438162
-0.0316407
-0.0215314
-0.0134595
-0.0073456
-0.00178559
0.00489713
-0.225337
-0.205289
-0.170403
-0.138685
-0.110741
-0.0866587
-0.0661087
-0.0487429
-0.034171
-0.021976
-0.0119367
-0.00400468
0.00210515
0.00793437
0.0140971
-0.221668
-0.199138
-0.162498
-0.129692
-0.101098
-0.0766839
-0.0559845
-0.0385885
-0.0239971
-0.0118628
-0.00197038
0.00579129
0.0119104
0.0178027
0.0233927
-0.216353
-0.191483
-0.153374
-0.119652
-0.0905382
-0.0659415
-0.0452131
-0.0278164
-0.0132941
-0.00130807
0.00836779
0.015932
0.0220226
0.0278237
0.0327981
-0.20925
-0.182233
-0.14293
-0.108527
-0.0790868
-0.0544434
-0.0337325
-0.0164286
-0.00207189
0.00967746
0.0190726
0.0264072
0.0324072
0.0380169
0.0423199
-0.200278
-0.171367
-0.131087
-0.0963095
-0.0667731
-0.0421216
-0.0215379
-0.00443525
0.0096556
0.0210805
0.0301332
0.0372018
0.0430507
0.0483951
0.0519538
-0.189404
-0.158939
-0.117791
-0.0830079
-0.0535175
-0.0289842
-0.00864175
0.00814818
0.0218715
0.0328859
0.0415367
0.0483017
0.0539427
0.0589505
0.0616725
-0.176633
-0.145031
-0.10306
-0.0685438
-0.0393069
-0.0150506
0.00493273
0.0213007
0.0345562
0.0450784
0.0532734
0.0596964
0.065061
0.06963
0.071425
-0.162
-0.129646
-0.0870096
-0.0528751
-0.0241458
-0.000345334
0.019156
0.0349953
0.0476876
0.0576439
0.0653384
0.0713779
0.0763652
0.080324
0.0811124
-0.145581
-0.112588
-0.0698079
-0.0361076
-0.0080665
0.0151033
0.0339945
0.0492009
0.0612418
0.0705703
0.0777294
0.083334
0.0878002
0.0908842
0.090479
-0.127492
-0.0935468
-0.0516877
-0.0183898
0.0088698
0.0312587
0.0494116
0.063883
0.0751934
0.0838444
0.0904371
0.0955335
0.0992935
0.101145
0.0990879
-0.107858
-0.0727526
-0.0324944
0.000170898
0.0265811
0.0480716
0.0653665
0.0790055
0.0895157
0.0974479
0.103434
0.107914
0.110743
0.110963
0.106799
-0.0867102
-0.0506104
-0.0121723
0.0195207
0.044985
0.0654813
0.0818125
0.0945305
0.10418
0.111352
0.116666
0.120383
0.122042
0.120412
0.114492
-0.0639824
-0.0275912
0.00918415
0.0396285
0.0640109
0.0834213
0.0986977
0.110417
0.119151
0.125514
0.13006
0.132841
0.133153
0.129977
0.123918
-0.0398132
-0.00384408
0.0314187
0.0604427
0.0835941
0.101824
0.115965
0.126619
0.134386
0.13988
0.143544
0.14524
0.144182
0.139939
0.136689
-0.0144188
0.0206283
0.0543829
0.0818783
0.103666
0.12062
0.133555
0.143086
0.149835
0.154388
0.157067
0.157605
0.155331
0.150567
0.1492
0.0119908
0.0457879
0.0779512
0.103832
0.12415
0.139742
0.151404
0.15976
0.165439
0.168979
0.170598
0.169992
0.16673
0.161823
0.161137
0.0392269
0.0715506
0.102009
0.126197
0.14496
0.159114
0.169446
0.176581
0.181138
0.183602
0.184124
0.182425
0.178324
0.173306
0.172568
0.0671115
0.0977984
0.126445
0.148866
0.166006
0.17866
0.187613
0.193483
0.196871
0.198217
0.197632
0.194907
0.190076
0.184853
0.183611
0.0954752
0.124398
0.151143
0.171732
0.187193
0.1983
0.205833
0.210401
0.212584
0.212782
0.211096
0.207383
0.201841
0.196275
0.194387
0.124152
0.15121
0.175983
0.194689
0.208429
0.217952
0.224033
0.227269
0.22822
0.227258
0.224484
0.219818
0.213569
0.207534
0.204913
0.15298
0.178093
0.200844
0.217631
0.229618
0.237531
0.242137
0.244021
0.243725
0.241597
0.237743
0.232131
0.225156
0.218591
0.215216
0.1818
0.204909
0.225606
0.240451
0.250666
0.256954
0.260072
0.260594
0.259043
0.255753
0.250833
0.244289
0.236571
0.22941
0.225263
0.210456
0.231521
0.250147
0.263043
0.271479
0.276137
0.277764
0.276922
0.274117
0.26967
0.263691
0.25622
0.247758
0.239986
0.235048
0.238796
0.257796
0.27435
0.285303
0.291965
0.294998
0.295141
0.292941
0.288892
0.2833
0.276279
0.267892
0.258677
0.250264
0.244532
0.266672
0.283604
0.298099
0.307127
0.312031
0.313456
0.312129
0.308586
0.303307
0.296586
0.288536
0.279252
0.2693
0.260241
0.253693
0.29394
0.308819
0.321283
0.328416
0.33159
0.331432
0.328659
0.323796
0.317311
0.309483
0.300427
0.290261
0.279577
0.269862
0.2625
0.320463
0.333321
0.343791
0.349074
0.350555
0.348849
0.344662
0.338509
0.330843
0.321934
0.311901
0.300883
0.289489
0.279112
0.270926
0.346107
0.356993
0.365522
0.369006
0.368842
0.365632
0.360073
0.352667
0.343856
0.333898
0.322916
0.311074
0.298986
0.287953
0.278948
0.370745
0.379723
0.386374
0.388124
0.386373
0.381711
0.374826
0.366211
0.356294
0.345325
0.333436
0.320805
0.308048
0.29636
0.286541
0.394259
0.401407
0.406254
0.406343
0.403069
0.397016
0.388862
0.379089
0.368111
0.356174
0.343415
0.330034
0.316635
0.304304
0.293684
0.416533
0.421944
0.425072
0.423582
0.418861
0.411484
0.402122
0.391246
0.37926
0.366405
0.352825
0.338734
0.324719
0.31176
0.300356
0.437461
0.44124
0.442742
0.439765
0.433678
0.425054
0.414552
0.402635
0.389698
0.375976
0.361625
0.34687
0.332273
0.318704
0.306541
0.456943
0.459208
0.459189
0.454823
0.44746
0.437668
0.4261
0.41321
0.399384
0.384854
0.369786
0.354413
0.339269
0.325114
0.312223
0.474887
0.475768
0.474339
0.46869
0.460146
0.449275
0.436721
0.42293
0.40828
0.393004
0.377276
0.361337
0.345682
0.330971
0.317388
0.491207
0.490848
0.488127
0.481306
0.471683
0.459825
0.446369
0.431755
0.416352
0.400396
0.384068
0.367614
0.35149
0.336256
0.322024
0.505826
0.504387
0.500497
0.492618
0.482021
0.469274
0.455006
0.43965
0.423569
0.407001
0.390138
0.373223
0.356672
0.340953
0.326123
0.518681
0.516322
0.511393
0.502575
0.491117
0.477583
0.462597
0.446583
0.429903
0.412795
0.395461
0.378141
0.361209
0.345049
0.329675
0.529734
0.52659
0.520765
0.511134
0.498932
0.484717
0.469109
0.452527
0.435329
0.417756
0.400017
0.38235
0.365085
0.348532
0.332677
0.538945
0.535138
0.528568
0.518257
0.50543
0.490645
0.474517
0.457459
0.439827
0.421864
0.403788
0.385832
0.368285
0.351393
0.335126
0.546274
0.541928
0.534767
0.523911
0.510585
0.495343
0.478797
0.461358
0.443378
0.425104
0.40676
0.388573
0.370798
0.353625
0.337023
0.551685
0.546932
0.539333
0.528071
0.514373
0.49879
0.481932
0.464208
0.445968
0.427462
0.40892
0.390561
0.372612
0.355225
0.338372
0.555151
0.550131
0.542245
0.530719
0.516777
0.50097
0.483908
0.465997
0.447587
0.42893
0.410257
0.391787
0.373724
0.356194
0.339176
0.556655
0.55151
0.543491
0.531841
0.517785
0.501874
0.484716
0.466717
0.448227
0.4295
0.410767
0.392244
0.374127
0.356529
0.339437
0.556185
0.551062
0.543064
0.531432
0.517393
0.501496
0.484352
0.466365
0.447886
0.429168
0.410445
0.39193
0.37382
0.356233
0.339158
0.553742
0.548785
0.540962
0.529491
0.515599
0.499836
0.482814
0.464939
0.446562
0.427936
0.409292
0.390844
0.372804
0.355306
0.338341
0.549336
0.544687
0.537193
0.526024
0.512408
0.496899
0.480107
0.462443
0.444259
0.425805
0.407309
0.38899
0.37108
0.353747
0.33698
0.542982
0.53878
0.531768
0.521043
0.507833
0.492694
0.476241
0.458886
0.440984
0.422783
0.404504
0.386373
0.368651
0.351555
0.335072
0.534709
0.531085
0.524708
0.514565
0.501888
0.487236
0.471227
0.454278
0.436747
0.418878
0.400886
0.383002
0.365525
0.348728
0.332611
0.52455
0.521628
0.51604
0.506617
0.494597
0.480545
0.465084
0.448636
0.431561
0.414102
0.396467
0.378889
0.36171
0.345272
0.329595
0.512543
0.510446
0.505801
0.497228
0.485987
0.472646
0.457833
0.441978
0.425444
0.408473
0.391262
0.374049
0.357218
0.341191
0.326023
0.498721
0.497596
0.494034
0.486437
0.476092
0.463568
0.449502
0.434328
0.418418
0.402007
0.385288
0.368498
0.352064
0.336496
0.321898
0.483126
0.483139
0.480788
0.474288
0.46495
0.453347
0.44012
0.425714
0.410505
0.394728
0.378566
0.362255
0.346264
0.331198
0.317224
0.465822
0.467132
0.466117
0.460828
0.452605
0.44202
0.429723
0.416166
0.401733
0.38666
0.371118
0.355341
0.339836
0.32531
0.312008
0.446888
0.449638
0.450078
0.446113
0.439105
0.429632
0.41835
0.405721
0.392135
0.377831
0.362969
0.347779
0.332801
0.318848
0.306262
0.426407
0.430728
0.432735
0.4302
0.424505
0.416231
0.406044
0.394415
0.381743
0.36827
0.354148
0.339596
0.325183
0.311831
0.299996
0.404471
0.410481
0.41416
0.413154
0.408862
0.401869
0.392852
0.38229
0.370596
0.358013
0.344685
0.330817
0.317004
0.304278
0.293224
0.38118
0.388985
0.39443
0.395045
0.392238
0.386603
0.378825
0.369394
0.358734
0.347093
0.334609
0.321473
0.308293
0.296213
0.285962
0.356639
0.366332
0.373629
0.375948
0.374703
0.370493
0.364016
0.355773
0.346199
0.335552
0.32396
0.311597
0.299078
0.287656
0.278229
0.330961
0.342623
0.351847
0.355945
0.356326
0.353604
0.348484
0.34148
0.33304
0.323428
0.312768
0.301215
0.289387
0.278636
0.270044
0.304268
0.317962
0.329177
0.335118
0.337185
0.336003
0.33229
0.326568
0.319301
0.310764
0.301077
0.290373
0.279258
0.26918
0.261428
0.276684
0.29246
0.305719
0.313558
0.317359
0.317763
0.315497
0.311096
0.305038
0.297609
0.288926
0.279096
0.268713
0.259312
0.252406
0.248343
0.266234
0.281576
0.291357
0.296931
0.298956
0.298171
0.295122
0.290299
0.284004
0.276353
0.26743
0.257801
0.249074
0.243003
0.219381
0.239404
0.256858
0.268612
0.275988
0.27966
0.280381
0.278707
0.275145
0.270008
0.263411
0.255412
0.246541
0.238477
0.233246
0.189943
0.212096
0.231676
0.245423
0.254618
0.259955
0.262197
0.261914
0.259627
0.255662
0.250135
0.243077
0.234983
0.227579
0.223167
0.160176
0.184439
0.206144
0.221892
0.232912
0.23992
0.243691
0.244807
0.243805
0.241028
0.236587
0.230483
0.223156
0.21638
0.212786
0.130232
0.156567
0.180383
0.198125
0.210963
0.21964
0.224936
0.22745
0.227736
0.226151
0.222804
0.217657
0.211096
0.204937
0.202145
0.100267
0.128616
0.154511
0.174227
0.188866
0.199196
0.206007
0.209909
0.211475
0.211088
0.20885
0.204675
0.198863
0.193253
0.191245
0.0704408
0.100725
0.128651
0.150305
0.166715
0.178674
0.186977
0.192247
0.195079
0.195885
0.194765
0.19157
0.186484
0.181359
0.180122
0.0409154
0.0730356
0.102924
0.126467
0.144606
0.158158
0.167922
0.174531
0.178603
0.180589
0.180603
0.178425
0.17407
0.169295
0.168737
0.0118571
0.0456884
0.0774508
0.102818
0.122632
0.13773
0.148916
0.156828
0.162102
0.16524
0.166394
0.165272
0.161666
0.157092
0.157064
-0.0165648
0.0188189
0.0523475
0.0794652
0.100888
0.117473
0.130031
0.139203
0.145634
0.149878
0.152164
0.15217
0.149427
0.144949
0.144957
-0.0441721
-0.00745039
0.0277271
0.0565162
0.0794655
0.0974632
0.111338
0.121722
0.129257
0.134546
0.137925
0.139113
0.137387
0.133029
0.132259
-0.0707777
-0.0330285
0.00370222
0.0340793
0.0584522
0.0777761
0.0929011
0.104448
0.113034
0.119294
0.123688
0.126073
0.125605
0.121766
0.118897
-0.0961713
-0.0578684
-0.0196053
0.0122603
0.0379283
0.0584823
0.0747856
0.0874374
0.0970253
0.104183
0.109486
0.11299
0.113941
0.111191
0.105238
-0.120136
-0.081968
-0.042052
-0.00884897
0.0179643
0.0396503
0.057052
0.0707435
0.0812826
0.0892782
0.0953729
0.0998384
0.102181
0.101041
0.0952531
-0.142497
-0.105233
-0.0634784
-0.0291878
-0.0013749
0.0213484
0.0397582
0.0544129
0.0658499
0.0746354
0.0814243
0.0866755
0.0902285
0.0910387
0.0871927
-0.163305
-0.127227
-0.0837658
-0.0487229
-0.0200212
0.00364366
0.0229581
0.0384876
0.0507623
0.0602984
0.0677184
0.0736086
0.0781325
0.0806718
0.0791075
-0.182558
-0.147515
-0.102929
-0.067408
-0.0378952
-0.013401
0.00670036
0.0230068
0.0360497
0.0462969
0.0543115
0.0607358
0.0660043
0.0698513
0.0700451
-0.200142
-0.165837
-0.121098
-0.0851491
-0.0549142
-0.0297326
-0.00897244
0.00800756
0.0217394
0.0326497
0.0412309
0.0481176
0.0539406
0.0587146
0.0601637
-0.215928
-0.182378
-0.138141
-0.101808
-0.0710102
-0.0453109
-0.0240225
-0.00647509
0.00785739
0.0193695
0.0284835
0.0357813
0.042009
0.0474294
0.0499364
-0.229826
-0.197358
-0.153888
-0.117267
-0.0861424
-0.0601051
-0.038416
-0.0204089
-0.00557163
0.006468
0.0160699
0.0237365
0.0302638
0.0361507
0.0396358
-0.241791
-0.210823
-0.168218
-0.131524
-0.100298
-0.0740905
-0.0521233
-0.0337655
-0.0185248
-0.00604098
0.00399339
0.0119897
0.0187474
0.0249957
0.0293645
-0.251809
-0.222711
-0.181071
-0.144661
-0.113483
-0.0872489
-0.065121
-0.0465222
-0.0309817
-0.0181418
-0.00773559
0.000552041
0.00748436
0.0140227
0.0191758
-0.259903
-0.232959
-0.192478
-0.15668
-0.125765
-0.0995741
-0.0773954
-0.0586618
-0.042925
-0.0298188
-0.019103
-0.0105616
-0.00351499
0.00324116
0.00910101
-0.26614
-0.24157
-0.202512
-0.167587
-0.137147
-0.111107
-0.0889473
-0.0701746
-0.0543402
-0.0410582
-0.0300957
-0.0213343
-0.0142398
-0.00736148
-0.000852703
-0.270644
-0.248611
-0.211268
-0.177415
-0.147604
-0.12186
-0.099814
-0.0810633
-0.0652157
-0.0518489
-0.0407063
-0.0317528
-0.02466
-0.0178049
-0.0106886
-0.273598
-0.254219
-0.218868
-0.186218
-0.157132
-0.13181
-0.110003
-0.0913691
-0.0755471
-0.062181
-0.0509339
-0.0418162
-0.0347258
-0.028101
-0.0204147
-0.275239
-0.258588
-0.225453
-0.194061
-0.165753
-0.140948
-0.119496
-0.101085
-0.0853755
-0.0720475
-0.0607826
-0.0515428
-0.0444125
-0.0382078
-0.0300579
-0.275864
-0.262002
-0.231173
-0.201013
-0.173501
-0.149284
-0.128285
-0.110195
-0.0946874
-0.08147
-0.0702608
-0.0609631
-0.053743
-0.0480092
-0.0396851
-0.275774
-0.264824
-0.236152
-0.207127
-0.180413
-0.156849
-0.136385
-0.118697
-0.10347
-0.0904428
-0.0793639
-0.0701017
-0.0627887
-0.0573411
-0.0493977
-0.275349
-0.267247
-0.24045
-0.212438
-0.186527
-0.163681
-0.143824
-0.126604
-0.111723
-0.0989542
-0.0880741
-0.078925
-0.0715893
-0.0661419
-0.0592492
-0.274955
-0.269309
-0.244044
-0.216947
-0.191876
-0.169822
-0.150634
-0.133934
-0.119452
-0.106999
-0.0963743
-0.0874035
-0.0801209
-0.0746613
-0.068909
-0.274841
-0.270935
-0.246843
-0.220635
-0.196491
-0.175313
-0.156848
-0.140709
-0.12667
-0.11458
-0.104258
-0.095521
-0.0883701
-0.0830007
-0.0780365
-0.275037
-0.271908
-0.248685
-0.223466
-0.200401
-0.180191
-0.162489
-0.146946
-0.133393
-0.121709
-0.111731
-0.103275
-0.0963235
-0.0911158
-0.086535
-0.27526
-0.271779
-0.24935
-0.225415
-0.20365
-0.184486
-0.16757
-0.152656
-0.139636
-0.128403
-0.118805
-0.110668
-0.103957
-0.0989288
-0.0944836
-0.274836
-0.269813
-0.248595
-0.226497
-0.206288
-0.188211
-0.172094
-0.157853
-0.14542
-0.134681
-0.125493
-0.1177
-0.11125
-0.106401
-0.10202
-0.272762
-0.265167
-0.246295
-0.226818
-0.208357
-0.191354
-0.176059
-0.162556
-0.150769
-0.140563
-0.131808
-0.124375
-0.118195
-0.11354
-0.109257
-0.268139
-0.257299
-0.242638
-0.226571
-0.209849
-0.193879
-0.179476
-0.166798
-0.155712
-0.146066
-0.137762
-0.130704
-0.124806
-0.120374
-0.116263
-0.260996
-0.246667
-0.238438
-0.225953
-0.210689
-0.195768
-0.182388
-0.170627
-0.160278
-0.151208
-0.143369
-0.136704
-0.131108
-0.126935
-0.123062
-0.252256
-0.235438
-0.234906
-0.224928
-0.21079
-0.197073
-0.184883
-0.174099
-0.164493
-0.156003
-0.148643
-0.142394
-0.137126
-0.133246
-0.129664
-0.243154
-0.2268
-0.232264
-0.223204
-0.210191
-0.197956
-0.187078
-0.177264
-0.168379
-0.160469
-0.153603
-0.147796
-0.142884
-0.139324
-0.136072
-0.234836
-0.222572
-0.229649
-0.220574
-0.209136
-0.198651
-0.189072
-0.180153
-0.171953
-0.164624
-0.158268
-0.152927
-0.148397
-0.145185
-0.1423
-0.227944
-0.222225
-0.225751
-0.217227
-0.208053
-0.199374
-0.190916
-0.182779
-0.175235
-0.168492
-0.162657
-0.157799
-0.153678
-0.150846
-0.148373
-0.222703
-0.223028
-0.219886
-0.21381
-0.207399
-0.200201
-0.192589
-0.185151
-0.178257
-0.172102
-0.166787
-0.162423
-0.158734
-0.156317
-0.154321
-0.218883
-0.222845
-0.212831
-0.211438
-0.207377
-0.201013
-0.194054
-0.187304
-0.181058
-0.175478
-0.17067
-0.166801
-0.163567
-0.161604
-0.160165
-0.216149
-0.220968
-0.207534
-0.210975
-0.207623
-0.201608
-0.195326
-0.189295
-0.183676
-0.178638
-0.174311
-0.170934
-0.168176
-0.166702
-0.165917
-0.214174
-0.217531
-0.206601
-0.211324
-0.207395
-0.201947
-0.19651
-0.191185
-0.186129
-0.181585
-0.177707
-0.174817
-0.172559
-0.171606
-0.17157
-0.212594
-0.213492
-0.209027
-0.209915
-0.206378
-0.20223
-0.197709
-0.192996
-0.188422
-0.184315
-0.180851
-0.178437
-0.176706
-0.176309
-0.177108
-0.211163
-0.210254
-0.211039
-0.205872
-0.205133
-0.202718
-0.198934
-0.194713
-0.190543
-0.186816
-0.183726
-0.181779
-0.180609
-0.180802
-0.182502
-0.209859
-0.208311
-0.211115
-0.202054
-0.204877
-0.203366
-0.200102
-0.196332
-0.192494
-0.189072
-0.186309
-0.184813
-0.184244
-0.185078
-0.187736
-0.208636
-0.207387
-0.209255
-0.202467
-0.205261
-0.203892
-0.201234
-0.197878
-0.19426
-0.191051
-0.188559
-0.187502
-0.187587
-0.189124
-0.192797
-0.207507
-0.206875
-0.206922
-0.20573
-0.204337
-0.204201
-0.202466
-0.199387
-0.195826
-0.192711
-0.190428
-0.189792
-0.190598
-0.192934
-0.19769
-0.206496
-0.206334
-0.205569
-0.207621
-0.202548
-0.20487
-0.203802
-0.200812
-0.197155
-0.193991
-0.191843
-0.191625
-0.193234
-0.196493
-0.202428
-0.205549
-0.205699
-0.205151
-0.207098
-0.203442
-0.205905
-0.205077
-0.202143
-0.198205
-0.194804
-0.192712
-0.192923
-0.195453
-0.199802
-0.207027
-0.204599
-0.204948
-0.205014
-0.206075
-0.206731
-0.206216
-0.206186
-0.203377
-0.198908
-0.195029
-0.192923
-0.193621
-0.197207
-0.202844
-0.211513
-0.203609
-0.204156
-0.204702
-0.205541
-0.208604
-0.206299
-0.207361
-0.204452
-0.199125
-0.194503
-0.192345
-0.193642
-0.198466
-0.205617
-0.215901
-0.202595
-0.203335
-0.204167
-0.205375
-0.208015
-0.208013
-0.208191
-0.205168
-0.198673
-0.19304
-0.190859
-0.192933
-0.199184
-0.208105
-0.220228
-0.201628
-0.202529
-0.203515
-0.205019
-0.207114
-0.210053
-0.208205
-0.205398
-0.197264
-0.190457
-0.188367
-0.191451
-0.199355
-0.210299
-0.224521
-0.200831
-0.201847
-0.202879
-0.204459
-0.206399
-0.209497
-0.208241
-0.204828
-0.19455
-0.186659
-0.18486
-0.189172
-0.198958
-0.212229
-0.22883
-0.200353
-0.201438
-0.202457
-0.203975
-0.205658
-0.207558
-0.208371
-0.20239
-0.190266
-0.18172
-0.180379
-0.18613
-0.19805
-0.213914
-0.233221
-0.200327
-0.201447
-0.20246
-0.203867
-0.205074
-0.205806
-0.206348
-0.198073
-0.184592
-0.175906
-0.175069
-0.182408
-0.19675
-0.215478
-0.237761
-0.200816
-0.201943
-0.203
-0.204349
-0.205136
-0.204669
-0.202274
-0.193025
-0.178085
-0.169663
-0.16919
-0.178363
-0.195285
-0.217066
-0.242586
-0.20177
-0.202864
-0.204033
-0.205406
-0.205953
-0.204406
-0.198798
-0.187346
-0.172162
-0.163523
-0.163208
-0.174601
-0.194062
-0.218985
-0.247806
-0.203034
-0.204032
-0.205292
-0.206837
-0.207256
-0.205007
-0.196987
-0.183902
-0.168193
-0.158304
-0.158305
-0.1722
-0.193463
-0.221843
-0.253603
-0.204407
-0.205229
-0.20648