/*--------------------------------*- C++ -*----------------------------------*\
  =========                 |
  \\      /  F ield         | OpenFOAM: The Open Source CFD Toolbox
   \\    /   O peration     | Website:  https://openfoam.org
    \\  /    A nd           | Version:  7
     \\/     M anipulation  |
\*---------------------------------------------------------------------------*/
FoamFile
{
    version     2.0;
    format      ascii;
    class       surfaceScalarField;
    location    "33";
    object      phi;
}
// * * * * * * * * * * * * * * * * * * * * * * * * * * * * * * * * * * * * * //

dimensions      [0 3 -1 0 0 0 0];

internalField   nonuniform List<scalar> 
37105
(
-9.88307e-06
2.14069e-06
7.74238e-06
-2.33318e-05
4.57105e-06
8.87769e-06
-3.73447e-05
6.80229e-06
7.21063e-06
-5.20146e-05
9.54627e-06
5.12359e-06
-6.74631e-05
1.27551e-05
2.6934e-06
-8.37658e-05
1.63596e-05
-5.68703e-08
-0.000101003
2.03015e-05
-3.06398e-06
-0.000119214
2.4518e-05
-6.30686e-06
-0.000138438
2.89437e-05
-9.71999e-06
-0.000158702
3.35074e-05
-1.32439e-05
-0.000180026
3.8147e-05
-1.68228e-05
-0.000202401
4.27714e-05
-2.03967e-05
-0.000225802
4.72619e-05
-2.38606e-05
-0.000250208
5.15162e-05
-2.71104e-05
5.56217e-05
-3.00674e-05
-0.000275762
-9.80246e-06
1.19431e-05
-2.31707e-05
1.79393e-05
-3.71051e-05
2.07367e-05
-5.16889e-05
2.413e-05
-6.70396e-05
2.81058e-05
-8.32292e-05
3.25492e-05
-0.000100324
3.73967e-05
-0.000118357
4.25505e-05
-0.000137349
4.7936e-05
-0.000157309
5.34667e-05
-0.000178231
5.90698e-05
-0.000200089
6.46289e-05
-0.000222845
7.00176e-05
-0.000246482
7.51539e-05
8.01487e-05
-0.000271009
-9.57602e-06
2.15192e-05
-2.27226e-05
3.10859e-05
-3.64417e-05
3.44557e-05
-5.07893e-05
3.84776e-05
-6.5875e-05
4.31916e-05
-8.17596e-05
4.84338e-05
-9.84919e-05
5.4129e-05
-0.000116086
6.01446e-05
-0.000134541
6.6391e-05
-0.000153834
7.27597e-05
-0.000173931
7.91666e-05
-0.000194781
8.54788e-05
-0.000216332
9.1569e-05
-0.000238535
9.73572e-05
0.000102971
-0.000261357
-9.2065e-06
3.07257e-05
-2.1993e-05
4.38724e-05
-3.53633e-05
4.78261e-05
-4.93299e-05
5.24442e-05
-6.39907e-05
5.78524e-05
-7.93888e-05
6.38319e-05
-9.55515e-05
7.02916e-05
-0.000112469
7.70626e-05
-0.000130113
8.40347e-05
-0.000148426
9.10726e-05
-0.000167341
9.80814e-05
-0.000186784
0.000104922
-0.000206692
0.000111476
-0.00022699
0.000117656
0.000123562
-0.000247582
-8.69929e-06
3.9425e-05
-2.09917e-05
5.61648e-05
-3.38854e-05
6.07198e-05
-4.7335e-05
6.58938e-05
-6.14228e-05
7.19403e-05
-7.617e-05
7.85791e-05
-9.15794e-05
8.5701e-05
-0.000107616
9.30989e-05
-0.00012422
0.000100639
-0.000141304
0.000108156
-0.00015877
0.000115548
-0.000176526
0.000122678
-0.000194499
0.00012945
-0.00021261
0.000135766
0.000141683
-0.000230731
-8.06485e-06
4.74898e-05
-1.97321e-05
6.78321e-05
-3.20284e-05
7.30161e-05
-4.48373e-05
7.87026e-05
-5.82203e-05
8.53232e-05
-7.21739e-05
9.25328e-05
-8.66754e-05
0.000100202
-0.000101664
0.000108087
-0.000117054
0.00011603
-0.000132732
0.000123834
-0.000148576
0.000131392
-0.000164481
0.000138583
-0.000180376
0.000145345
-0.000196193
0.000151583
0.000157304
-0.000211814
-7.32615e-06
5.4816e-05
-1.82285e-05
7.87344e-05
-2.98171e-05
8.46047e-05
-4.18765e-05
9.0762e-05
-5.44413e-05
9.78881e-05
-6.74831e-05
0.000105575
-8.09538e-05
0.000113673
-9.47697e-05
0.000121903
-0.000108825
0.000130084
-0.000122985
0.000137995
-0.000137118
0.000145524
-0.000151109
0.000152575
-0.000164899
0.000159135
-0.000178448
0.000165132
0.00017053
-0.000191673
-6.4576e-06
6.12735e-05
-1.64884e-05
8.87653e-05
-2.72784e-05
9.53947e-05
-3.84969e-05
0.000101981
-5.01502e-05
0.000109541
-6.21864e-05
0.000117611
-7.45349e-05
0.000126022
-8.70927e-05
0.000134461
-9.97383e-05
0.00014273
-0.00011233
0.000150586
-0.000124727
0.000157921
-0.000136818
0.000164665
-0.000148554
0.000170871
-0.000159935
0.000176513
0.000181525
-0.00017093
-5.46611e-06
6.67397e-05
-1.45266e-05
9.78257e-05
-2.44413e-05
0.000105309
-3.47454e-05
0.000112285
-4.54134e-05
0.000120209
-5.63743e-05
0.000128572
-6.75379e-05
0.000137185
-7.87863e-05
0.00014571
-8.99886e-05
0.000153932
-0.000101001
0.000161599
-0.000111687
0.000168607
-0.000121938
0.000174916
-0.000131716
0.000180648
-0.000141059
0.000185856
0.000190458
-0.000149992
-4.36558e-06
7.11052e-05
-1.23611e-05
0.000105821
-2.13374e-05
0.000114286
-3.06698e-05
0.000121617
-4.02975e-05
0.000129837
-5.01349e-05
0.000138409
-6.00763e-05
0.000147127
-6.99927e-05
0.000155626
-7.97483e-05
0.000163688
-8.9204e-05
0.000171054
-9.82315e-05
0.000177635
-0.000106729
0.000183413
-0.000114661
0.000188581
-0.000122092
0.000193287
0.000197469
-0.000129103
-3.16486e-06
7.42701e-05
-1.00087e-05
0.000112665
-1.79996e-05
0.000122277
-2.63179e-05
0.000129935
-3.48669e-05
0.000138386
-4.35517e-05
0.000147094
-5.22544e-05
0.000155829
-6.08384e-05
0.00016421
-6.9166e-05
0.000172016
-7.7105e-05
0.000178993
-8.45406e-05
0.00018507
-9.13789e-05
0.000190252
-9.75778e-05
0.00019478
-0.000103199
0.000198908
0.000202659
-0.000108388
-1.86745e-06
7.61375e-05
-7.49974e-06
0.000118297
-1.4463e-05
0.00012924
-2.17354e-05
0.000137208
-2.91827e-05
0.000145833
-3.67021e-05
0.000154613
-4.41658e-05
0.000163293
-5.14334e-05
0.000171477
-5.8367e-05
0.000178949
-6.48407e-05
0.000185467
-7.07538e-05
0.000190983
-7.60254e-05
0.000195523
-8.0597e-05
0.000199351
-8.44911e-05
0.000202802
0.000206083
-8.79155e-05
-4.48075e-07
7.65856e-05
-4.8699e-06
0.000122719
-1.07587e-05
0.000135129
-1.6966e-05
0.000143415
-2.33023e-05
0.00015217
-2.96568e-05
0.000160968
-3.58941e-05
0.00016953
-4.18722e-05
0.000177456
-4.74543e-05
0.000184531
-5.25194e-05
0.000190532
-5.69752e-05
0.000195439
-6.07574e-05
0.000199306
-6.38019e-05
0.000202396
-6.60412e-05
0.000205041
0.000207741
-6.76994e-05
8.89579e-07
7.5696e-05
-2.16362e-06
0.000125772
-6.91753e-06
0.000139883
-1.20521e-05
0.00014855
-1.72796e-05
0.000157397
-2.24794e-05
0.000166168
-2.7512e-05
0.000174563
-3.22348e-05
0.000182178
-3.65122e-05
0.000188809
-4.02269e-05
0.000194247
-4.32866e-05
0.000198499
-4.56373e-05
0.000201656
-4.72447e-05
0.000204003
-4.79584e-05
0.000205755
0.000207395
-4.7612e-05
2.23968e-06
7.34564e-05
6.18901e-07
0.000127393
-2.98027e-06
0.000143482
-7.03634e-06
0.000152606
-1.11651e-05
0.000161526
-1.52286e-05
0.000170231
-1.90853e-05
0.00017842
-2.25901e-05
0.000185683
-2.56099e-05
0.000191828
-2.80305e-05
0.000196668
-2.9754e-05
0.000200222
-3.07116e-05
0.000202614
-3.09045e-05
0.000204196
-3.02551e-05
0.000205105
0.000205145
-2.80054e-05
3.62802e-06
6.98283e-05
3.49243e-06
0.000127529
1.03122e-06
0.000145943
-1.96264e-06
0.0001556
-5.01116e-06
0.000164574
-7.95995e-06
0.00017318
-1.06735e-05
0.000181133
-1.29995e-05
0.000188009
-1.48079e-05
0.000193637
-1.59847e-05
0.000197844
-1.64268e-05
0.000200664
-1.60423e-05
0.000202229
-1.47774e-05
0.000202931
-1.27075e-05
0.000203036
0.000201619
-9.1814e-06
4.99437e-06
6.4834e-05
6.3789e-06
0.000126144
5.14999e-06
0.000147172
3.18245e-06
0.000157567
1.13923e-06
0.000166618
-7.55521e-07
0.000175075
-2.3483e-06
0.000182726
-3.53199e-06
0.000189193
-4.17319e-06
0.000194278
-4.14904e-06
0.00019782
-3.35279e-06
0.000199868
-1.69243e-06
0.000200569
8.9891e-07
0.00020034
4.64549e-06
0.000199289
0.000196942
9.32232e-06
6.28109e-06
5.85529e-05
9.22706e-06
0.000123198
9.23967e-06
0.000147159
8.33083e-06
0.000158476
7.33887e-06
0.00016761
6.49936e-06
0.000175914
5.95335e-06
0.000183272
5.85358e-06
0.000189293
6.33343e-06
0.000193798
7.51283e-06
0.000196641
9.50219e-06
0.000197879
1.24431e-05
0.000197628
1.64034e-05
0.00019638
2.12326e-05
0.00019446
0.000190529
2.76456e-05
7.41647e-06
5.11364e-05
1.1961e-05
0.000118654
1.32775e-05
0.000145843
1.34243e-05
0.000158329
1.34279e-05
0.000167606
1.36e-05
0.000175742
1.40967e-05
0.000182775
1.50579e-05
0.000188331
1.66225e-05
0.000192234
1.89153e-05
0.000194348
2.20412e-05
0.000194753
2.61878e-05
0.000193481
3.14978e-05
0.00019107
3.76077e-05
0.00018835
0.000182634
4.55035e-05
8.3034e-06
4.2833e-05
1.4489e-05
0.000112468
1.72025e-05
0.000143129
1.8424e-05
0.000157108
1.93937e-05
0.000166636
2.0536e-05
0.0001746
2.20288e-05
0.000181282
2.40077e-05
0.000186353
2.66172e-05
0.000189624
3.00023e-05
0.000190963
3.42493e-05
0.000190506
3.95179e-05
0.000188213
4.62372e-05
0.00018435
5.36696e-05
0.000180918
0.000173427
6.28758e-05
8.81467e-06
3.40183e-05
1.67035e-05
0.000104579
2.09339e-05
0.000138899
2.32739e-05
0.000154768
2.51953e-05
0.000164715
2.72691e-05
0.000172526
2.97159e-05
0.000178835
3.26728e-05
0.000183396
3.6285e-05
0.000186012
4.07347e-05
0.000186513
4.61102e-05
0.000185131
5.24358e-05
0.000181887
6.0575e-05
0.000176211
6.94021e-05
0.00017209
0.000162943
7.98866e-05
8.8126e-06
2.52058e-05
1.84888e-05
9.49032e-05
2.43675e-05
0.00013302
2.79012e-05
0.000151234
3.07805e-05
0.000161836
3.3758e-05
0.000169548
3.71126e-05
0.000175481
4.1006e-05
0.000179502
4.55782e-05
0.00018144
5.10537e-05
0.000181038
5.76059e-05
0.000178578
6.49092e-05
0.000174584
7.44277e-05
0.000166692
8.47235e-05
0.000161795
0.00015099
9.66761e-05
8.2208e-06
1.69849e-05
1.97245e-05
8.33996e-05
2.7368e-05
0.000125376
3.22127e-05
0.000146389
3.60924e-05
0.000157956
3.99486e-05
0.000165692
4.41683e-05
0.000171261
4.89592e-05
0.000174711
5.44529e-05
0.000175946
6.08514e-05
0.000174639
6.86564e-05
0.000170773
7.69237e-05
0.000166317
8.77345e-05
0.000155882
9.95772e-05
0.000149952
0.000137273
0.000113295
7.11172e-06
9.87323e-06
2.02655e-05
7.02458e-05
2.97687e-05
0.000115873
3.60958e-05
0.000140062
4.10559e-05
0.000152996
4.57911e-05
0.000160957
5.08192e-05
0.000166233
5.64544e-05
0.000169076
6.28702e-05
0.00016953
7.00653e-05
0.000167444
7.91851e-05
0.000161653
8.84347e-05
0.000157067
0.000100375
0.000143941
0.000113637
0.00013669
0.000121104
0.000129806
5.68905e-06
4.18417e-06
1.99405e-05
5.59943e-05
3.13867e-05
0.000104427
3.94137e-05
0.000132035
4.5578e-05
0.000146832
5.12021e-05
0.000155333
5.70132e-05
0.000160422
6.34076e-05
0.000162682
7.07694e-05
0.000162168
7.8611e-05
0.000159603
8.90259e-05
0.000151239
9.95079e-05
0.000146585
0.000112542
0.000130907
0.000126525
0.000122708
0.000102089
0.000145539
4.15922e-06
2.49499e-08
1.85856e-05
4.15679e-05
3.2035e-05
9.09776e-05
4.19924e-05
0.000122078
4.95183e-05
0.000139306
5.60984e-05
0.000148753
6.26645e-05
0.000153856
6.96937e-05
0.000155653
7.80773e-05
0.000153785
8.64999e-05
0.00015118
9.78837e-05
0.000139855
0.00010974
0.000134729
0.000124621
0.000116026
0.00013869
0.000108639
8.05596e-05
0.000160219
2.70823e-06
-2.68328e-06
1.62009e-05
2.80753e-05
3.15473e-05
7.56312e-05
4.36e-05
0.000110025
5.26901e-05
0.000130215
6.03139e-05
0.000141129
6.77406e-05
0.000146429
7.52294e-05
0.000148164
8.45575e-05
0.000144457
9.3719e-05
0.000142019
0.000105797
0.000127776
0.000118575
0.000121951
0.000135922
9.86792e-05
0.000150702
9.38585e-05
5.71384e-05
0.000174124
1.47088e-06
-4.15416e-06
1.30518e-05
1.64944e-05
2.97789e-05
5.8904e-05
4.39351e-05
9.58691e-05
5.48417e-05
0.000119309
6.36667e-05
0.000132304
7.2022e-05
0.000138074
8.00027e-05
0.000140183
9.00469e-05
0.000134413
0.000100103
0.000131963
0.000112701
0.000115178
0.00012609
0.000108562
0.000145154
7.9615e-05
0.000161793
7.72191e-05
3.21717e-05
0.00018676
6.31805e-07
-4.78596e-06
9.64608e-06
7.48009e-06
2.65757e-05
4.19744e-05
4.26709e-05
7.97739e-05
5.5647e-05
0.000106333
6.58519e-05
0.000122099
7.53749e-05
0.000128551
8.37819e-05
0.000131776
9.41999e-05
0.000123995
0.000105531
0.000120632
0.000118622
0.000102088
0.00013256
9.46234e-05
0.000151931
6.02437e-05
0.00017119
5.79608e-05
5.83744e-06
0.000197524
1.82227e-07
-4.96819e-06
6.58615e-06
1.07616e-06
2.20072e-05
2.65534e-05
3.95212e-05
6.22599e-05
5.47292e-05
9.11246e-05
6.65043e-05
0.000110324
7.72612e-05
0.000117794
8.68401e-05
0.000122197
9.66439e-05
0.000114191
0.000109036
0.000108239
0.000122468
8.8656e-05
0.000138551
7.85411e-05
0.000154187
4.46078e-05
0.000180076
3.20715e-05
-1.51085e-05
0.000201022
4.53246e-09
-4.97272e-06
4.20676e-06
-3.12606e-06
1.67815e-05
1.39787e-05
3.44597e-05
4.45817e-05
5.16241e-05
7.39602e-05
6.52969e-05
9.66512e-05
7.71117e-05
0.000105979
8.81157e-05
0.000111193
9.83551e-05
0.000103951
0.000110455
9.61395e-05
0.000124154
7.49566e-05
0.000141907
6.07885e-05
0.000157026
2.94882e-05
0.000183275
5.8233e-06
-3.07467e-05
0.000198913
1.50435e-08
-4.98777e-06
2.78351e-06
-5.89453e-06
1.20132e-05
4.749e-06
2.80092e-05
2.85857e-05
4.60665e-05
5.59029e-05
6.16339e-05
8.10838e-05
7.47078e-05
9.29053e-05
8.67901e-05
9.91107e-05
9.78327e-05
9.29087e-05
0.000111598
8.2374e-05
0.000121942
6.46123e-05
0.000143599
3.9132e-05
0.000156458
1.66296e-05
0.000179801
-1.75197e-05
-5.17103e-05
0.000200764
1.78611e-07
-5.16638e-06
2.22855e-06
-7.94447e-06
8.53771e-06
-1.56016e-06
2.13641e-05
1.57593e-05
3.84423e-05
3.88247e-05
5.51306e-05
6.43955e-05
6.92473e-05
7.87886e-05
8.30319e-05
8.53261e-05
9.30637e-05
8.28769e-05
0.000110352
6.5086e-05
0.000117821
5.71429e-05
0.000141613
1.53402e-05
0.000150531
7.71194e-06
0.000177632
-4.46215e-05
-6.86722e-05
0.000194594
4.41248e-07
-5.60763e-06
2.19832e-06
-9.70154e-06
6.50128e-06
-5.86312e-06
1.57636e-05
6.49701e-06
2.9911e-05
2.46772e-05
4.61669e-05
4.81396e-05
6.04984e-05
6.44571e-05
7.55839e-05
7.02406e-05
8.55161e-05
7.29447e-05
0.000102491
4.8111e-05
0.000112948
4.6686e-05
0.000135002
-6.71382e-06
0.000143404
-6.90085e-07
0.000175498
-7.6716e-05
-7.05175e-05
0.000177344
6.89807e-07
-6.29743e-06
2.29358e-06
-1.13053e-05
5.33947e-06
-8.909e-06
1.15554e-05
2.81125e-07
2.18316e-05
1.4401e-05
3.56831e-05
3.42881e-05
4.92155e-05
5.09248e-05
6.35241e-05
5.5932e-05
7.50371e-05
6.14317e-05
8.86474e-05
3.45007e-05
0.000102487
3.2846e-05
0.000117529
-2.17553e-05
0.000130761
-1.39222e-05
0.000156364
-0.000102319
-7.77914e-05
0.000163638
8.00358e-07
-7.09779e-06
2.1327e-06
-1.26377e-05
4.23476e-06
-1.10111e-05
8.10851e-06
-3.59263e-06
1.47106e-05
7.79882e-06
2.48354e-05
2.41634e-05
3.63183e-05
3.94418e-05
4.79695e-05
4.42808e-05
5.9655e-05
4.97462e-05
7.08019e-05
2.33537e-05
8.41258e-05
1.95222e-05
9.27723e-05
-3.04018e-05
0.000113796
-3.49461e-05
0.000132
-0.000120523
-0.000124654
0.000178863
6.76745e-07
-7.77454e-06
1.45243e-06
-1.34133e-05
2.52823e-06
-1.20869e-05
4.52808e-06
-5.59247e-06
8.0588e-06
4.2681e-06
1.43262e-05
1.7896e-05
2.26246e-05
3.11434e-05
3.10801e-05
3.58254e-05
4.06537e-05
4.01726e-05
4.94974e-05
1.451e-05
6.28597e-05
6.15985e-06
7.62737e-05
-4.38158e-05
0.00011361
-7.2282e-05
0.000152611
-0.000159525
-0.000194529
0.000222486
2.82042e-07
-8.05658e-06
1.6669e-07
-1.3298e-05
-5.35732e-08
-1.18666e-05
1.5782e-07
-5.80387e-06
1.07463e-06
3.35129e-06
3.99694e-06
1.49737e-05
8.45135e-06
2.66889e-05
1.36976e-05
3.05792e-05
2.02525e-05
3.36176e-05
2.78605e-05
6.90209e-06
4.98888e-05
-1.58685e-05
8.29792e-05
-7.69061e-05
0.000139066
-0.000128369
0.000190521
-0.00021098
-0.000251708
0.0002477
-3.49969e-07
-7.70661e-06
-1.57651e-06
-1.20714e-05
-3.19339e-06
-1.02497e-05
-4.80039e-06
-4.19686e-06
-6.19632e-06
4.74722e-06
-6.74546e-06
1.55228e-05
-6.06551e-06
2.6009e-05
-3.44289e-06
2.79565e-05
3.58085e-06
2.65939e-05
2.0204e-05
-9.72102e-06
6.09305e-05
-5.65951e-05
0.000111786
-0.000127762
0.000171931
-0.000188514
0.000214146
-0.000253195
-0.000291664
0.000254102
-1.12194e-06
-6.58467e-06
-3.57485e-06
-9.61853e-06
-6.68467e-06
-7.1399e-06
-1.01084e-05
-7.73126e-07
-1.36539e-05
8.29272e-06
-1.70753e-05
1.89442e-05
-1.90927e-05
2.80264e-05
-1.60548e-05
2.49187e-05
1.31148e-06
9.22759e-06
3.69348e-05
-4.53444e-05
9.10655e-05
-0.000110726
0.000143687
-0.000180383
0.000191822
-0.000236649
0.000224996
-0.000286369
-0.00032342
0.000256753
-1.8771e-06
-4.70758e-06
-5.44114e-06
-6.05448e-06
-9.84576e-06
-2.73529e-06
-1.46749e-05
4.05601e-06
-1.96571e-05
1.32749e-05
-2.40079e-05
2.3295e-05
-2.52836e-05
2.93021e-05
-1.55129e-05
1.51479e-05
1.73345e-05
-2.36198e-05
6.70957e-05
-9.51056e-05
0.00012073
-0.00016436
0.000165054
-0.000224707
0.000201813
-0.000273408
0.000229986
-0.000314542
-0.000346724
0.00025329
-2.43623e-06
-2.27135e-06
-6.74868e-06
-1.74202e-06
-1.18677e-05
2.38378e-06
-1.72304e-05
9.41864e-06
-2.21108e-05
1.81553e-05
-2.47094e-05
2.58937e-05
-2.11257e-05
2.57184e-05
8.88363e-07
-6.86616e-06
4.52358e-05
-6.79673e-05
9.56278e-05
-0.000145498
0.000141076
-0.000209808
0.000177585
-0.000261216
0.000206777
-0.000302601
0.000228731
-0.000336495
-0.000366025
0.000248031
-2.67067e-06
3.99319e-07
-7.20308e-06
2.79038e-06
-1.22964e-05
7.47708e-06
-1.708e-05
1.42022e-05
-2.03305e-05
2.14058e-05
-1.93321e-05
2.48954e-05
-8.17e-06
1.45563e-05
2.50377e-05
-4.00738e-05
7.31121e-05
-0.000116042
0.000117452
-0.000189838
0.000154713
-0.000247068
0.000184226
-0.000290728
0.000206848
-0.000325223
0.000225264
-0.000354911
-0.000382542
0.000241781
-2.55626e-06
2.95558e-06
-6.79548e-06
7.0296e-06
-1.12076e-05
1.18892e-05
-1.45811e-05
1.75758e-05
-1.53182e-05
2.21428e-05
-1.07005e-05
2.02777e-05
9.60237e-06
-5.74662e-06
5.02942e-05
-8.07656e-05
9.48983e-05
-0.000160646
0.000132858
-0.000227798
0.000162792
-0.000277002
0.000186074
-0.000314011
0.000204656
-0.000343805
0.000220005
-0.00037026
-0.000396566
0.000234028
-2.16584e-06
5.12141e-06
-5.73533e-06
1.05991e-05
-9.07318e-06
1.5227e-05
-1.0745e-05
1.92476e-05
-8.89723e-06
2.02951e-05
-1.71355e-07
1.15518e-05
2.92862e-05
-3.52042e-05
7.19022e-05
-0.000123382
0.0001113
-0.000200044
0.000142736
-0.000259234
0.000166575
-0.00030084
0.000185345
-0.000332781
0.000200434
-0.000358894
0.000213652
-0.000383479
-0.000409657
0.000226743
-1.62404e-06
6.74546e-06
-4.33572e-06
1.33108e-05
-6.48771e-06
1.7379e-05
-6.55671e-06
1.93166e-05
-3.13884e-06
1.68772e-05
1.21278e-05
-3.71483e-06
4.93772e-05
-7.24536e-05
8.91541e-05
-0.000163158
0.000122686
-0.000233576
0.000148193
-0.000284741
0.000167279
-0.000319926
0.000182353
-0.000347854
0.000195162
-0.000371704
0.000207129
-0.000395446
-0.000421128
0.0002186
-1.06006e-06
7.80552e-06
-2.89676e-06
1.51475e-05
-3.97334e-06
1.84556e-05
-2.68008e-06
1.80233e-05
2.44072e-06
1.17564e-05
2.56716e-05
-2.69457e-05
6.68e-05
-0.000113582
0.00010226
-0.000198619
0.000129931
-0.000261246
0.000150339
-0.00030515
0.000165625
-0.000335212
0.000178242
-0.000360472
0.000189336
-0.000382797
0.00019994
-0.00040605
-0.000431892
0.000210704
-5.76416e-07
8.38193e-06
-1.64307e-06
1.62141e-05
-1.78622e-06
1.85988e-05
-5.42371e-08
1.62914e-05
9.45755e-06
2.24463e-06
4.11659e-05
-5.86541e-05
8.0257e-05
-0.000152673
0.000111238
-0.0002296
0.000133766
-0.000283774
0.000149999
-0.000321383
0.000162519
-0.000347732
0.000173193
-0.000371146
0.000182946
-0.00039255
0.000192869
-0.000415974
-0.000441686
0.000202663
-2.37107e-07
8.61904e-06
-7.12818e-07
1.66898e-05
-1.14221e-07
1.80002e-05
2.10764e-06
1.40695e-05
1.8264e-05
-1.39117e-05
5.60913e-05
-9.64814e-05
9.07548e-05
-0.000187336
0.00011673
-0.000255576
0.000134939
-0.000301983
0.00014797
-0.000334414
0.000158325
-0.000358087
0.000167622
-0.000380443
0.000176498
-0.000401426
0.000185499
-0.000424974
-0.000450642
0.000194455
-7.10418e-08
8.69008e-06
-6.27999e-08
1.66816e-05
8.24916e-07
1.71124e-05
4.98042e-06
9.91399e-06
2.95011e-05
-3.84324e-05
6.76774e-05
-0.000134658
9.80196e-05
-0.000217679
0.000119388
-0.000276944
0.000134069
-0.000316663
0.000144653
-0.000344998
0.000153491
-0.000366925
0.000161724
-0.000388676
0.000169727
-0.000409429
0.000178124
-0.000433371
-0.000458981
0.000186462
-5.87246e-08
8.74881e-06
2.44941e-07
1.63779e-05
9.95586e-07
1.63618e-05
1.0186e-05
7.23612e-07
4.2148e-05
-7.03944e-05
7.64784e-05
-0.000168988
0.000102396
-0.000243596
0.000119868
-0.000294417
0.000131731
-0.000328526
0.000140528
-0.000353794
0.000148195
-0.000374592
0.000155555
-0.000396037
0.000162975
-0.000416848
0.0001707
-0.000441096
-0.000466468
0.000178188
-1.43783e-07
8.89259e-06
2.73602e-07
1.59605e-05
1.18896e-06
1.54464e-05
1.68747e-05
-1.49621e-05
5.3103e-05
-0.000106623
8.30191e-05
-0.000198904
0.00010443
-0.000265007
0.000118628
-0.000308614
0.000128336
-0.000338234
0.000135786
-0.000361244
0.000142592
-0.000381399
0.000149283
-0.000402728
0.000156059
-0.000423624
0.000163154
-0.00044819
-0.000473456
0.000170141
-2.18942e-07
9.11153e-06
1.19432e-07
1.56222e-05
2.90766e-06
1.26582e-05
2.59744e-05
-3.80289e-05
6.07724e-05
-0.000141421
8.71029e-05
-0.000225235
0.000104705
-0.000282609
0.000116189
-0.000320098
0.000124217
-0.000346263
0.00013068
-0.000367707
0.000136799
-0.000387517
0.000142859
-0.000408789
0.00014913
-0.000429895
0.00015566
-0.00045472
-0.00047971
0.000161914
-2.63983e-07
9.37551e-06
-2.73599e-07
1.56318e-05
6.82091e-06
5.56372e-06
3.60357e-05
-6.72437e-05
6.65969e-05
-0.000171982
8.903e-05
-0.000247668
0.000103505
-0.000297084
0.00011285
-0.000329443
0.000119605
-0.000353018
0.000125297
-0.0003734
0.000130843
-0.000393063
0.0001364
-0.000414345
0.00014214
-0.000435635
0.000148034
-0.000460614
-0.000485466
0.00015379
-3.33948e-07
9.70946e-06
-5.57787e-07
1.58556e-05
1.16078e-05
-6.6019e-06
4.43903e-05
-0.000100026
7.07948e-05
-0.000198386
8.93326e-05
-0.000266206
0.000101182
-0.000308933
0.000108896
-0.000337156
0.000114672
-0.000358794
0.000119757
-0.000378485
0.000124812
-0.000398118
0.000129861
-0.000419394
0.000135117
-0.000440892
0.000140488
-0.000465985
-0.000490612
0.000145635
-2.75947e-07
9.98541e-06
7.87888e-08
1.55009e-05
1.76331e-05
-2.41562e-05
4.97189e-05
-0.000132112
7.32672e-05
-0.000221935
8.85128e-05
-0.000281451
9.8096e-05
-0.000318517
0.000104496
-0.000343557
0.000109519
-0.000363817
0.000114097
-0.000383062
0.000118692
-0.000402713
0.0001233
-0.000424002
0.000128086
-0.000445678
0.000132862
-0.000470761
-0.000495241
0.00013749
-2.34359e-07
1.02198e-05
2.12983e-06
1.31367e-05
2.48643e-05
-4.68906e-05
5.33993e-05
-0.000160647
7.401e-05
-0.000242545
8.66822e-05
-0.000294124
9.4457e-05
-0.000326291
9.98218e-05
-0.000348922
0.000104233
-0.000368229
0.000108368
-0.000387197
0.000112545
-0.000406889
0.000116704
-0.000428161
0.000121015
-0.00044999
0.000125295
-0.00047504
-0.000499363
0.000129417
-2.66427e-07
1.04862e-05
5.08548e-06
7.78479e-06
3.15311e-05
-7.33362e-05
5.6162e-05
-0.000185278
7.34671e-05
-0.000259851
8.39895e-05
-0.000304646
9.04092e-05
-0.000332711
9.49631e-05
-0.000353475
9.88622e-05
-0.000372128
0.000102593
-0.000390928
0.000106353
-0.000410649
0.000110093
-0.000431901
0.000113954
-0.000453851
0.000117697
-0.000478783
-0.000502991
0.000121324
-3.02927e-07
1.07891e-05
8.26157e-06
-7.79705e-07
3.64213e-05
-0.000101496
5.78505e-05
-0.000206707
7.20892e-05
-0.000274089
8.07013e-05
-0.000313258
8.60544e-05
-0.000338064
8.99878e-05
-0.000357409
9.34491e-05
-0.000375589
9.6794e-05
-0.000394273
0.000100159
-0.000414014
0.000103476
-0.000435218
0.00010687
-0.000457245
0.000110136
-0.000482049
-0.000506195
0.000113341
-2.80384e-07
1.10695e-05
1.16663e-05
-1.27264e-05
3.92158e-05
-0.000129046
5.84385e-05
-0.00022593
7.01144e-05
-0.000285765
7.70566e-05
-0.0003202
8.15178e-05
-0.000342525
8.49368e-05
-0.000360828
8.80089e-05
-0.000378661
9.09859e-05
-0.00039725
9.39509e-05
-0.000416979
9.6856e-05
-0.000438123
9.98097e-05
-0.000460199
0.00010259
-0.000484829
-0.000508946
0.000105341
-2.88755e-07
1.13583e-05
1.57571e-05
-2.87723e-05
4.04999e-05
-0.000153788
5.7774e-05
-0.000243204
6.76041e-05
-0.000295595
7.31968e-05
-0.000325793
7.6891e-05
-0.00034622
7.98554e-05
-0.000363792
8.25648e-05
-0.000381371
8.51791e-05
-0.000399864
8.77562e-05
-0.000419556
9.02511e-05
-0.000440618
9.27503e-05
-0.000462698
9.50764e-05
-0.000487155
-0.000511291
9.74213e-05
1.74671e-07
1.11836e-05
1.93397e-05
-4.79373e-05
4.1379e-05
-0.000175828
5.62596e-05
-0.000258084
6.45769e-05
-0.000303913
6.91721e-05
-0.000330388
7.22373e-05
-0.000349285
7.47771e-05
-0.000366332
7.71276e-05
-0.000383721
7.93831e-05
-0.000402119
8.15699e-05
-0.000421743
8.36569e-05
-0.000442705
8.57241e-05
-0.000464766
8.76021e-05
-0.000489033
-0.000513176
8.94865e-05
8.75128e-07
1.03085e-05
2.22832e-05
-6.93453e-05
4.16449e-05
-0.000195189
5.42489e-05
-0.000270688
6.11881e-05
-0.000310852
6.50098e-05
-0.00033421
6.75746e-05
-0.00035185
6.97241e-05
-0.000368481
7.17171e-05
-0.000385714
7.36081e-05
-0.00040401
7.5409e-05
-0.000423544
7.7092e-05
-0.000444388
7.87177e-05
-0.000466391
8.01562e-05
-0.000490471
-0.000514644
8.16247e-05
1.99829e-06
8.31017e-06
2.43937e-05
-9.17408e-05
4.14222e-05
-0.000212218
5.19175e-05
-0.000281184
5.75949e-05
-0.000316529
6.07632e-05
-0.000337378
6.29131e-05
-0.000353999
6.47031e-05
-0.000370271
6.63386e-05
-0.00038735
6.78626e-05
-0.000405534
6.92746e-05
-0.000424956
7.05523e-05
-0.000445666
7.17495e-05
-0.000467589
7.2747e-05
-0.000491469
-0.000515629
7.37316e-05
3.58923e-06
4.72094e-06
2.56435e-05
-0.000113795
4.07776e-05
-0.000227352
4.93889e-05
-0.000289795
5.39218e-05
-0.000321062
5.64905e-05
-0.000339947
5.82636e-05
-0.000355773
5.97158e-05
-0.000371724
6.10011e-05
-0.000388635
6.21547e-05
-0.000406688
6.31782e-05
-0.000425979
6.40533e-05
-0.000446541
6.48153e-05
-0.000468351
6.53649e-05
-0.000492019
-0.000516148
6.58844e-05
5.52971e-06
-8.08766e-07
2.60722e-05
-0.000134338
3.96754e-05
-0.000240955
4.6716e-05
-0.000296835
5.02325e-05
-0.000324579
5.22377e-05
-0.000341952
5.36448e-05
-0.00035718
5.47663e-05
-0.000372845
5.57042e-05
-0.000389573
5.64891e-05
-0.000407473
5.71227e-05
-0.000426613
5.75919e-05
-0.00044701
5.79258e-05
-0.000468684
5.80332e-05
-0.000492126
-0.000516181
5.8066e-05
7.62053e-06
-8.42929e-06
2.59277e-05
-0.000152645
3.80482e-05
-0.000253076
4.38891e-05
-0.000302676
4.65558e-05
-0.000327245
4.80358e-05
-0.000343432
4.90722e-05
-0.000358216
4.98608e-05
-0.000373634
5.04547e-05
-0.000390167
5.08721e-05
-0.00040789
5.11161e-05
-0.000426857
5.11797e-05
-0.000447074
5.10817e-05
-0.000468586
5.07462e-05
-0.000491791
-0.00051574
5.03052e-05
9.63625e-06
-1.80655e-05
2.58119e-05
-0.00016882
3.61104e-05
-0.000263374
4.08848e-05
-0.000307451
4.2878e-05
-0.000329239
4.38916e-05
-0.000344446
4.45594e-05
-0.000358884
4.50083e-05
-0.000374083
4.52557e-05
-0.000390414
4.53074e-05
-0.000407942
4.51628e-05
-0.000426712
4.48165e-05
-0.000446727
4.42884e-05
-0.000468058
4.35204e-05
-0.000491023
-0.000514816
4.25958e-05
1.10106e-05
-2.90761e-05
2.53918e-05
-0.000183201
3.39759e-05
-0.000271958
3.77445e-05
-0.000311219
3.91837e-05
-0.000330678
3.97995e-05
-0.000345062
4.01117e-05
-0.000359196
4.02166e-05
-0.000374187
4.01157e-05
-0.000390313
3.98025e-05
-0.000407629
3.92711e-05
-0.000426181
3.85153e-05
-0.000445972
3.75509e-05
-0.000467094
3.63467e-05
-0.000489818
-0.00051342
3.49508e-05
1.17845e-05
-4.08607e-05
2.45944e-05
-0.000196011
3.16839e-05
-0.000279048
3.45445e-05
-0.00031408
3.5495e-05
-0.000331628
3.57569e-05
-0.000345324
3.57308e-05
-0.00035917
3.54921e-05
-0.000373949
3.50396e-05
-0.000389861
3.43618e-05
-0.000406951
3.34474e-05
-0.000425266
3.22852e-05
-0.000444809
3.08834e-05
-0.000465692
2.92313e-05
-0.000488166
-0.000511556
2.73675e-05
1.20366e-05
-5.28973e-05
2.34744e-05
-0.000207449
2.92719e-05
-0.000284845
3.13342e-05
-0.000316142
3.18387e-05
-0.000332133
3.17691e-05
-0.000345254
3.14167e-05
-0.000358817
3.08381e-05
-0.00037337
3.00342e-05
-0.000389057
2.89922e-05
-0.000405909
2.76983e-05
-0.000423972
2.61409e-05
-0.000443252
2.43115e-05
-0.000463862
2.21727e-05
-0.000486027
-0.000509227
1.98442e-05
1.18943e-05
-6.47916e-05
2.20843e-05
-0.000217639
2.67715e-05
-0.000289532
2.81449e-05
-0.000317516
2.82364e-05
-0.000332224
2.78444e-05
-0.000344862
2.71724e-05
-0.000358145
2.62578e-05
-0.000372456
2.51033e-05
-0.000387903
2.36974e-05
-0.000404503
2.20264e-05
-0.000422301
2.0083e-05
-0.000441309
1.78558e-05
-0.000461635
1.52112e-05
-0.000483383
-0.00050639
1.23736e-05
1.14802e-05
-7.62719e-05
2.05022e-05
-0.000226661
2.42198e-05
-0.00029325
2.49945e-05
-0.00031829
2.47025e-05
-0.000331932
2.3992e-05
-0.000344151
2.30018e-05
-0.000357155
2.17541e-05
-0.000371208
2.02519e-05
-0.0003864
1.84838e-05
-0.000402735
1.6436e-05
-0.000420254
1.41072e-05
-0.00043898
1.15022e-05
-0.00045903
8.42726e-06
-0.000480308
-0.000502876
4.91354e-06
1.08767e-05
-8.71486e-05
1.87864e-05
-0.000234571
2.1649e-05
-0.000296113
2.18998e-05
-0.000318541
2.12477e-05
-0.00033128
2.02196e-05
-0.000343123
1.89103e-05
-0.000355846
1.73309e-05
-0.000369629
1.54826e-05
-0.000384552
1.33538e-05
-0.000400606
1.09331e-05
-0.000417833
8.21544e-06
-0.000436262
5.19283e-06
-0.000456008
1.97077e-06
-0.000477086
-0.000498538
-2.36737e-06
1.01347e-05
-9.72833e-05
1.69904e-05
-0.000241426
1.90932e-05
-0.000298215
1.88753e-05
-0.000318323
1.78794e-05
-0.000330284
1.65328e-05
-0.000341777
1.49021e-05
-0.000354215
1.29912e-05
-0.000367718
1.07976e-05
-0.000382358
8.30932e-06
-0.000398118
5.52318e-06
-0.000415047
2.40577e-06
-0.000433145
-1.08148e-06
-0.00045252
-4.68336e-06
-0.000473484
-0.000494118
-9.10295e-06
9.23875e-06
-0.000106522
1.51569e-05
-0.000247345
1.65818e-05
-0.00029964
1.59348e-05
-0.000317676
1.46029e-05
-0.000328952
1.29359e-05
-0.00034011
1.09809e-05
-0.00035226
8.7369e-06
-0.000365474
6.19474e-06
-0.000379816
3.34748e-06
-0.000395271
1.85466e-07
-0.000411885
-3.26364e-06
-0.000429696
-6.96755e-06
-0.000448817
-1.1262e-05
-0.000469189
-0.00048955
-1.58308e-05
8.36326e-06
-0.000114885
1.3334e-05
-0.000252315
1.41329e-05
-0.000300439
1.30841e-05
-0.000316627
1.14202e-05
-0.000327288
9.4306e-06
-0.00033812
7.14738e-06
-0.000349977
4.56463e-06
-0.000362891
1.66287e-06
-0.000376914
-1.51597e-06
-0.000392092
-4.99433e-06
-0.000408406
-8.78351e-06
-0.000425906
-1.288e-05
-0.00044472
-1.76224e-05
-0.000464447
-0.000484682
-2.24902e-05
7.51574e-06
-0.000122401
1.15551e-05
-0.000256355
1.17581e-05
-0.000300642
1.03226e-05
-0.000315192
8.33225e-06
-0.000325298
6.01621e-06
-0.000335804
3.39722e-06
-0.000347358
4.45414e-07
-0.000359939
-2.74004e-06
-0.000373729
-6.25221e-06
-0.00038858
-1.00836e-05
-0.000404575
-1.42241e-05
-0.000421766
-1.87422e-05
-0.000440202
-2.3825e-05
-0.000459364
-0.000479454
-2.90523e-05
6.68066e-06
-0.000129082
9.83567e-06
-0.00025951
9.46728e-06
-0.000300274
7.65361e-06
-0.000313378
5.33784e-06
-0.000322982
2.68473e-06
-0.000333151
-2.95428e-07
-0.000344378
-3.49264e-06
-0.000356742
-7.03375e-06
-0.000370188
-1.0896e-05
-0.000384717
-1.50729e-05
-0.000400398
-1.95811e-05
-0.000417258
-2.45311e-05
-0.000435252
-2.99013e-05
-0.000453994
-0.000473856
-3.54994e-05
5.86475e-06