/*--------------------------------*- C++ -*----------------------------------*\
  =========                 |
  \\      /  F ield         | OpenFOAM: The Open Source CFD Toolbox
   \\    /   O peration     | Website:  https://openfoam.org
    \\  /    A nd           | Version:  7
     \\/     M anipulation  |
\*---------------------------------------------------------------------------*/
FoamFile
{
    version     2.0;
    format      ascii;
    class       volVectorField;
    location    "33";
    object      U;
}
// * * * * * * * * * * * * * * * * * * * * * * * * * * * * * * * * * * * * * //

dimensions      [0 1 -1 0 0 0 0];

internalField   nonuniform List<vector> 
18750
(
(-0.0326178 -0.0125716 -6.10807e-21)
(-0.117521 -0.0104209 2.09028e-21)
(-0.21102 -0.00355185 2.3741e-20)
(-0.293124 0.00445078 5.59414e-21)
(-0.374851 0.0130192 -1.38811e-20)
(-0.451954 0.0218932 -3.36194e-20)
(-0.527449 0.0308128 3.55426e-20)
(-0.599611 0.0395125 2.39471e-20)
(-0.66977 0.0477736 -1.83584e-20)
(-0.736966 0.0554208 -4.9227e-20)
(-0.801926 0.0623036 1.90534e-19)
(-0.863874 0.0682773 -1.59199e-19)
(-0.923041 0.0731722 9.58026e-20)
(-0.978536 0.0768847 -1.90635e-19)
(-1.03031 0.0795673 4.44071e-20)
(-0.0335933 0.0292944 4.02822e-21)
(-0.118477 0.0418693 5.72825e-21)
(-0.211615 0.0458406 1.73133e-21)
(-0.293433 0.051503 3.6281e-20)
(-0.374876 0.0580633 7.62559e-20)
(-0.451689 0.0651813 1.06174e-19)
(-0.526823 0.0724195 -9.19e-20)
(-0.598503 0.0795144 1.51723e-19)
(-0.668 0.0861718 1.43325e-19)
(-0.734286 0.0922075 -4.71219e-20)
(-0.798042 0.0974378 -2.02371e-19)
(-0.858464 0.10169 9.722e-21)
(-0.915717 0.104793 4.56968e-20)
(-0.968767 0.106761 1.23963e-19)
(-1.01743 0.107909 -1.91948e-19)
(-0.0359878 0.0704597 1.00037e-20)
(-0.120605 0.0935521 1.52859e-20)
(-0.212467 0.094749 -5.3604e-20)
(-0.293124 0.0981171 4.3068e-21)
(-0.373393 0.102696 -1.40801e-19)
(-0.449002 0.10805 4.54935e-20)
(-0.522792 0.113617 -1.34945e-19)
(-0.592919 0.119065 -1.73029e-20)
(-0.660553 0.124043 -1.11272e-19)
(-0.724595 0.128351 3.36437e-19)
(-0.785676 0.131775 4.54684e-19)
(-0.842958 0.134128 4.07642e-19)
(-0.896515 0.135253 2.42814e-19)
(-0.945146 0.135252 1.66671e-19)
(-0.988545 0.134538 -3.14556e-19)
(-0.0397098 0.110281 -5.02553e-20)
(-0.123834 0.144073 6.27557e-20)
(-0.21354 0.142731 -4.93977e-20)
(-0.292191 0.143895 -1.12852e-19)
(-0.370429 0.146559 2.05226e-19)
(-0.443961 0.15018 -1.975e-19)
(-0.515479 0.154072 3.02044e-19)
(-0.58306 0.157845 -2.60162e-19)
(-0.647745 0.161085 1.8612e-19)
(-0.708364 0.163579 -4.67777e-19)
(-0.765506 0.165097 -6.85378e-19)
(-0.818319 0.165472 3.71472e-20)
(-0.866803 0.164579 -1.34547e-19)
(-0.9096 0.162582 -2.97305e-19)
(-0.946303 0.159943 1.15346e-18)
(-0.0446179 0.148136 -3.91533e-20)
(-0.128057 0.192894 9.28699e-20)
(-0.214788 0.18936 2.18372e-20)
(-0.290633 0.188457 8.77945e-20)
(-0.366041 0.189307 -1.24458e-19)
(-0.436695 0.191244 5.30526e-20)
(-0.505105 0.193474 7.00181e-19)
(-0.569266 0.19555 1.14765e-19)
(-0.630082 0.197005 2.02605e-19)
(-0.686322 0.197613 -7.39119e-20)
(-0.738546 0.197148 6.29999e-20)
(-0.785932 0.195491 -2.97706e-20)
(-0.828459 0.192572 -7.66332e-19)
(-0.864665 0.188592 -4.34835e-19)
(-0.894062 0.184 -1.30487e-18)
(-0.0505269 0.18344 8.93714e-20)
(-0.133134 0.239492 3.34531e-20)
(-0.216151 0.234229 -4.60722e-20)
(-0.288455 0.23145 -3.34919e-20)
(-0.360316 0.230622 4.49912e-20)
(-0.427385 0.230952 -5.76375e-19)
(-0.491966 0.231549 -8.00507e-20)
(-0.551985 0.231923 3.64237e-20)
(-0.60821 0.23156 -3.03014e-19)
(-0.659365 0.230231 -4.18748e-19)
(-0.706005 0.227728 3.15634e-19)
(-0.747384 0.224007 -3.18922e-19)
(-0.783538 0.219076 1.00827e-18)
(-0.812977 0.213173 -7.99866e-19)
(-0.835147 0.206699 1.77811e-18)
(-0.0572351 0.215686 -8.33137e-20)
(-0.138903 0.283366 -1.42291e-19)
(-0.217549 0.276969 6.38532e-20)
(-0.285658 0.272559 4.82327e-19)
(-0.353353 0.270226 5.06236e-19)
(-0.41624 0.269051 -1.82796e-19)
(-0.476403 0.26807 9.3797e-20)
(-0.531719 0.266763 6.50943e-20)
(-0.582834 0.264581 6.49125e-19)
(-0.628449 0.2613 9.20944e-19)
(-0.669126 0.256745 -4.52993e-19)
(-0.704246 0.250966 -8.92707e-19)
(-0.73398 0.244076 -1.69074e-18)
(-0.756896 0.236368 2.99675e-19)
(-0.77238 0.228183 -2.17692e-18)
(-0.0645146 0.24437 -7.7504e-20)
(-0.145159 0.324037 -9.17565e-20)
(-0.218868 0.317258 -6.81403e-19)
(-0.282241 0.311518 2.49896e-19)
(-0.345261 0.307883 -3.00736e-19)
(-0.403485 0.305336 2.16659e-19)
(-0.458776 0.302864 2.38426e-19)
(-0.508987 0.299929 -1.05502e-18)
(-0.554661 0.295965 -7.25076e-19)
(-0.594498 0.290766 -1.25131e-18)
(-0.62908 0.284198 -2.06717e-19)
(-0.657943 0.27642 9.47682e-19)
(-0.681457 0.267667 3.78587e-18)
(-0.69833 0.258319 -5.90191e-19)
(-0.70789 0.24866 1.06308e-18)
(-0.0720933 0.268972 4.19387e-19)
(-0.151671 0.361095 1.72084e-19)
(-0.219973 0.354842 7.51454e-19)
(-0.278195 0.348109 -5.66567e-19)
(-0.336148 0.343401 2.78888e-19)
(-0.389345 0.339649 -4.81425e-19)
(-0.439437 0.335805 -1.14111e-18)
(-0.484283 0.33133 1.0368e-18)
(-0.524342 0.325662 1.2949e-19)
(-0.558341 0.318627 1.8778e-18)
(-0.586883 0.310143 -6.24013e-19)
(-0.609662 0.300473 -2.89723e-18)
(-0.627283 0.28999 -1.80117e-18)
(-0.638669 0.279188 1.93155e-19)
(-0.643098 0.268316 -9.02944e-19)
(-0.0796441 0.289025 -3.53701e-19)
(-0.158183 0.394226 -2.01301e-19)
(-0.220734 0.389519 2.7098e-19)
(-0.273511 0.382165 4.19099e-20)
(-0.326111 0.376637 -1.10244e-19)
(-0.37403 0.371875 -1.29431e-19)
(-0.418715 0.366812 5.18178e-19)
(-0.458058 0.36092 -6.38585e-19)
(-0.492459 0.353665 6.42911e-19)
(-0.520691 0.34492 8.28651e-19)
(-0.543372 0.33466 -1.49544e-18)
(-0.560343 0.323248 2.89124e-18)
(-0.572439 0.311195 3.45415e-19)
(-0.57886 0.299138 4.85601e-19)
(-0.578856 0.287324 1.12112e-18)
(-0.0867766 0.304092 6.82878e-19)
(-0.164383 0.423108 -2.26024e-19)
(-0.221008 0.421142 -1.00986e-18)
(-0.268175 0.413566 4.12101e-19)
(-0.315242 0.407487 -2.40261e-19)
(-0.357732 0.401939 2.86322e-19)
(-0.396907 0.395838 2.21909e-18)
(-0.430712 0.388689 1.10523e-18)
(-0.459502 0.379997 7.51385e-19)
(-0.482123 0.3697 -2.56399e-18)
(-0.499198 0.357842 2.86976e-18)
(-0.510681 0.344874 1.0815e-18)
(-0.517601 0.331427 -1.76311e-18)
(-0.519461 0.318299 2.15995e-18)
(-0.515552 0.305777 -8.10446e-20)
(-0.0930821 0.31389 1.5191e-19)
(-0.169958 0.447569 3.33716e-20)
(-0.220664 0.449603 -7.51724e-20)
(-0.262171 0.442232 -7.38912e-19)
(-0.303615 0.435888 1.5011e-18)
(-0.340616 0.429801 -7.80986e-19)
(-0.374268 0.422876 -2.35343e-18)
(-0.402579 0.414653 7.51628e-19)
(-0.425876 0.404702 -1.21666e-18)
(-0.44309 0.393041 1.93061e-18)
(-0.45485 0.379788 -3.55434e-18)
(-0.461179 0.365469 2.85451e-19)
(-0.463226 0.35081 1.57593e-18)
(-0.460785 0.336763 -3.35533e-18)
(-0.453338 0.323725 -7.98468e-19)
(-0.0980287 0.317975 -4.60767e-19)
(-0.174536 0.467371 1.32246e-19)
(-0.219557 0.474806 4.16503e-19)
(-0.255482 0.468116 -2.16126e-20)
(-0.291292 0.461814 -2.06265e-18)
(-0.322824 0.455454 1.98237e-19)
(-0.351013 0.447933 7.68443e-19)
(-0.373938 0.438847 -2.13525e-18)
(-0.391902 0.427839 1.65853e-18)
(-0.403933 0.415013 -1.55764e-18)
(-0.410666 0.400577 4.35449e-18)
(-0.412161 0.385131 -1.83489e-18)
(-0.409594 0.369451 2.2905e-18)
(-0.402978 0.354609 4.71542e-18)
(-0.392143 0.341167 2.0676e-18)
(-0.101122 0.31641 -1.88023e-19)
(-0.17781 0.482513 -7.31781e-21)
(-0.217602 0.496637 -1.31343e-20)
(-0.248078 0.491206 -4.82422e-20)
(-0.278317 0.485268 -1.02293e-18)
(-0.304474 0.478914 -4.65528e-19)
(-0.32732 0.471044 7.59486e-19)
(-0.345013 0.461321 4.77918e-19)
(-0.357832 0.44947 -2.78757e-18)
(-0.364909 0.435694 -1.56026e-19)
(-0.366878 0.420294 -8.54244e-19)
(-0.363832 0.403939 1.77406e-18)
(-0.356907 0.38744 -2.5306e-18)
(-0.346137 0.371896 -3.69165e-19)
(-0.331858 0.357981 -2.34006e-18)
(-0.102002 0.309414 8.50131e-19)
(-0.179418 0.492764 -7.62961e-19)
(-0.214671 0.514979 -1.03201e-18)
(-0.239924 0.51152 1.85772e-18)
(-0.264733 0.506288 1.65336e-18)
(-0.285661 0.500213 2.1577e-18)
(-0.303334 0.492243 9.81323e-20)
(-0.31598 0.48212 1.54665e-18)
(-0.32386 0.469656 2.11343e-18)
(-0.326195 0.455144 3.23652e-18)
(-0.323627 0.438983 -1.53768e-18)
(-0.316279 0.421933 3.29135e-18)
(-0.305232 0.404828 -1.07203e-20)
(-0.290393 0.388695 -1.71578e-18)
(-0.272097 0.374163 -4.33818e-18)
(-0.100434 0.297051 -5.4603e-19)
(-0.179055 0.497823 8.40787e-19)
(-0.210626 0.529788 5.65538e-19)
(-0.230964 0.529099 -1.7609e-18)
(-0.250569 0.52492 -8.27579e-19)
(-0.266471 0.5194 -1.55398e-19)
(-0.279172 0.511587 -1.16962e-18)
(-0.286981 0.501302 -2.04125e-18)
(-0.290124 0.48845 -3.57272e-18)
(-0.287932 0.473424 -1.59031e-18)
(-0.281013 0.456709 2.28048e-18)
(-0.269521 0.439146 -4.84444e-18)
(-0.25459 0.421635 1.70048e-19)
(-0.235959 0.405083 3.18965e-18)
(-0.212641 0.389802 4.65734e-18)
(-0.0962537 0.27934 -1.33012e-18)
(-0.176489 0.497514 1.02551e-18)
(-0.205346 0.541016 -1.76969e-18)
(-0.221206 0.544002 -8.62949e-19)
(-0.23587 0.541259 -4.95578e-20)
(-0.246973 0.536532 1.21018e-18)
(-0.254937 0.529108 2.00398e-18)
(-0.258122 0.518899 6.84934e-19)
(-0.256744 0.505899 1.0159e-18)
(-0.250203 0.490569 -2.88431e-18)
(-0.239099 0.47348 8.47384e-20)
(-0.223561 0.455575 -2.33314e-18)
(-0.204786 0.437812 -1.75019e-18)
(-0.182891 0.420975 -5.09673e-18)
(-0.153796 0.405443 -6.29182e-20)
(-0.0893936 0.256432 1.16962e-18)
(-0.171594 0.491694 1.87559e-19)
(-0.198717 0.548509 2.68772e-19)
(-0.210646 0.556287 2.13174e-18)
(-0.220697 0.555387 9.11735e-19)
(-0.227267 0.55167 -1.13344e-18)
(-0.230709 0.544866 9.04507e-19)
(-0.229503 0.534959 -5.39505e-19)
(-0.223789 0.522024 -1.10908e-18)
(-0.213087 0.506604 1.26716e-18)
(-0.197933 0.489348 -4.40231e-18)
(-0.178412 0.471248 -1.86283e-19)
(-0.155817 0.453363 -2.60311e-18)
(-0.130928 0.436286 4.06816e-18)
(-0.0960331 0.421232 3.71855e-19)
(-0.0799965 0.228693 -4.52919e-19)
(-0.16434 0.480163 -1.26387e-18)
(-0.190699 0.552041 3.29342e-19)
(-0.199288 0.565903 -2.47297e-18)
(-0.205088 0.567314 -1.69768e-18)
(-0.207418 0.564862 -9.70726e-19)
(-0.206602 0.558893 -1.73182e-18)
(-0.2012 0.54951 1.69512e-18)
(-0.191363 0.536861 2.45036e-18)
(-0.176625 0.521538 4.88763e-18)
(-0.157556 0.504282 -2.33865e-19)
(-0.134101 0.48615 5.74114e-18)
(-0.107506 0.468239 2.30188e-18)
(-0.0802161 0.451151 1.83798e-18)
(-0.0383674 0.437429 -4.09976e-18)
(-0.0685451 0.19671 7.8296e-19)
(-0.154808 0.462613 1.92723e-18)
(-0.181306 0.551245 1.32009e-18)
(-0.187172 0.572723 1.72668e-18)
(-0.189102 0.577057 6.65656e-21)
(-0.187502 0.576127 6.94773e-19)
(-0.182669 0.571214 1.24592e-20)
(-0.173329 0.562545 -1.32623e-18)
(-0.159507 0.550366 2.10183e-18)
(-0.140887 0.535348 -7.46773e-18)
(-0.118007 0.518319 2.24035e-18)
(-0.0906778 0.500278 -1.49968e-18)
(-0.059658 0.482467 3.02974e-19)
(-0.0308669 0.465397 -2.32439e-18)
(0.0194226 0.453874 -2.66115e-18)
(-0.0560092 0.161325 -1.2782e-18)
(-0.143202 0.438582 1.69869e-18)
(-0.170568 0.545573 -4.20961e-19)
(-0.174358 0.576513 -7.36659e-19)
(-0.172831 0.584594 1.54696e-18)
(-0.167589 0.58549 1.70284e-19)
(-0.159032 0.581801 -4.68128e-19)
(-0.145923 0.574053 -5.51422e-20)
(-0.128356 0.56255 -1.36129e-18)
(-0.105877 0.547977 3.58672e-18)
(-0.0792883 0.531311 2.24438e-18)
(-0.0483639 0.513642 1.20186e-18)
(-0.0119537 0.495966 -1.17767e-19)
(0.0168721 0.478715 2.98574e-18)
(0.0777148 0.471191 -2.76105e-19)
(-0.0438523 0.123841 3.74397e-19)
(-0.12984 0.407456 -4.04352e-19)
(-0.1585 0.534294 3.19663e-19)
(-0.160908 0.576892 1.36332e-18)
(-0.156374 0.589821 -8.7558e-19)
(-0.147813 0.592921 -5.77393e-19)
(-0.135738 0.590675 -1.10199e-18)
(-0.119163 0.583979 8.8121e-19)
(-0.0979351 0.573289 -9.34593e-19)
(-0.0717494 0.559359 -1.09471e-18)
(-0.0412924 0.543243 -1.93588e-18)
(-0.00739483 0.526133 -1.14072e-18)
(0.035818 0.50886 4.26262e-18)
(0.0628702 0.490259 -5.93529e-18)
(0.136585 0.489326 -1.67392e-19)
(-0.0334301 0.0864053 1.60238e-18)
(-0.115083 0.368542 -6.20026e-19)
(-0.145083 0.516556 -1.61168e-18)
(-0.146869 0.573264 -4.33025e-19)
(-0.139851 0.592485 2.30185e-18)
(-0.128264 0.598365 -4.63656e-20)
(-0.113004 0.597744 1.14726e-18)
(-0.0930314 0.592295 -6.32063e-19)
(-0.0685058 0.582574 -2.53685e-18)
(-0.0385713 0.569324 5.98143e-18)
(-0.00391098 0.553735 -4.48234e-18)
(0.0317936 0.537607 1.3575e-18)
(0.0840733 0.521385 -6.06076e-18)
(0.106709 0.499581 2.1512e-18)
(0.196482 0.508182 1.79227e-18)
(-0.0249188 0.0519917 -5.71524e-19)
(-0.0991943 0.32135 -1.83075e-18)
(-0.130284 0.491461 8.27482e-19)
(-0.132278 0.564773 1.46378e-19)
(-0.123363 0.592132 -2.07104e-18)
(-0.109129 0.601637 1.29256e-18)
(-0.0908595 0.603016 7.13952e-20)
(-0.0678854 0.598822 -3.17895e-19)
(-0.0399537 0.590147 -2.57883e-18)
(-0.00692291 0.577904 -2.96611e-19)
(0.0332737 0.562773 3.58126e-18)
(0.0687993 0.547362 3.03007e-19)
(0.132957 0.53414 8.74062e-19)
(0.148016 0.505173 2.55074e-18)
(0.256708 0.526684 -6.60284e-18)
(-0.0171436 0.0235013 -8.66607e-19)
(-0.0824539 0.266205 2.86541e-20)
(-0.11408 0.458124 -1.05113e-18)
(-0.117164 0.550244 8.54116e-19)
(-0.107022 0.588045 1.17202e-18)
(-0.090495 0.602458 -8.86615e-19)
(-0.0696816 0.606233 -1.56159e-19)
(-0.0436142 0.60361 -7.64475e-19)
(-0.0126757 0.5959 1.92684e-18)
(0.0229643 0.584629 3.66474e-19)
(0.0701537 0.569975 -5.17704e-18)
(0.103143 0.554777 1.42035e-18)
(0.183341 0.548349 9.08636e-19)
(0.186789 0.508093 -4.1134e-18)
(0.316236 0.540133 9.61617e-19)
(-0.00887221 0.00259842 1.95391e-19)
(-0.0656651 0.205189 5.26341e-19)
(-0.0966871 0.415615 9.79089e-19)
(-0.101563 0.52822 -8.34029e-19)
(-0.0909306 0.579186 -3.71995e-20)
(-0.0726069 0.600303 2.13625e-18)
(-0.0494197 0.607306 -1.05033e-19)
(-0.0211023 0.606181 -9.84996e-21)
(0.014057 0.599528 3.12926e-18)
(0.0497958 0.589732 -1.81418e-18)
(0.107562 0.575676 1.33606e-18)
(0.133412 0.556856 -3.80331e-18)
(0.234542 0.563754 3.34671e-19)
(0.225575 0.512713 -1.04236e-18)
(0.373833 0.548355 1.80568e-18)
(-0.000784547 -0.0099973 -1.47507e-19)
(-0.0496486 0.14347 6.52624e-19)
(-0.0786387 0.363171 -8.72902e-19)
(-0.0855598 0.497 1.83581e-18)
(-0.0752176 0.564194 -1.55818e-18)
(-0.0556331 0.594325 -1.40522e-18)
(-0.0305763 0.605592 -8.77388e-19)
(-0.000164453 0.606885 -1.92491e-18)
(0.0393031 0.600436 -3.80266e-18)
(0.0739239 0.591565 5.94762e-19)
(0.144477 0.581803 3.08966e-18)
(0.160792 0.553491 2.51781e-18)
(0.283923 0.573533 4.47322e-19)
(0.264706 0.521546 -2.1646e-18)
(0.430745 0.553137 -1.12238e-18)
(0.00552631 -0.0159976 3.49544e-19)
(-0.0345555 0.088198 6.10724e-19)
(-0.0606268 0.300766 -2.61239e-18)
(-0.0693785 0.454986 -1.8126e-18)
(-0.0600897 0.541234 -5.36736e-20)
(-0.0399741 0.583329 1.46807e-18)
(-0.0129167 0.600418 -5.49818e-19)
(0.0173442 0.60442 4.28327e-18)
(0.0648303 0.599658 3.72283e-19)
(0.0928538 0.589029 -2.47519e-18)
(0.182009 0.587249 -2.37354e-18)
(0.183924 0.547731 -3.86455e-18)
(0.331641 0.574983 4.29254e-18)
(0.30173 0.526249 2.91307e-18)
(0.485071 0.556928 -4.90503e-21)
(0.00980222 -0.0181831 -9.7405e-19)
(-0.01953 0.0453775 -1.79922e-18)
(-0.0433147 0.230164 1.29895e-18)
(-0.053439 0.400963 1.59264e-18)
(-0.0457288 0.508189 9.95968e-19)
(-0.0262371 0.565286 -1.02614e-18)
(0.00312633 0.590615 2.63119e-18)
(0.0321187 0.598813 -3.81315e-18)
(0.0870891 0.595314 4.29898e-18)
(0.110245 0.580821 2.80319e-18)
(0.214472 0.592248 -8.84104e-19)
(0.209709 0.541361 -1.26731e-18)
(0.367855 0.56958 -1.7155e-18)
(0.345989 0.527019 -3.49252e-18)
(0.526402 0.54799 4.2469e-18)
(0.012131 -0.0183443 2.73643e-18)
(-0.00519084 0.0162228 2.09481e-18)
(-0.0275985 0.157788 4.74847e-19)
(-0.0384961 0.334867 -2.83064e-20)
(-0.0324984 0.46262 -3.46937e-19)
(-0.0149637 0.538036 -4.06071e-19)
(0.0170751 0.573749 -2.05491e-18)
(0.0423456 0.58747 3.61356e-18)
(0.109286 0.59223 -2.86353e-18)
(0.119628 0.562285 -3.37198e-20)
(0.243751 0.588296 2.84691e-18)
(0.235315 0.54156 2.04607e-18)
(0.392464 0.54796 2.06037e-18)
(0.385662 0.535273 -2.87322e-20)
(0.568103 0.519884 -2.52316e-18)
(0.013268 -0.0176325 -1.64156e-18)
(0.00687995 -0.00150265 -1.70016e-18)
(-0.0131002 0.0953337 5.24947e-19)
(-0.025253 0.259675 -8.51377e-19)
(-0.0206482 0.402758 -4.06386e-19)
(-0.00719065 0.498356 1.46831e-18)
(0.0286139 0.548956 -3.87272e-19)
(0.0479597 0.565469 -3.69997e-19)
(0.123341 0.584385 -1.14048e-18)
(0.139416 0.552043 -2.6895e-18)
(0.241234 0.556486 1.25744e-18)
(0.290225 0.551031 -1.51583e-18)
(0.371302 0.512434 -2.37629e-18)
(0.478866 0.544896 -1.0967e-18)
(0.515745 0.477599 4.48026e-18)
(0.0142049 -0.0165296 1.84736e-18)
(0.0165146 -0.0111729 -1.44923e-18)
(0.00139984 0.0508009 -2.37873e-18)
(-0.013339 0.183552 2.44853e-19)
(-0.0104186 0.329735 5.70845e-19)
(-0.0029188 0.443171 -4.10325e-19)
(0.0346549 0.512402 1.11134e-18)
(0.0526104 0.535497 2.29594e-19)
(0.123381 0.558393 -1.52361e-19)
(0.160511 0.544009 1.10109e-19)
(0.240819 0.531476 -1.29863e-18)
(0.309216 0.523141 1.76867e-19)
(0.397034 0.511626 7.71276e-19)
(0.478807 0.498881 -6.13929e-19)
(0.562106 0.477987 4.11438e-18)
(0.015663 -0.0154036 3.86991e-19)
(0.0248556 -0.0159237 -8.30977e-19)
(0.0155902 0.0236552 2.3135e-18)
(-0.00133526 0.11878 1.78889e-18)
(-0.00191268 0.250364 -1.79803e-18)
(-0.00150875 0.372966 -1.24949e-19)
(0.0337102 0.459456 -8.36271e-19)
(0.0529606 0.493923 -3.31214e-19)
(0.117275 0.52314 2.34599e-18)
(0.164965 0.50541 1.21923e-18)
(0.246865 0.525043 1.6721e-18)
(0.311061 0.463762 -1.3447e-18)
(0.420087 0.517996 9.25087e-19)
(0.456279 0.42665 -5.37174e-19)
(0.626915 0.500928 -5.24761e-18)
(0.0180189 -0.014663 3.09061e-19)
(0.0327252 -0.0181803 4.95649e-19)
(0.0281698 0.0085369 -1.27401e-18)
(0.0111465 0.073079 -1.45181e-18)
(0.0049094 0.176711 -1.33455e-18)
(-0.00211619 0.293392 1.13564e-19)
(0.0257821 0.391306 9.73151e-19)
(0.0475767 0.433098 -1.77058e-18)
(0.100044 0.478316 -9.30967e-19)
(0.169755 0.450274 5.12117e-19)
(0.219547 0.484198 -1.52552e-18)
(0.350565 0.434215 1.67611e-19)
(0.374541 0.464699 1.0858e-18)
(0.515465 0.404811 -1.47372e-18)
(0.598714 0.467237 1.20918e-18)
(0.0212671 -0.0146183 -6.96317e-19)
(0.0400534 -0.0198156 1.57868e-18)
(0.0380769 -0.000503365 1.04298e-18)
(0.0219042 0.0441732 6.98425e-19)
(0.00962244 0.118248 1.14117e-18)
(-0.00428315 0.21478 -1.14814e-19)
(0.0115969 0.312973 -8.96206e-19)
(0.0369812 0.357111 1.99691e-19)
(0.0700829 0.410199 1.23008e-18)
(0.168218 0.394777 -1.90235e-18)
(0.174104 0.400407 -8.96183e-19)
(0.372285 0.405402 9.12715e-20)
(0.288921 0.350309 -3.02638e-19)
(0.588519 0.39961 1.7196e-18)
(0.455683 0.335852 -1.7192e-18)
(0.0249563 -0.0153137 7.60309e-19)
(0.0459369 -0.0220427 5.0807e-19)
(0.0442375 -0.00806866 -5.97211e-20)
(0.028041 0.0240123 -4.53453e-19)
(0.0106102 0.0749282 1.01131e-19)
(-0.00989448 0.145797 -1.3393e-18)
(-0.00562607 0.232312 2.94447e-19)
(0.0155829 0.272377 -5.764e-19)
(0.0400673 0.326554 -5.67823e-19)
(0.135243 0.313795 1.28955e-18)
(0.148698 0.315313 1.89148e-18)
(0.318932 0.318782 8.78479e-19)
(0.251818 0.251769 9.66019e-19)
(0.573462 0.345813 -1.26549e-18)
(0.406674 0.239847 -1.37597e-18)
(0.0282446 -0.0165032 6.29209e-19)
(0.0490075 -0.0253065 -1.19504e-18)
(0.0452565 -0.0167571 -5.77248e-19)
(0.027328 0.00581791 -1.29436e-18)
(0.00529643 0.0403977 5.82943e-19)
(-0.0210733 0.0879332 1.41257e-18)
(-0.0257652 0.155655 -1.60706e-18)
(-0.0164199 0.184397 5.59993e-19)
(0.00852511 0.23732 1.05085e-18)
(0.0853698 0.210399 2.67467e-19)
(0.119443 0.227312 -1.16771e-18)
(0.255417 0.215252 -5.08305e-19)
(0.296691 0.219516 -6.20811e-21)
(0.591322 0.308158 7.58369e-19)
(0.665 0.33593 3.10999e-18)
(0.030096 -0.0177313 -1.01893e-18)
(0.0479848 -0.029326 -1.02115e-18)
(0.0401002 -0.0270443 5.72033e-19)
(0.0186261 -0.0133616 2.30086e-18)
(-0.00826055 0.00851492 -1.49741e-18)
(-0.0389747 0.0372128 4.18869e-19)
(-0.0523656 0.0840923 6.22724e-19)
(-0.0541263 0.0983539 -5.35001e-20)
(-0.0304911 0.143994 1.36066e-19)
(0.0333419 0.107508 5.37339e-19)
(0.0911202 0.133903 -4.72104e-19)
(0.278996 0.166044 -1.03594e-18)
(0.445835 0.246386 -1.01684e-18)
(0.73832 0.347344 8.61554e-19)
(0.900122 0.435329 2.98156e-19)
(0.0295615 -0.0184521 -2.51104e-19)
(0.0421812 -0.0333465 2.02299e-18)
(0.0287314 -0.0382349 4.25647e-19)
(0.00249844 -0.0337874 6.08343e-19)
(-0.0298565 -0.0234948 5.55251e-19)
(-0.0647776 -0.00975269 5.31484e-19)
(-0.087449 0.0167895 -1.87823e-19)
(-0.0950487 0.0174895 3.38499e-19)
(-0.0740996 0.0524243 1.57056e-19)
(0.012505 0.033796 6.68992e-19)
(0.158392 0.0967984 4.0868e-20)
(0.421743 0.195392 7.20004e-19)
(0.65527 0.309019 -6.47046e-19)
(0.892417 0.404917 -6.98331e-19)
(0.997936 0.461032 5.02528e-19)
(0.026022 -0.0181633 9.04778e-19)
(0.0315947 -0.036354 -8.30928e-19)
(0.0120058 -0.0486336 8.49424e-20)
(-0.019466 -0.0533254 -1.23983e-18)
(-0.0576743 -0.0536365 -1.03174e-18)
(-0.0978657 -0.0517636 1.78021e-18)
(-0.127648 -0.0428419 5.03021e-19)
(-0.12918 -0.0486145 -7.09171e-19)
(-0.0823874 -0.0135294 1.99213e-19)
(0.091964 0.0299629 -1.82619e-18)
(0.340866 0.141505 6.24702e-19)
(0.613194 0.261729 -7.76846e-19)
(0.824685 0.365643 1.01468e-18)
(0.974948 0.427339 -9.01834e-20)
(1.06636 0.474415 -7.19865e-19)
(0.0194344 -0.0164813 -1.41144e-18)
(0.0170546 -0.0371396 -1.43838e-18)
(-0.00831593 -0.055815 -1.48123e-18)
(-0.0444581 -0.0679326 -1.11604e-18)
(-0.0868305 -0.0760438 7.5265e-19)
(-0.129135 -0.0814224 -3.0483e-18)
(-0.154894 -0.0812342 2.76791e-19)
(-0.123722 -0.0803977 2.69324e-19)
(-0.00252787 -0.025135 1.37493e-19)
(0.271331 0.0873452 8.5183e-19)
(0.546636 0.2133 -7.09388e-19)
(0.773435 0.318922 1.72927e-18)
(0.92691 0.392931 -3.89829e-19)
(1.04021 0.442865 -8.26667e-19)
(1.10755 0.47831 4.78e-19)
(0.0104367 -0.0132863 2.48778e-19)
(0.000250707 -0.0346999 1.16534e-18)
(-0.0292867 -0.0572544 1.66514e-18)
(-0.0676021 -0.0733731 2.76673e-19)
(-0.109085 -0.0842831 1.33932e-18)
(-0.144016 -0.0892832 7.48475e-19)
(-0.149459 -0.0859868 2.34475e-19)
(-0.0576642 -0.0662036 -1.14997e-18)
(0.163855 0.0305768 -6.66268e-20)
(0.469763 0.162103 4.77431e-19)
(0.712717 0.272642 1.76487e-18)
(0.884879 0.354469 -2.18447e-19)
(1.00403 0.413285 6.75341e-19)
(1.07982 0.449093 6.7126e-19)
(1.12351 0.471219 1.16601e-18)
(0.000195733 -0.0088341 4.5662e-19)
(-0.0167204 -0.0287835 -1.53002e-18)
(-0.0477661 -0.0520746 -3.33108e-19)
(-0.0839777 -0.0681813 1.87768e-20)
(-0.118055 -0.0764055 -2.49729e-18)
(-0.135551 -0.0743505 6.53084e-19)
(-0.108284 -0.0631257 -3.31499e-19)
(0.0677876 -0.0105624 3.89765e-19)
(0.361224 0.114866 1.24829e-18)
(0.63868 0.22784 -4.1041e-19)
(0.836646 0.316774 -1.40511e-18)
(0.970208 0.382024 -1.94704e-19)
(1.0516 0.423305 -2.31166e-19)
(1.10209 0.448095 -5.10873e-19)
(1.13941 0.466657 -1.2477e-18)
(-0.00996243 -0.00372676 9.53046e-20)
(-0.032062 -0.020161 4.14324e-19)
(-0.0617285 -0.0413701 -1.07276e-18)
(-0.0916697 -0.0542672 4.51878e-19)
(-0.113129 -0.0566217 1.03527e-18)
(-0.107728 -0.0460222 -4.46837e-19)
(-0.0363964 -0.0298132 -9.7718e-20)
(0.233839 0.0670073 -1.05693e-18)
(0.536549 0.18617 2.14648e-19)
(0.774273 0.279053 -7.21343e-19)
(0.93146 0.351179 6.90269e-19)
(1.02611 0.39826 -5.85308e-19)
(1.08265 0.427619 1.07743e-18)
(1.11928 0.447053 -4.36643e-19)
(1.14297 0.457708 -9.40404e-19)
(-0.018923 0.00128592 4.8692e-19)
(-0.0446608 -0.0102371 3.05093e-19)
(-0.0706685 -0.0275011 2.76126e-19)
(-0.0914253 -0.0356856 6.75201e-20)
(-0.0974852 -0.0316549 4.7452e-19)
(-0.0688637 -0.0170114 -1.16364e-18)
(0.0689361 0.0173367 6.52691e-19)
(0.40265 0.139255 1.52897e-18)
(0.683926 0.244939 -1.42945e-19)
(0.880372 0.320491 1.10653e-18)
(0.997154 0.375427 6.78842e-19)
(1.06504 0.409045 1.06731e-19)
(1.10337 0.429795 2.39388e-19)
(1.12592 0.442224 4.63302e-19)
(1.14686 0.450113 1.10309e-18)
(-0.0259937 0.00554193 7.42239e-19)
(-0.0541171 -0.000554321 1.06019e-18)
(-0.0750896 -0.0131286 -9.58409e-19)
(-0.085239 -0.0166001 8.73844e-19)
(-0.075661 -0.00764463 -2.03711e-18)
(-0.0188409 0.00189899 5.02193e-19)
(0.214379 0.0820743 -1.79564e-19)
(0.555348 0.20148 -9.56192e-19)
(0.803312 0.293029 -1.6734e-18)
(0.958522 0.351272 -6.24488e-19)
(1.04428 0.392891 -1.55209e-18)
(1.09022 0.414971 9.86587e-19)
(1.11432 0.428629 -1.37631e-18)
(1.13232 0.438424 9.81405e-19)
(1.14863 0.443079 7.01702e-19)
(-0.0309492 0.00861814 -1.75962e-18)
(-0.0605681 0.00762097 6.1898e-20)
(-0.0759929 -0.000391454 1.26114e-19)
(-0.0752414 0.00037533 2.44536e-19)
(-0.0525454 0.00949363 1.36293e-19)
(0.0535673 0.0223218 9.87858e-19)
(0.376628 0.14605 5.46255e-19)
(0.689531 0.254415 -1.53851e-19)
(0.896058 0.330355 7.56685e-19)
(1.01559 0.374507 4.85819e-19)
(1.07507 0.404556 2.28409e-19)
(1.10571 0.417755 -5.62982e-19)
(1.12255 0.427951 1.90931e-18)
(1.13448 0.433764 3.47484e-19)
(1.14748 0.43548 -7.38785e-19)
(-0.0339686 0.0103745 1.62037e-18)
(-0.0644836 0.0134974 -1.16119e-18)
(-0.0744055 0.00933331 3.71116e-19)
(-0.0638598 0.0140526 -3.90478e-20)
(-0.0248273 0.015253 1.94895e-18)
(0.166966 0.067753 -1.58953e-19)
(0.524875 0.202567 -6.57811e-19)
(0.799065 0.297694 1.61504e-18)
(0.965726 0.35908 1.50191e-19)
(1.05449 0.390888 6.50702e-19)
(1.09539 0.412167 -1.29336e-18)
(1.11601 0.419078 2.71577e-20)
(1.12585 0.425849 -6.07429e-19)
(1.13583 0.42919 -1.31567e-19)
(1.14819 0.430002 -4.43267e-19)
(-0.0355202 0.0109068 -4.33284e-19)
(-0.0664839 0.0167384 1.21335e-18)
(-0.0709902 0.0158773 7.35064e-19)
(-0.0535823 0.0218751 5.8742e-19)
(0.018948 0.0148444 -3.22358e-19)
(0.31613 0.127822 -1.27817e-19)
(0.655872 0.251752 8.54417e-19)
(0.886852 0.332401 -6.84392e-19)
(1.0166 0.380208 2.10211e-19)
(1.08117 0.402506 -1.09115e-18)
(1.10806 0.417003 7.30855e-20)
(1.12115 0.418889 1.72208e-19)
(1.1283 0.424384 -2.5456e-19)
(1.13651 0.425216 -1.55166e-18)
(1.14556 0.423868 6.69478e-19)
(-0.0362306 0.01044 -7.64388e-19)
(-0.0670667 0.0173628 -9.57662e-19)
(-0.0666769 0.0198582 5.03433e-19)
(-0.042774 0.0211329 -6.49637e-20)
(0.0949881 0.0355222 -7.95099e-19)
(0.462596 0.183435 -3.44871e-20)
(0.765629 0.292731 -6.00967e-19)
(0.953736 0.359223 -1.1961e-18)
(1.05248 0.395638 -4.88254e-19)
(1.09793 0.410357 4.51848e-19)
(1.11523 0.419654 4.17485e-19)
(1.12456 0.418565 -4.14812e-20)
(1.12876 0.422602 -6.84615e-19)
(1.13557 0.420781 1.2746e-18)
(1.1446 0.419395 4.09662e-19)
(-0.036755 0.00917202 7.52826e-19)
(-0.0666037 0.0159945 1.62895e-21)
(-0.0630529 0.0215163 -1.23465e-18)
(-0.0223967 0.0112034 -2.66972e-20)
(0.215732 0.08715 1.8826e-19)
(0.591953 0.232349 3.49707e-19)
(0.854185 0.326472 -6.33639e-19)
(1.00413 0.379948 3.30807e-19)
(1.07716 0.406528 -1.47122e-20)
(1.10849 0.415606 3.70386e-19)
(1.11943 0.421216 -3.34584e-19)
(1.12541 0.417687 -9.50935e-19)
(1.12843 0.42101 -4.78815e-20)
(1.13516 0.417288 -6.19514e-19)
(1.14174 0.415034 -5.50254e-19)
(-0.0375636 0.00731857 3.07022e-19)
(-0.0654582 0.0140428 -6.26672e-19)
(-0.0605131 0.019088 6.274e-19)
(0.0210149 0.00415525 -2.01146e-19)
(0.361148 0.145001 -1.08335e-19)
(0.705148 0.273699 -3.15639e-19)
(0.92427 0.353286 4.97945e-19)
(1.04061 0.395338 3.25783e-19)
(1.09339 0.41414 -1.95388e-19)
(1.11432 0.41908 -5.58154e-19)
(1.12082 0.421737 -2.03646e-19)
(1.12553 0.416988 9.75808e-19)
(1.12754 0.419559 6.04396e-19)
(1.13317 0.413428 6.07322e-19)
(1.1392 0.411446 -1.92322e-19)
(-0.038735 0.00514894 -1.92569e-19)
(-0.0641776 0.0128568 6.91919e-20)
(-0.0556899 0.0118863 -2.6012e-19)
(0.0954138 0.0255069 -1.41664e-21)
(0.493421 0.195424 -2.01634e-19)
(0.798459 0.308794 -3.05965e-19)
(0.977684 0.374697 1.08244e-19)
(1.06646 0.406917 -6.46187e-19)
(1.10366 0.419434 5.79305e-19)
(1.11725 0.421315 7.43413e-19)
(1.12123 0.421973 9.70478e-20)
(1.1245 0.41622 -8.50143e-19)
(1.12577 0.417999 -8.39485e-19)
(1.13164 0.410356 -6.45335e-19)
(1.13619 0.40856 2.66911e-19)
(-0.0400967 0.00316978 -6.22688e-19)
(-0.0638288 0.0120433 1.70696e-19)
(-0.0402297 -0.000162243 -1.26267e-19)
(0.206503 0.077941 1.53848e-21)
(0.60825 0.23986 -4.99569e-20)
(0.874558 0.33808 -1.16923e-19)
(1.01843 0.391474 2.18217e-19)
(1.08426 0.415309 -1.26403e-19)
(1.10964 0.423054 -1.66409e-19)
(1.11813 0.422852 -3.22762e-19)
(1.12019 0.421807 -2.8744e-19)
(1.12292 0.415602 -1.33302e-19)
(1.12396 0.416696 5.21183e-19)
(1.12903 0.407259 -2.10892e-20)
(1.13252 0.405849 4.25048e-19)
(-0.0415055 0.00241981 2.58682e-19)
(-0.0647942 0.00933793 4.28455e-19)
(-0.00442441 -0.00994244 7.4745e-20)
(0.340496 0.135218 2.64241e-19)
(0.709513 0.277127 5.86798e-19)
(0.934957 0.361721 2.19277e-19)
(1.04801 0.40452 8.11087e-19)
(1.09587 0.421606 4.30639e-19)
(1.11269 0.425701 2.74727e-19)
(1.11766 0.4239 6.33572e-19)
(1.11884 0.421678 1.97428e-19)
(1.12088 0.415117 3.63942e-19)
(1.12136 0.415237 1.81817e-19)
(1.12647 0.404711 8.7394e-20)
(1.12912 0.403974 2.93077e-19)
(-0.0426975 0.00395203 3.61684e-19)
(-0.0652844 0.00417156 -6.11195e-19)
(0.0540555 -0.00114743 -1.19854e-19)
(0.46641 0.183927 2.79107e-19)
(0.79487 0.309598 -5.92351e-19)
(0.981934 0.381242 -2.44735e-19)
(1.06941 0.41472 -5.01376e-19)
(1.10321 0.426277 -1.72119e-20)
(1.11373 0.427627 -1.36552e-19)
(1.11636 0.424756 -5.33812e-19)
(1.11668 0.421472 4.08017e-19)
(1.1183 0.414705 3.11319e-20)
(1.11879 0.414029 -1.76439e-20)
(1.12331 0.402425 1.53662e-19)
(1.12478 0.402032 -3.59753e-19)
(-0.0436043 0.00762451 -2.59817e-20)
(-0.0611129 -0.0034502 2.69388e-19)
(0.13511 0.0342843 7.63993e-20)
(0.572807 0.22649 -3.94722e-19)
(0.865437 0.338148 2.63358e-19)
(1.01835 0.397315 8.5008e-20)
(1.08417 0.422659 -2.23321e-19)
(1.10721 0.429916 -1.06373e-19)
(1.11336 0.429265 -3.24727e-19)
(1.11435 0.425494 5.81623e-20)
(1.11433 0.421407 -3.95296e-19)
(1.11555 0.414487 -2.8237e-19)
(1.1156 0.412757 7.63407e-20)
(1.1199 0.4005 8.03512e-20)
(1.12086 0.400749 -1.40356e-19)
(-0.0446366 0.0110997 -1.34376e-19)
(-0.0465684 -0.0120371 -8.54536e-20)
(0.238596 0.0857863 1.82617e-19)
(0.66564 0.263319 3.40917e-19)
(0.922473 0.362151 6.64554e-20)
(1.04563 0.410534 -1.82982e-19)
(1.09413 0.429066 2.31379e-19)
(1.1091 0.432885 2.02527e-19)
(1.11207 0.430684 1.05814e-19)
(1.11197 0.426259 2.0343e-20)
(1.11149 0.421418 1.27304e-19)
(1.11228 0.414304 5.67541e-20)
(1.11235 0.411703 -4.05253e-20)
(1.11621 0.398956 -5.12635e-20)
(1.11617 0.399341 4.62828e-20)
(-0.0460955 0.0111772 -6.2555e-20)
(-0.0182802 -0.0163314 -7.34476e-20)
(0.353061 0.137126 6.02483e-20)
(0.746581 0.294939 -8.02637e-20)
(0.967653 0.382128 -1.73024e-19)
(1.0657 0.421354 1.31032e-20)
(1.1004 0.434324 1.06875e-19)
(1.1093 0.435495 -9.68405e-20)
(1.11007 0.432139 6.42927e-20)
(1.10913 0.42708 1.30047e-19)