/*--------------------------------*- C++ -*----------------------------------*\
  =========                 |
  \\      /  F ield         | OpenFOAM: The Open Source CFD Toolbox
   \\    /   O peration     | Website:  https://openfoam.org
    \\  /    A nd           | Version:  7
     \\/     M anipulation  |
\*---------------------------------------------------------------------------*/
FoamFile
{
    version     2.0;
    format      ascii;
    class       volScalarField;
    location    "0.34375";
    object      p;
}
// * * * * * * * * * * * * * * * * * * * * * * * * * * * * * * * * * * * * * //

dimensions      [0 2 -2 0 0 0 0];

internalField   nonuniform List<scalar> 
10000
(
9.49735e-09
1.61335e-05
2.64641e-05
2.20411e-05
3.30785e-06
-2.42954e-05
-5.69536e-05
-9.15743e-05
-0.000125814
-0.000157994
-0.000186863
-0.00021139
-0.000230781
-0.0002445
-0.000252192
-0.000253571
-0.000248381
-0.000236459
-0.000217769
-0.000192342
-0.000160193
-0.000121297
-7.56312e-05
-2.32298e-05
3.58087e-05
0.000101365
0.000173365
0.000251786
0.000336621
0.000427829
0.000525327
0.000628997
0.00073873
0.000854454
0.000976127
0.0011037
0.00123711
0.00137621
0.00152082
0.00167074
0.00182575
0.00198565
0.00215023
0.00231925
0.00249243
0.00266944
0.00284989
0.00303334
0.0032193
0.00340727
0.00359672
0.0037871
0.00397783
0.00416834
0.004358
0.00454616
0.00473214
0.00491523
0.0050947
0.00526982
0.00543985
0.00560407
0.00576176
0.00591226
0.00605493
0.00618917
0.00631442
0.00643017
0.006536
0.00663152
0.00671642
0.00679047
0.00685351
0.00690546
0.00694635
0.00697628
0.00699543
0.00700408
0.00700262
0.00699148
0.00697123
0.00694248
0.00690595
0.00686243
0.00681278
0.00675792
0.00669888
0.00663672
0.0065726
0.00650772
0.00644338
0.00638096
0.00632192
0.00626783
0.00622036
0.00618122
0.00615206
0.00613429
0.00612886
0.00613366
2.29271e-05
3.79797e-05
4.50273e-05
4.08241e-05
2.66295e-05
5.3583e-06
-2.01788e-05
-4.75922e-05
-7.49399e-05
-0.000100723
-0.000123732
-0.000142968
-0.000157673
-0.000167331
-0.000171552
-0.000169975
-0.000162296
-0.000148354
-0.000128102
-0.000101526
-6.85802e-05
-2.91871e-05
1.6697e-05
6.90293e-05
0.000127706
0.000192633
0.000263771
0.000341128
0.000424703
0.000514446
0.000610255
0.000712002
0.000819586
0.000932949
0.00105206
0.00117686
0.00130728
0.00144316
0.0015843
0.0017305
0.00188154
0.00203722
0.00219734
0.00236166
0.00252991
0.00270176
0.00287681
0.00305463
0.00323475
0.00341667
0.00359989
0.00378387
0.00396809
0.00415197
0.00433493
0.00451635
0.00469559
0.00487197
0.00504481
0.00521339
0.00537704
0.00553506
0.0056868
0.00583164
0.00596897
0.00609825
0.00621895
0.00633063
0.00643288
0.00652535
0.00660777
0.00667993
0.0067417
0.00679303
0.00683394
0.00686454
0.00688504
0.00689571
0.00689691
0.00688908
0.00687276
0.00684854
0.00681711
0.00677922
0.00673569
0.00668741
0.00663533
0.00658046
0.00652387
0.0064667
0.00641012
0.00635539
0.00630379
0.00625667
0.00621541
0.00618136
0.00615573
0.00613946
0.0061338
0.00613864
6.8956e-05
7.5492e-05
7.54039e-05
6.82309e-05
5.45031e-05
3.58493e-05
1.4072e-05
-9.02684e-06
-3.19409e-05
-5.33992e-05
-7.22709e-05
-8.76412e-05
-9.88533e-05
-0.000105436
-0.000106961
-0.000103014
-9.33066e-05
-7.77098e-05
-5.6174e-05
-2.86347e-05
5.01347e-06
4.48805e-05
9.09987e-05
0.000143303
0.000201692
0.000266106
0.000336545
0.000413036
0.000495578
0.000584101
0.000678481
0.000778595
0.000884363
0.000995744
0.00111271
0.00123522
0.00136315
0.00149635
0.00163461
0.00177773
0.0019255
0.00207772
0.0022342
0.00239472
0.00255899
0.00272669
0.00289741
0.00307074
0.0032462
0.00342333
0.00360162
0.00378058
0.00395968
0.00413838
0.00431613
0.00449232
0.00466633
0.00483752
0.00500522
0.00516877
0.0053275
0.00548076
0.00562793
0.00576842
0.00590165
0.00602712
0.00614434
0.00625287
0.00635235
0.00644246
0.00652293
0.00659359
0.00665432
0.00670508
0.0067459
0.00677692
0.00679832
0.00681038
0.00681345
0.00680798
0.00679448
0.00677353
0.00674578
0.00671197
0.00667288
0.00662936
0.00658231
0.0065327
0.00648152
0.00642983
0.00637873
0.00632935
0.00628285
0.00624041
0.00620319
0.00617232
0.00614882
0.00613354
0.00612806
0.00613338
0.00012545
0.000121367
0.000113735
0.000102097
8.65335e-05
6.79388e-05
4.75763e-05
2.66842e-05
6.38715e-06
-1.22349e-05
-2.82072e-05
-4.07745e-05
-4.93996e-05
-5.36215e-05
-5.29779e-05
-4.70784e-05
-3.56938e-05
-1.87297e-05
3.88749e-06
3.22764e-05
6.65816e-05
0.000106903
0.000153239
0.000205514
0.00026365
0.000327627
0.000397476
0.000473232
0.000554875
0.00064231
0.000735409
0.000834066
0.000938226
0.00104787
0.00116296
0.00128345
0.00140921
0.00154007
0.00167582
0.00181626
0.00196121
0.00211048
0.00226388
0.00242118
0.0025821
0.00274632
0.00291343
0.00308301
0.00325463
0.0034278
0.00360206
0.00377691
0.00395186
0.00412638
0.00429993
0.00447192
0.00464176
0.00480881
0.00497243
0.00513198
0.00528681
0.0054363
0.00557986
0.00571691
0.00584691
0.00596937
0.00608382
0.00618986
0.00628713
0.00637532
0.00645421
0.00652362
0.00658344
0.00663365
0.0066743
0.0067055
0.00672745
0.00674044
0.00674481
0.00674099
0.00672949
0.00671087
0.00668577
0.00665491
0.00661902
0.00657894
0.00653552
0.00648968
0.00644236
0.00639456
0.00634728
0.00630156
0.00625847
0.00621905
0.00618432
0.00615527
0.00613277
0.00611767
0.00611164
0.00611587
0.000184767
0.000170862
0.000156089
0.000139875
0.000121632
0.000101977
8.17997e-05
6.19372e-05
4.32616e-05
2.66502e-05
1.28559e-05
2.44684e-06
-4.10698e-06
-6.33358e-06
-3.79483e-06
3.81579e-06
1.66575e-05
3.48185e-05
5.84159e-05
8.76167e-05
0.000122565
0.000163314
0.000209835
0.00026206
0.000319949
0.000383523
0.000452829
0.000527891
0.000608662
0.000695032
0.000786885
0.00088414
0.000986764
0.00109475
0.00120807
0.00132664
0.00145033
0.00157896
0.00171233
0.00185027
0.00199258
0.00213911
0.00228966
0.002444
0.00260185
0.00276288
0.0029267
0.0030929
0.00326104
0.00343067
0.00360132
0.00377253
0.0039438
0.00411463
0.00428449
0.00445281
0.004619
0.00478244
0.00494252
0.0050986
0.00525006
0.0053963
0.00553674
0.00567082
0.00579803
0.00591789
0.00602995
0.00613381
0.00622915
0.00631567
0.00639314
0.0064614
0.00652036
0.00657001
0.00661038
0.00664162
0.00666391
0.00667753
0.00668284
0.00668025
0.00667026
0.00665343
0.00663038
0.00660179
0.0065684
0.00653099
0.0064904
0.00644748
0.00640313
0.00635829
0.0063139
0.00627089
0.00623023
0.00619287
0.00615972
0.00613163
0.00610936
0.00609367
0.00608601
0.00608735
0.000245735
0.000221973
0.000200301
0.00017939
0.000157987
0.000136543
0.000115655
9.59466e-05
7.81044e-05
6.27697e-05
5.04584e-05
4.1613e-05
3.66823e-05
3.61089e-05
4.02377e-05
4.92758e-05
6.33343e-05
8.25233e-05
0.000107007
0.000136964
0.000172497
0.000213613
0.000260269
0.000312424
0.000370079
0.000433282
0.000502083
0.000576479
0.000656399
0.000741733
0.000832385
0.000928303
0.00102948
0.0011359
0.00124754
0.00136431
0.00148604
0.00161258
0.00174373
0.00187933
0.00201922
0.00216323
0.00231117
0.00246282
0.0026179
0.00277606
0.00293694
0.00310012
0.00326517
0.00343167
0.00359916
0.00376719
0.00393527
0.00410292
0.00426961
0.00443478
0.00459785
0.00475823
0.0049153
0.00506845
0.00521706
0.00536056
0.00549838
0.00562997
0.00575483
0.00587249
0.00598253
0.00608455
0.00617824
0.0062633
0.00633952
0.00640676
0.00646492
0.00651398
0.00655401
0.00658513
0.00660755
0.00662153
0.00662743
0.00662567
0.00661672
0.00660115
0.00657956
0.00655262
0.00652104
0.00648558
0.00644703
0.00640623
0.00636402
0.00632129
0.00627889
0.00623772
0.00619863
0.00616245
0.00613003
0.0061021
0.00607934
0.00606239
0.00605223
0.00604942
0.000306624
0.00027323
0.000244719
0.000219043
0.000194115
0.000170287
0.00014805
0.000127861
0.000110193
9.54524e-05
8.39957e-05
7.62139e-05
7.25157e-05
7.3242e-05
7.86197e-05
8.87778e-05
0.000103817
0.000123884
0.000149159
0.000179785
0.000215809
0.000257208
0.000303944
0.00035601
0.000413445
0.000476306
0.000544625
0.000618372
0.000697462
0.000781796
0.000871304
0.000965964
0.00106578
0.00117075
0.00128083
0.00139589
0.00151581
0.0016404
0.0017695
0.00190297
0.00204065
0.00218239
0.002328
0.00247725
0.00262986
0.00278549
0.00294378
0.00310432
0.00326671
0.00343051
0.00359529
0.00376062
0.00392601
0.00409099
0.00425504
0.00441761
0.00457812
0.00473598
0.00489059
0.00504134
0.00518765
0.00532893
0.00546462
0.0055942
0.00571716
0.00583305
0.00594144
0.00604195
0.00613427
0.00621811
0.00629327
0.0063596
0.00641701
0.00646549
0.00650511
0.00653599
0.00655833
0.00657241
0.00657857
0.00657724
0.00656889
0.00655406
0.00653337
0.00650746
0.00647702
0.0064428
0.00640556
0.0063661
0.00632524
0.00628379
0.00624257
0.00620241
0.00616407
0.00612831
0.00609586
0.00606738
0.00604347
0.00602467
0.0060114
0.00600371
0.000365934
0.000323198
0.000287972
0.000257449
0.000228731
0.000202148
0.000178147
0.000156994
0.000138936
0.000124221
0.000113146
0.000106045
0.000103226
0.000104899
0.000111187
0.000122182
0.000138005
0.000158819
0.000184776
0.000215957
0.000252361
0.000293952
0.000340715
0.000392679
0.000449904
0.000512436
0.000580279
0.000653381
0.000731657
0.000815028
0.000903453
0.000996935
0.00109549
0.0011991
0.00130771
0.0014212
0.00153942
0.00166222
0.00178945
0.00192098
0.00205667
0.00219638
0.00233992
0.00248705
0.0026375
0.00279092
0.00294697
0.00310525
0.00326536
0.00342689
0.00358941
0.0037525
0.00391569
0.0040785
0.00424041
0.00440089
0.00455936
0.00471523
0.0048679
0.00501679
0.0051613
0.00530085
0.00543491
0.00556293
0.00568442
0.00579893
0.00590604
0.00600537
0.00609659
0.00617945
0.00625371
0.00631925
0.00637598
0.00642389
0.00646303
0.00649355
0.00651563
0.00652957
0.00653569
0.00653443
0.00652625
0.00651171
0.00649139
0.00646593
0.00643603
0.0064024
0.0063658
0.00632698
0.00628674
0.00624584
0.00620507
0.00616517
0.00612688
0.00609087
0.00605776
0.00602814
0.00600254
0.00598143
0.00596467
0.00595177
0.000422315
0.000370555
0.000328739
0.000293335
0.000260718
0.000231195
0.000205128
0.000182594
0.000163687
0.000148597
0.000137563
0.000130819
0.00012854
0.000130817
0.000137712
0.000149316
0.000165764
0.000187194
0.0002137
0.000245302
0.000281967
0.000323664
0.000370411
0.000422263
0.000479276
0.000541475
0.000608833
0.000681288
0.000758764
0.000841211
0.000928617
0.001021
0.00111838
0.00122073
0.00132797
0.00143999
0.00155664
0.0016778
0.00180333
0.00193312
0.00206705
0.00220497
0.00234669
0.00249198
0.00264055
0.00279209
0.00294624
0.00310261
0.00326084
0.0034205
0.00358119
0.00374249
0.00390394
0.00406505
0.00422533
0.00438421
0.00454114
0.00469553
0.00484678
0.00499429
0.0051375
0.00527581
0.00540868
0.00553559
0.00565603
0.00576955
0.00587572
0.00597418
0.00606458
0.00614666
0.00622022
0.00628509
0.0063412
0.00638854
0.00642717
0.00645722
0.00647888
0.00649245
0.00649826
0.00649674
0.00648835
0.00647365
0.00645322
0.00642771
0.00639778
0.00636416
0.00632756
0.00628875
0.00624848
0.00620748
0.0061665
0.00612623
0.00608736
0.0060505
0.0060162
0.00598497
0.00595728
0.00593354
0.00591309
0.00589493
0.000474498
0.000414078
0.000365836
0.000325634
0.000289119
0.000256533
0.000228137
0.000203888
0.000183829
0.000168098
0.000156836
0.000150144
0.000148078
0.000150651
0.000157907
0.000169945
0.000186877
0.000208782
0.000235688
0.000267567
0.000304376
0.000346107
0.000392803
0.000444526
0.000501313
0.000563158
0.000630012
0.000701813
0.000778508
0.000860073
0.000946524
0.00103789
0.00113417
0.00123534
0.00134131
0.00145197
0.00156719
0.00168686
0.00181086
0.00193911
0.00207149
0.00220785
0.002348
0.00249172
0.00263871
0.00278867
0.00294125
0.00309608
0.00325279
0.00341099
0.00357027
0.00373022
0.00389037
0.00405026
0.00420937
0.00436715
0.00452303
0.00467642
0.00482673
0.00497337
0.00511575
0.00525328
0.00538543
0.00551165
0.00563144
0.00574435
0.00584993
0.00594781
0.00603766
0.0061192
0.00619221
0.00625655
0.00631212
0.00635891
0.00639698
0.00642647
0.00644757
0.00646057
0.00646581
0.00646372
0.00645477
0.00643952
0.00641854
0.00639248
0.00636202
0.00632785
0.00629071
0.00625132
0.00621042
0.00616873
0.00612695
0.00608574
0.00604575
0.00600753
0.0059716
0.00593837
0.00590829
0.00588171
0.00585751
0.00583424
0.000521354
0.00045272
0.000398309
0.000353434
0.000313035
0.000277262
0.000246336
0.000220183
0.000198801
0.000182231
0.000170492
0.000163564
0.000161419
0.000164044
0.00017148
0.000183807
0.000201078
0.000223303
0.00025045
0.000282467
0.000319321
0.000361027
0.00040764
0.000459207
0.000515737
0.000577192
0.000643516
0.000714659
0.000790594
0.000871325
0.000956882
0.00104729
0.00114255
0.00124263
0.00134742
0.00145683
0.00157075
0.00168907
0.00181173
0.00193863
0.00206966
0.00220469
0.00234353
0.00248593
0.00263163
0.00278032
0.00293165
0.00308529
0.00324085
0.00339797
0.00355625
0.00371527
0.00387458
0.0040337
0.00419211
0.00434925
0.00450456
0.00465744
0.0048073
0.00495353
0.00509555
0.00523277
0.00536463
0.00549058
0.00561013
0.0057228
0.00582813
0.00592575
0.00601531
0.00609653
0.00616918
0.0062331
0.00628821
0.00633448
0.00637198
0.00640083
0.00642124
0.00643348
0.00643792
0.00643498
0.00642515
0.00640896
0.00638703
0.00635998
0.00632851
0.0062933
0.00625508
0.00621458
0.00617251
0.00612958
0.00608648
0.00604383
0.00600224
0.00596223
0.00592428
0.00588875
0.00585607
0.00582655
0.00579863
0.00577052
0.000561973
0.000485581
0.000425287
0.000375848
0.000331553
0.000292521
0.000258995
0.000230867
0.000208044
0.000190453
0.000177997
0.000170576
0.00016813
0.000170639
0.00017812
0.000190596
0.000208053
0.000230432
0.000257665
0.000289698
0.000326517
0.00036815
0.000414643
0.000466015
0.00052224
0.000583263
0.000649031
0.000719514
0.000794715
0.000874658
0.00095938
0.0010489
0.00114321
0.00124226
0.00134596
0.00145423
0.00156697
0.00168411
0.00180559
0.00193133
0.00206124
0.00219516
0.00233291
0.00247426
0.00261894
0.00276665
0.00291706
0.00306983
0.00322462
0.00338105
0.00353873
0.00369724
0.00385614
0.00401493
0.00417309
0.00433006
0.00448526
0.0046381
0.00478798
0.00493428
0.0050764
0.00521375
0.00534576
0.00547188
0.00559158
0.00570437
0.0058098
0.00590746
0.005997
0.00607812
0.0061506
0.00621425
0.00626898
0.00631477
0.00635168
0.00637983
0.00639943
0.00641076
0.00641419
0.00641014
0.00639911
0.00638166
0.00635839
0.00632994
0.00629701
0.0062603
0.00622053
0.00617842
0.00613469
0.00609003
0.00604512
0.00600057
0.00595696
0.00591479
0.0058745
0.00583643
0.00580099
0.00576848
0.00573697
0.00570434
0.000595553
0.000511822
0.000445888
0.000391978
0.000343827
0.000301578
0.000265481
0.000235344
0.000210965
0.000192168
0.000178785
0.000170686
0.000167795
0.00017007
0.000177474
0.000189958
0.000207437
0.000229808
0.00025699
0.000288944
0.000325666
0.000367179
0.000413504
0.000464625
0.000520489
0.000581034
0.000646223
0.000716052
0.000790548
0.000869748
0.000953686
0.00104237
0.00113579
0.00123389
0.00133659
0.00144381
0.00155551
0.00167161
0.00179209
0.00191686
0.00204583
0.00217886
0.00231576
0.00245631
0.00260024
0.00274726
0.00289706
0.00304931
0.00320367
0.00335978
0.00351726
0.00367568
0.00383458
0.00399348
0.00415184
0.00430909
0.00446465
0.00461792
0.00476828
0.0049151
0.00505779
0.00519572
0.00532832
0.00545502
0.00557527
0.00568856
0.00579442
0.00589243
0.00598223
0.00606349
0.00613598
0.00619951
0.00625396
0.00629933
0.00633565
0.00636305
0.00638174
0.00639201
0.00639423
0.00638884
0.00637634
0.0063573
0.00633233
0.0063021
0.0062673
0.00622865
0.00618687
0.0061427
0.00609685
0.00605001
0.00600285
0.00595599
0.00590998
0.00586532
0.00582243
0.00578162
0.00574331
0.0057078
0.00567286
0.0056361
0.000621328
0.000530631
0.000459273
0.00040104
0.000349171
0.000303817
0.000265185
0.000232985
0.000206927
0.000186772
0.000172324
0.00016344
0.000160018
0.000161961
0.00016916
0.000181496
0.000198836
0.000221055
0.00024808
0.000279883
0.000316455
0.000357795
0.000403889
0.000454689
0.000510129
0.000570154
0.000634748
0.000703935
0.000777755
0.000856251
0.000939446
0.00102734
0.00111992
0.00121713
0.00131891
0.0014252
0.00153598
0.0016512
0.00177082
0.0018948
0.00202304
0.00215539
0.00229166
0.00243165
0.00257509
0.00272171
0.0028712
0.00302326
0.00317754
0.00333371
0.00349136
0.00365008
0.00380941
0.00396885
0.00412784
0.00428583
0.00444221
0.00459636
0.00474766
0.00489548
0.00503919
0.00517815
0.00531178
0.00543947
0.00556067
0.00567484
0.00578149
0.00588017
0.00597051
0.00605216
0.00612486
0.00618841
0.00624271
0.00628771
0.00632345
0.00635007
0.00636777
0.00637685
0.00637769
0.00637073
0.0063565
0.00633558
0.00630859
0.00627621
0.00623916
0.00619816
0.00615396
0.00610729
0.00605889
0.00600945
0.00595963
0.00591007
0.00586131
0.00581387
0.00576813
0.00572442
0.00568317
0.00564468
0.00560649
0.00556596
0.000638588
0.000541275
0.000464753
0.000402413
0.000347
0.000298634
0.000257468
0.000223136
0.000195301
0.000173703
0.000158132
0.000148413
0.000144389
0.000145894
0.000152751
0.000164786
0.000181844
0.000203801
0.000230593
0.000262186
0.000298551
0.000339651
0.000385437
0.00043584
0.000490794
0.000550263
0.000614255
0.000682812
0.000755982
0.000833802
0.000916287
0.00100343
0.00109521
0.00119159
0.00129253
0.00139799
0.00150797
0.00162245
0.00174139
0.00186475
0.00199243
0.00212429
0.00226016
0.00239982
0.00254303
0.00268951
0.002839
0.00299118
0.00314573
0.0033023
0.00346051
0.00361994
0.0037801
0.00394049
0.00410056
0.00425972
0.00441737
0.00457287
0.00472558
0.00487485
0.00502003
0.00516049
0.00529558
0.0054247
0.00554726
0.00566269
0.00577048
0.00587017
0.00596133
0.00604362
0.00611675
0.00618051
0.00623477
0.00627948
0.00631469
0.0063405
0.00635715
0.00636494
0.00636424
0.00635552
0.00633932
0.00631623
0.0062869
0.00625204
0.00621236
0.00616863
0.0061216
0.00607203
0.00602066
0.00596822
0.00591536
0.00586274
0.00581092
0.00576041
0.00571161
0.00566486
0.0056206
0.00557916
0.00553789
0.00549395
0.000646736
0.000543161
0.000461769
0.000395532
0.000336706
0.000285371
0.000241654
0.000205154
0.000175517
0.000152469
0.000135764
0.000125171
0.000120464
0.000121412
0.000127786
0.000139387
0.000156056
0.000177677
0.000204178
0.000235504
0.000271592
0.000312369
0.00035776
0.000407691
0.000462107
0.000520994
0.00058438
0.000652319
0.000724856
0.000802019
0.000883812
0.000970228
0.00106125
0.00115685
0.00125703
0.00136177
0.00147107
0.00158493
0.00170334
0.00182623
0.00195353
0.0020851
0.00222077
0.00236032
0.00250354
0.00265016
0.00279992
0.00295254
0.00310769
0.00326502
0.00342416
0.00358467
0.00374607
0.00390783
0.0040694
0.00423018
0.00438954
0.00454685
0.00470142
0.00485261
0.00499974
0.00514214
0.00527916
0.00541014
0.00553447
0.00565157
0.00576087
0.0058619
0.0059542
0.00603741
0.0061112
0.00617535
0.00622972
0.00627424
0.00630895
0.00633397
0.00634953
0.00635592
0.00635355
0.00634289
0.00632449
0.00629898
0.00626702
0.00622934
0.0061867
0.00613986
0.00608961
0.00603675
0.00598202
0.00592618
0.00586993
0.0058139
0.0057587
0.00570486
0.0056528
0.00560286
0.00555553
0.00551117
0.00546698
0.00541995
0.000645279
0.000535789
0.000449777
0.000379799
0.000317637
0.000263365
0.000217118
0.000178484
0.000147089
0.00012262
0.000104772
9.32486e-05
8.77621e-05
8.80311e-05
9.38025e-05
0.000104873
0.000121085
0.000142315
0.000168471
0.000199462
0.000235189
0.000275549
0.000320456
0.000369846
0.000423681
0.000481968
0.000544748
0.000612072
0.000683982
0.000760493
0.000841603
0.000927307
0.0010176
0.00111249
0.00121198
0.00131608
0.00142481
0.00153818
0.00165618
0.00177877
0.00190585
0.00203729
0.00217295
0.00231261
0.00245607
0.00260309
0.00275341
0.00290676
0.00306282
0.00322127
0.00338169
0.00354365
0.00370668
0.00387022
0.00403372
0.00419655
0.00435808
0.00451764
0.00467456
0.00482813
0.00497768
0.00512249
0.00526188
0.00539517
0.00552172
0.00564088
0.0057521
0.00585482
0.00594859
0.006033
0.00610771
0.00617247
0.00622711
0.00627156
0.00630585
0.0063301
0.00634454
0.00634947
0.00634531
0.00633254
0.00631175
0.00628357
0.0062487
0.0062079
0.00616194
0.00611164
0.00605781
0.00600126
0.00594279
0.00588318
0.00582315
0.00576339
0.00570451
0.00564707
0.00559153
0.00553827
0.00548779
0.00544053
0.00539354
0.00534371
0.000633746
0.000518632
0.000428188
0.00035458
0.000289166
0.000232032
0.000183344
0.000142666
0.000109576
8.37028e-05
6.46777e-05
5.21472e-05
4.57809e-05
4.52722e-05
5.03612e-05
6.08444e-05
7.65536e-05
9.73437e-05
0.000123088
0.00015366
0.000188927
0.000228774
0.000273117
0.000321908
0.00037513
0.000432802
0.000494966
0.00056167
0.000632943
0.000708792
0.000789215
0.000874216
0.000963812
0.00105803
0.00115689
0.00126044
0.00136871
0.0014817
0.00159941
0.00172182
0.00184882
0.00198031
0.00211612
0.00225609
0.00240001
0.00254767
0.00269882
0.00285319
0.00301048
0.00317036
0.00333241
0.0034962
0.00366123
0.00382696
0.0039928
0.00415812
0.00432226
0.00448455
0.00464426
0.0048007
0.00495314
0.00510084
0.00524308
0.00537915
0.00550835
0.00563002
0.00574355
0.00584836
0.00594395
0.00602988
0.00610578
0.00617137
0.00622648
0.00627101
0.00630499
0.00632852
0.00634184
0.00634526
0.00633921
0.0063242
0.00630083
0.00626975
0.00623171
0.00618748
0.00613788
0.00608376
0.00602598
0.00596537
0.00590278
0.00583903
0.00577486
0.00571101
0.00564814
0.00558684
0.00552761
0.00547085
0.00541715
0.00536696
0.00531726
0.00526485
0.000611628
0.000491128
0.000396412
0.000319297
0.000250756
0.0001909
0.000139898
9.72652e-05
6.25166e-05
3.52236e-05
1.49661e-05
1.35183e-06
-5.97095e-06
-7.31697e-06
-2.95072e-06
6.91179e-06
2.20773e-05
4.23674e-05
6.76179e-05
9.76703e-05
0.000132375
0.000171619
0.000215331
0.00026348
0.000316061
0.000373097
0.000434628
0.000500689
0.000571299
0.000646463
0.000726186
0.000810487
0.000899406
0.00099299
0.00109129
0.00119436
0.00130224
0.00141494
0.00153248
0.00165481
0.00178186
0.00191353
0.00204967
0.00219013
0.00233472
0.00248324
0.00263546
0.00279113
0.00294995
0.00311156
0.00327558
0.00344155
0.00360897
0.00377727
0.00394586
0.0041141
0.0042813
0.00444676
0.00460976
0.00476955
0.00492536
0.00507644
0.00522202
0.00536135
0.00549367
0.0056183
0.00573457
0.00584188
0.00593966
0.00602746
0.00610486
0.00617157
0.00622736
0.00627215
0.00630594
0.00632884
0.00634107
0.00634296
0.00633496
0.00631758
0.00629145
0.00625727
0.0062158
0.00616786
0.00611431
0.00605603
0.00599392
0.00592887
0.00586178
0.0057935
0.00572483
0.00565655
0.00558937
0.00552392
0.00546075
0.00540032
0.00534326
0.0052901
0.00523774
0.00518289
0.000578418
0.000452761
0.00035395
0.00027349
0.000201993
0.000139566
8.63549e-05
4.18154e-05
5.40851e-06
-2.3339e-05
-4.48808e-05
-5.96289e-05
-6.79434e-05
-7.0148e-05
-6.65245e-05
-5.73147e-05
-4.27464e-05
-2.30358e-05
1.62166e-06
3.10501e-05
6.50985e-05
0.000103663
0.00014669
0.000194159
0.00024607
0.000302442
0.000363303
0.000428681
0.000498587
0.000573031
0.000652031
0.000735628
0.000823883
0.000916867
0.00101465
0.00111729
0.00122484
0.00133733
0.00145476
0.00157712
0.00170433
0.0018363
0.00197291
0.00211402
0.00225946
0.00240905
0.00256259
0.0027198
0.00288042
0.00304407
0.00321037
0.00337886
0.00354901
0.00372027
0.00389202
0.0040636
0.0042343
0.00440341
0.00457016
0.00473378
0.00489348
0.00504844
0.00519787
0.00534094
0.00547689
0.00560496
0.00572444
0.00583468
0.00593508
0.00602512
0.00610438
0.00617249
0.00622925
0.00627451
0.00630828
0.00633066
0.00634186
0.00634224
0.00633223
0.0063124
0.00628337
0.00624589
0.00620075
0.00614882
0.00609099
0.00602821
0.00596141
0.00589155
0.00581957
0.00574636
0.00567281
0.00559973
0.0055279
0.005458
0.00539064
0.00532632
0.00526574
0.00520951
0.00515448
0.00509728
0.000533689
0.000403111
0.000300412
0.000216794
0.000142502
7.7615e-05
2.225e-05
-2.4184e-05
-6.22651e-05
-9.24941e-05
-0.000115342
-0.000131233
-0.000140541
-0.000143609
-0.000140749
-0.00013224
-0.000118345
-9.93107e-05
-7.53506e-05
-4.6644e-05
-1.33324e-05
2.44928e-05
6.67881e-05
0.000113537
0.000164738
0.000220399
0.000280537
0.000345172
0.000414319
0.000487997
0.000566244
0.000649122
0.000736716
0.000829115
0.000926402
0.00102865
0.00113592
0.00124824
0.00136563
0.00148807
0.00161551
0.00174789
0.00188509
0.00202699
0.00217345
0.0023243
0.00247935
0.00263835
0.002801
0.00296697
0.00313585
0.00330717
0.00348041
0.003655
0.0038303
0.00400563
0.00418027
0.00435348
0.00452447
0.00469243
0.00485652
0.00501588
0.00516967
0.00531703
0.00545712
0.00558914
0.00571233
0.00582598
0.00592945
0.00602217
0.00610366
0.00617355
0.00623157
0.00627757
0.00631153
0.00633355
0.00634383
0.00634273
0.00633072
0.00630835
0.00627631
0.00623535
0.00618633
0.00613013
0.00606773
0.0060001
0.00592825
0.00585318
0.0057759
0.00569738
0.00561854
0.00554028
0.00546343
0.00538875
0.00531689
0.00524843
0.00518414
0.00512469
0.00506691
0.00500737
0.000477095
0.000341839
0.000235458
0.000148841
7.18616e-05
4.57333e-06
-5.29211e-05
-0.000101244
-0.000140998
-0.000172701
-0.000196838
-0.000213853
-0.000224145
-0.00022809
-0.000226037
-0.000218299
-0.000205171
-0.000186915
-0.000163749
-0.000135846
-0.000103336
-6.63028e-05
-2.47856e-05
2.1196e-05
7.16292e-05
0.000126511
0.000185851
0.000249669
0.000317988
0.000390845
0.000468299
0.000550433
0.000637352
0.000729161
0.000825957
0.000927822
0.00103482
0.00114699
0.00126436
0.00138693
0.00151467
0.00164751
0.00178539
0.0019282
0.00207581
0.00222809
0.00238483
0.0025458
0.00271073
0.00287925
0.00305098
0.00322543
0.00340209
0.00358035
0.00375957
0.00393907
0.00411809
0.00429587
0.00447158
0.00464437
0.00481337
0.00497767
0.00513638
0.00528857
0.00543335
0.00556988
0.00569732
0.0058149
0.00592195
0.00601782
0.00610199
0.00617405
0.0062337
0.00628075
0.00631517
0.00633703
0.00634654
0.00634406
0.00633006
0.00630514
0.00626998
0.0062254
0.00617228
0.00611157
0.00604429
0.00597147
0.00589419
0.00581352
0.00573054
0.00564627
0.00556174
0.00547789
0.00539563
0.00531579
0.0052391
0.0051662
0.00509794
0.00503508
0.0049744
0.00491244
0.000408319
0.000268606
0.00015871
6.91981e-05
-1.0407e-05
-8.00578e-05
-0.000139652
-0.000189834
-0.000231224
-0.000264359
-0.000289749
-0.000307867
-0.000319149
-0.000324009
-0.000322829
-0.000315951
-0.000303686
-0.000286302
-0.00026401
-0.000236977
-0.000205324
-0.000169134
-0.000128451
-8.33039e-05
-3.37172e-05
2.02971e-05
7.87475e-05
0.00014166
0.000209073
0.000281044
0.000357652
0.000439001
0.000525213
0.000616406
0.000712687
0.000814146
0.000920855
0.00103287
0.00115022
0.00127292
0.00140097
0.00153433
0.00167295
0.00181674
0.00196561
0.00211942
0.002278
0.00244112
0.0026085
0.0027798
0.00295461
0.00313246
0.00331282
0.00349509
0.0036786
0.00386265
0.00404648
0.00422928
0.00441019
0.00458832
0.00476277
0.00493256
0.00509675
0.00525435
0.00540442
0.00554604
0.00567831
0.00580041
0.00591158
0.00601114
0.00609851
0.00617321
0.00623491
0.0062834
0.0063186
0.00634057
0.00634952
0.0063458
0.00632989
0.00630241
0.00626409
0.00621576
0.00615836
0.0060929
0.00602044
0.0059421
0.00585902
0.00577234
0.00568322
0.00559279
0.00550211
0.00541223
0.00532414
0.00523873
0.00515683
0.00507914
0.0050066
0.00494005
0.00487627
0.00481171
0.000327016
0.000183024
6.97304e-05
-2.26037e-05
-0.000104776
-0.000176734
-0.000238369
-0.000290345
-0.000333309
-0.000367825
-0.000394438
-0.000413661
-0.000425967
-0.000431804
-0.000431579
-0.000425653
-0.000414338
-0.000397901
-0.000376548
-0.00035044
-0.000319702
-0.000284417
-0.000244643
-0.00020042
-0.000151782
-9.87429e-05
-4.1289e-05
2.06186e-05
8.7037e-05
0.000158043
0.000233737
0.00031424
0.000399687
0.000490208
0.00058592
0.000686918
0.000793285
0.000905087
0.00102238
0.00114519
0.00127354
0.00140742
0.00154679
0.00169161
0.0018418
0.00199723
0.00215775
0.00232313
0.00249311
0.00266736
0.00284546
0.00302693
0.00321127
0.00339784
0.00358598
0.00377496
0.00396399
0.00415225
0.00433884
0.00452283
0.00470325
0.00487911
0.00504937
0.005213
0.00536898
0.00551632
0.00565407
0.00578132
0.00589724
0.00600109
0.00609222
0.00617011
0.00623437
0.00628475
0.00632113
0.00634356
0.00635222
0.00634747
0.00632979
0.00629982
0.00625831
0.00620615
0.00614431
0.00607387
0.00599595
0.00591176
0.0058225
0.00572941
0.00563372
0.00553664
0.00543935
0.00534298
0.00524858
0.00515715
0.00506959
0.0049867
0.0049095
0.00483894
0.00477175
0.00470431
0.000232805
8.46766e-05
-3.19166e-05
-0.000126994
-0.00021165
-0.000285827
-0.000349415
-0.000403106
-0.000447581
-0.000483446
-0.000511284
-0.000531644
-0.000545033
-0.000551923
-0.000552736
-0.000547839
-0.000537543
-0.000522113
-0.000501756
-0.000476632
-0.000446875
-0.000412579
-0.000373814
-0.000330629
-0.000283062
-0.000231122
-0.000174785
-0.000113994
-4.86729e-05
2.12741e-05
9.59641e-05
0.000175533
0.000260128
0.000349887
0.000444935
0.000545379
0.000651311
0.000762815
0.000879963
0.00100281
0.00113141
0.00126576
0.00140588
0.00155172
0.00170323
0.00186032
0.00202282
0.00219054
0.00236322
0.00254053
0.00272208
0.0029074
0.00309591
0.00328704
0.0034801
0.00367434
0.00386897
0.00406312
0.00425585
0.00444621
0.00463316
0.00481566
0.0049926
0.0051629
0.00532547
0.00547922
0.00562313
0.00575623
0.0058776
0.00598642
0.00608199
0.0061637
0.00623112
0.00628393
0.00632199
0.0063453
0.00635403
0.00634852
0.00632927
0.00629693
0.00625227
0.00619623
0.00612984
0.00605423
0.0059706
0.00588023
0.00578442
0.00568449
0.00558177
0.00547758
0.00537317
0.00526978
0.00516856
0.0050706
0.00497689
0.00488832
0.00480602
0.00473103
0.00466004
0.00458934
0.000125302
-2.68232e-05
-0.000146605
-0.000244319
-0.00033135
-0.000407639
-0.00047309
-0.000528432
-0.000574388
-0.000611603
-0.000640696
-0.000662248
-0.000676787
-0.0006848
-0.000686719
-0.00068291
-0.000673688
-0.00065932
-0.000640016
-0.000615951
-0.000587264
-0.000554066
-0.000516435
-0.000474424
-0.000428067
-0.000377364
-0.000322274
-0.000262724
-0.000198621
-0.000129849
-5.62797e-05
2.22364e-05
0.000105854
0.000194721
0.000288971
0.000388722
0.000494083
0.000605155
0.000722035
0.000844807
0.00097354
0.00110828
0.00124906
0.00139587
0.00154866
0.00170736
0.00187184
0.00204191
0.00221733
0.00239777
0.00258285
0.00277211
0.002965
0.00316091
0.00335915
0.00355897
0.00375954
0.00395998
0.00415931
0.00435653
0.00455056
0.00474029
0.00492456
0.00510221
0.00527206
0.00543297
0.00558381
0.00572352
0.00585112
0.0059657
0.00606645
0.00615272
0.00622399
0.00627989
0.00632023
0.00634495
0.0063542
0.00634832
0.00632779
0.00629327
0.00624558
0.00618568
0.00611466
0.00603371
0.00594413
0.00584728
0.00574454
0.00563735
0.00552713
0.00541531
0.00530325