/*--------------------------------*- C++ -*----------------------------------*\
  =========                 |
  \\      /  F ield         | OpenFOAM: The Open Source CFD Toolbox
   \\    /   O peration     | Website:  https://openfoam.org
    \\  /    A nd           | Version:  7
     \\/     M anipulation  |
\*---------------------------------------------------------------------------*/
FoamFile
{
    version     2.0;
    format      ascii;
    class       surfaceScalarField;
    location    "0.34375";
    object      phi;
}
// * * * * * * * * * * * * * * * * * * * * * * * * * * * * * * * * * * * * * //

dimensions      [0 3 -1 0 0 0 0];

internalField   nonuniform List<scalar> 
19800
(
6.9934e-11
-7.00093e-11
1.56484e-10
-8.65317e-11
2.09991e-10
-5.35115e-11
1.88036e-10
2.19427e-11
7.95485e-11
1.08487e-10
-1.18907e-10
1.98456e-10
-4.04441e-10
2.85531e-10
-7.71225e-10
3.6679e-10
-1.21186e-09
4.40632e-10
-1.71852e-09
5.06678e-10
-2.28362e-09
5.65092e-10
-2.89982e-09
6.162e-10
-3.56014e-09
6.60323e-10
-4.2581e-09
6.97961e-10
-4.98786e-09
7.29769e-10
-5.74416e-09
7.56311e-10
-6.52218e-09
7.78014e-10
-7.31749e-09
7.95304e-10
-8.12611e-09
8.08619e-10
-8.94453e-09
8.1841e-10
-9.76961e-09
8.25082e-10
-1.05985e-08
8.28895e-10
-1.14286e-08
8.30048e-10
-1.22574e-08
8.28752e-10
-1.30826e-08
8.25225e-10
-1.39022e-08
8.19651e-10
-1.47144e-08
8.12161e-10
-1.55172e-08
8.0282e-10
-1.63088e-08
7.91636e-10
-1.70875e-08
7.78613e-10
-1.78512e-08
7.63784e-10
-1.85984e-08
7.4717e-10
-1.93272e-08
7.28758e-10
-2.00357e-08
7.0851e-10
-2.07221e-08
6.86365e-10
-2.13843e-08
6.62244e-10
-2.20204e-08
6.3606e-10
-2.26281e-08
6.07747e-10
-2.32054e-08
5.77266e-10
-2.37499e-08
5.44581e-10
-2.42596e-08
5.09651e-10
-2.4732e-08
4.72436e-10
-2.51649e-08
4.32899e-10
-2.5556e-08
3.91016e-10
-2.59027e-08
3.46785e-10
-2.6203e-08
3.00229e-10
-2.64544e-08
2.51405e-10
-2.66548e-08
2.00396e-10
-2.68021e-08
1.47311e-10
-2.68944e-08
9.22887e-11
-2.69299e-08
3.54877e-11
-2.6907e-08
-2.29043e-11
-2.68243e-08
-8.26711e-11
-2.66807e-08
-1.43574e-10
-2.64754e-08
-2.05339e-10
-2.62077e-08
-2.67662e-10
-2.58775e-08
-3.30211e-10
-2.54849e-08
-3.92628e-10
-2.50303e-08
-4.5453e-10
-2.45148e-08
-5.1551e-10
-2.39397e-08
-5.75147e-10
-2.33067e-08
-6.33008e-10
-2.2618e-08
-6.88655e-10
-2.18763e-08
-7.41653e-10
-2.10848e-08
-7.91562e-10
-2.02468e-08
-8.37949e-10
-1.93664e-08
-8.80398e-10
-1.84479e-08
-9.18507e-10
-1.7496e-08
-9.51896e-10
-1.65158e-08
-9.80217e-10
-1.55126e-08
-1.00315e-09
-1.44922e-08
-1.02042e-09
-1.34604e-08
-1.03179e-09
-1.24233e-08
-1.03708e-09
-1.13872e-08
-1.03614e-09
-1.03583e-08
-1.02888e-09
-9.34307e-09
-1.01527e-09
-8.34774e-09
-9.95332e-10
-7.37861e-09
-9.69133e-10
-6.44181e-09
-9.36795e-10
-5.54331e-09
-8.98495e-10
-4.68885e-09
-8.54457e-10
-3.88389e-09
-8.04957e-10
-3.13356e-09
-7.50317e-10
-2.44265e-09
-6.90906e-10
-1.81551e-09
-6.27139e-10
-1.25604e-09
-5.59478e-10
-7.67602e-10
-4.88442e-10
-3.5298e-10
-4.14626e-10
-1.42657e-11
-3.38721e-10
2.47289e-10
-2.6156e-10
4.31441e-10
-1.8415e-10
5.39292e-10
-1.07844e-10
5.73807e-10
-3.45111e-11
5.40661e-10
3.31441e-11
4.49635e-10
9.10258e-11
3.16728e-10
1.32908e-10
1.67732e-10
1.48994e-10
4.42171e-11
1.2351e-10
4.42105e-11
1.15432e-10
-1.85428e-10
2.08342e-10
-1.79471e-10
1.71915e-10
-1.70724e-11
-4.45439e-11
2.384e-10
-4.73301e-10
5.37242e-10
-1.12393e-09
8.49096e-10
-1.9937e-09
1.15531e-09
-3.07188e-09
1.44495e-09
-4.34326e-09
1.71203e-09
-5.79063e-09
1.95403e-09
-7.39586e-09
2.17032e-09
-9.14084e-09
2.36119e-09
-1.10081e-08
2.52757e-09
-1.29811e-08
2.67096e-09
-1.50444e-08
2.79305e-09
-1.71836e-08
2.89551e-09
-1.93855e-08
2.97995e-09
-2.16381e-08
3.04789e-09
-2.39304e-08
3.10085e-09
-2.62522e-08
3.14028e-09
-2.85946e-08
3.16743e-09
-3.0949e-08
3.18335e-09
-3.33079e-08
3.18893e-09
-3.56641e-08
3.18499e-09
-3.80111e-08
3.17222e-09
-4.03427e-08
3.15123e-09
-4.2653e-08
3.12246e-09
-4.49364e-08
3.08622e-09
-4.71874e-08
3.0427e-09
-4.94008e-08
2.99199e-09
-5.15712e-08
2.93419e-09
-5.36933e-08
2.86929e-09
-5.57618e-08
2.79723e-09
-5.77712e-08
2.71789e-09
-5.97159e-08
2.63111e-09
-6.15903e-08
2.53669e-09
-6.33887e-08
2.4344e-09
-6.5105e-08
2.32406e-09
-6.67332e-08
2.20547e-09
-6.82671e-08
2.07846e-09
-6.97003e-08
1.94289e-09
-7.10266e-08
1.79866e-09
-7.22393e-08
1.64568e-09
-7.33323e-08
1.48395e-09
-7.4299e-08
1.31351e-09
-7.51333e-08
1.1345e-09
-7.5829e-08
9.47136e-10
-7.63803e-08
7.51735e-10
-7.67817e-08
5.48704e-10
-7.7028e-08
3.38555e-10
-7.71144e-08
1.21908e-10
-7.70368e-08
-1.00521e-10
-7.67916e-08
-3.27902e-10
-7.63758e-08
-5.59296e-10
-7.57875e-08
-7.93663e-10
-7.50253e-08
-1.02986e-09
-7.40889e-08
-1.26663e-09
-7.29789e-08
-1.50266e-09
-7.16969e-08
-1.73651e-09
-7.02457e-08
-1.9667e-09
-6.86292e-08
-2.19167e-09
-6.68523e-08
-2.40983e-09
-6.49214e-08
-2.61956e-09
-6.28439e-08
-2.81924e-09
-6.06282e-08
-3.00726e-09
-5.82841e-08
-3.18202e-09
-5.58225e-08
-3.34198e-09
-5.32553e-08
-3.48566e-09
-5.05955e-08
-3.61169e-09
-4.7857e-08
-3.71875e-09
-4.50545e-08
-3.80569e-09
-4.22034e-08
-3.8715e-09
-3.93199e-08
-3.9153e-09
-3.64206e-08
-3.9364e-09
-3.35224e-08
-3.93429e-09
-3.06427e-08
-3.90864e-09
-2.77986e-08
-3.85933e-09
-2.50075e-08
-3.78642e-09
-2.22865e-08
-3.69017e-09
-1.96522e-08
-3.57105e-09
-1.7121e-08
-3.42971e-09
-1.47084e-08
-3.26702e-09
-1.24294e-08
-3.08401e-09
-1.02977e-08
-2.88193e-09
-8.32646e-09
-2.6622e-09
-6.52717e-09
-2.42643e-09
-4.91018e-09
-2.17648e-09
-3.48421e-09
-1.91442e-09
-2.25618e-09
-1.64267e-09
-1.23088e-09
-1.36403e-09
-4.10582e-10
-1.08185e-09
2.0557e-10
-8.00291e-10
6.22378e-10
-5.24646e-10
8.49763e-10
-2.61899e-10
9.04499e-10
-2.15935e-11
8.1254e-10
1.82989e-10
6.12247e-10
3.33198e-10
3.58048e-10
4.03182e-10
1.22777e-10
3.5877e-10
1.66986e-10
6.4042e-11
-2.49475e-10
4.45687e-11
-1.59981e-10
-1.88143e-10
2.15634e-10
-6.97397e-10
7.47668e-10
-1.519e-09
1.35884e-09
-2.6661e-09
1.99621e-09
-4.13604e-09
2.62524e-09
-5.91558e-09
3.2245e-09
-7.98522e-09
3.78167e-09
-1.03216e-08
4.29036e-09
-1.28993e-08
4.74804e-09
-1.56926e-08
5.15449e-09
-1.86761e-08
5.51108e-09
-2.18253e-08
5.82021e-09
-2.51171e-08
6.08479e-09
-2.85295e-08
6.30793e-09
-3.20423e-08
6.49277e-09
-3.56368e-08
6.64238e-09
-3.92957e-08
6.75976e-09
-4.30032e-08
6.84773e-09
-4.67446e-08
6.9088e-09
-5.05065e-08
6.94519e-09
-5.42764e-08
6.95884e-09
-5.80428e-08
6.95144e-09
-6.1795e-08
6.92444e-09
-6.55228e-08
6.87905e-09
-6.92166e-08
6.81622e-09
-7.2867e-08
6.73664e-09
-7.64651e-08
6.64078e-09
-8.0002e-08
6.52895e-09
-8.34691e-08
6.40132e-09
-8.68578e-08
6.25789e-09
-9.01591e-08
6.09856e-09
-9.33643e-08
5.92313e-09
-9.64645e-08
5.73128e-09
-9.94505e-08
5.52266e-09
-1.02313e-07
5.29689e-09
-1.05042e-07
5.05358e-09
-1.07629e-07
4.79236e-09
-1.10064e-07
4.51293e-09
-1.12336e-07
4.215e-09
-1.14436e-07
3.8984e-09
-1.16353e-07
3.56303e-09
-1.18078e-07
3.20893e-09
-1.19601e-07
2.83627e-09
-1.20912e-07
2.44538e-09
-1.22001e-07
2.03678e-09
-1.22861e-07
1.61117e-09
-1.23481e-07
1.16946e-09
-1.23856e-07
7.12775e-10
-1.23976e-07
2.42463e-10
-1.23837e-07
-2.39906e-10
-1.23432e-07
-7.32537e-10
-1.22758e-07
-1.2334e-09
-1.21812e-07
-1.74025e-09
-1.20591e-07
-2.25062e-09
-1.19096e-07
-2.76185e-09
-1.17327e-07
-3.27108e-09
-1.15288e-07
-3.77529e-09
-1.12984e-07
-4.27131e-09
-1.1042e-07
-4.75584e-09
-1.07604e-07
-5.22551e-09
-1.04547e-07
-5.6769e-09
-1.01259e-07
-6.10655e-09
-9.77554e-08
-6.51105e-09
-9.40504e-08
-6.88703e-09
-9.01612e-08
-7.23123e-09
-8.61063e-08
-7.54053e-09
-8.1906e-08
-7.812e-09
-7.75818e-08
-8.04292e-09
-7.31567e-08
-8.23083e-09
-6.86546e-08
-8.37359e-09
-6.41005e-08
-8.46937e-09
-5.95202e-08
-8.5167e-09
-5.494e-08
-8.51452e-09
-5.03865e-08
-8.46211e-09
-4.58866e-08
-8.35922e-09
-4.1467e-08
-8.206e-09
-3.71542e-08
-8.003e-09
-3.2974e-08
-7.75124e-09
-2.89516e-08
-7.45214e-09
-2.5111e-08
-7.10756e-09
-2.14752e-08
-6.71977e-09
-1.80657e-08
-6.29146e-09
-1.49021e-08
-5.82576e-09
-1.20023e-08
-5.32626e-09
-9.38177e-09
-4.79702e-09
-7.05347e-09
-4.24273e-09
-5.02742e-09
-3.66872e-09
-3.31018e-09
-3.08126e-09
-1.90424e-09
-2.48779e-09
-8.07174e-10
-1.89735e-09
-1.05581e-11
-1.32126e-09
5.0152e-10
-7.73976e-10
7.54288e-10
-2.74358e-10
7.84697e-10
1.52578e-10
6.44281e-10
4.73607e-10
4.02166e-10
6.45291e-10
1.47632e-10
6.13298e-10
3.14617e-10
-1.42543e-11
-2.35234e-10
-2.20999e-10
4.67672e-11
-7.2902e-10
7.23669e-10
-1.60084e-09
1.61947e-09
-2.87065e-09
2.62867e-09
-4.55094e-09
3.67649e-09
-6.63799e-09
4.7123e-09
-9.11666e-09
5.70317e-09
-1.19642e-08
6.62917e-09
-1.51529e-08
7.47912e-09
-1.86526e-08
8.24771e-09
-2.24318e-08
8.93368e-09
-2.64591e-08
9.53844e-09
-3.0704e-08
1.00651e-08
-3.5137e-08
1.05178e-08
-3.97302e-08
1.09011e-08
-4.44574e-08
1.12199e-08
-4.92942e-08
1.14791e-08
-5.42178e-08
1.16834e-08
-5.92073e-08
1.18373e-08
-6.42432e-08
1.19447e-08
-6.93073e-08
1.20093e-08
-7.43829e-08
1.20344e-08
-7.94542e-08
1.20228e-08
-8.45066e-08
1.19768e-08
-8.95262e-08
1.18986e-08
-9.44996e-08
1.17896e-08
-9.94141e-08
1.16511e-08
-1.04257e-07
1.1484e-08
-1.09017e-07
1.12887e-08
-1.13681e-07
1.10657e-08
-1.18238e-07
1.08149e-08
-1.22676e-07
1.05363e-08
-1.26983e-07
1.02296e-08
-1.31146e-07
9.89427e-09
-1.35153e-07
9.52982e-09
-1.38992e-07
9.13567e-09
-1.42649e-07
8.71126e-09
-1.46113e-07
8.25602e-09
-1.4937e-07
7.76948e-09
-1.52406e-07
7.25127e-09
-1.55209e-07
6.70115e-09
-1.57765e-07
6.11903e-09
-1.60061e-07
5.50506e-09
-1.62084e-07
4.85959e-09
-1.63822e-07
4.18329e-09
-1.65262e-07
3.47708e-09
-1.66393e-07
2.74222e-09
-1.67204e-07
1.98033e-09
-1.67685e-07
1.19337e-09
-1.67826e-07
3.83653e-10
-1.6762e-07
-4.46093e-10
-1.67059e-07
-1.29278e-09
-1.6614e-07
-2.15293e-09
-1.64858e-07
-3.02271e-09
-1.6321e-07
-3.89791e-09
-1.61198e-07
-4.774e-09
-1.58823e-07
-5.64614e-09
-1.56089e-07
-6.50919e-09
-1.53003e-07
-7.35779e-09
-1.49572e-07
-8.18639e-09
-1.45808e-07
-8.98928e-09
-1.41725e-07
-9.76068e-09
-1.37336e-07
-1.04948e-08
-1.32661e-07
-1.11859e-08
-1.2772e-07
-1.18282e-08
-1.22535e-07
-1.24164e-08
-1.17131e-07
-1.29451e-08
-1.11533e-07
-1.34094e-08
-1.05771e-07
-1.38048e-08
-9.98749e-08
-1.41272e-08
-9.38756e-08
-1.43729e-08
-8.78061e-08
-1.45389e-08
-8.17e-08
-1.46227e-08
-7.55919e-08
-1.46226e-08
-6.95167e-08
-1.45373e-08
-6.35095e-08
-1.43665e-08
-5.76051e-08
-1.41103e-08
-5.18382e-08
-1.37699e-08
-4.62426e-08
-1.33468e-08
-4.08511e-08
-1.28437e-08
-3.56952e-08
-1.22635e-08
-3.08045e-08
-1.16104e-08
-2.62071e-08
-1.08889e-08
-2.19284e-08
-1.01045e-08
-1.79912e-08
-9.26339e-09
-1.44155e-08
-8.37273e-09
-1.12176e-08
-7.44064e-09
-8.40989e-09
-6.47647e-09
-6.00008e-09
-5.49107e-09
-3.99063e-09
-4.49723e-09
-2.37768e-09
-3.5103e-09
-1.14992e-09
-2.54903e-09
-2.87107e-10
-1.63678e-09
2.41644e-10
-8.03111e-10
4.79964e-10
-8.57489e-11
4.86624e-10
4.66945e-10
3.38193e-10
7.9372e-10
1.32531e-10
8.18954e-10
4.47145e-10
-1.07733e-10
-1.27504e-10
-5.35028e-10
4.74061e-10
-1.36328e-09
1.55191e-09
-2.64199e-09
2.8982e-09
-4.39758e-09
4.38425e-09
-6.63776e-09
5.91668e-09
-9.35542e-09
7.42997e-09
-1.25327e-08
8.88041e-09
-1.61437e-08
1.02402e-08
-2.01575e-08
1.14929e-08
-2.45399e-08
1.26301e-08
-2.92553e-08
1.36491e-08
-3.42676e-08
1.45508e-08
-3.95416e-08
1.5339e-08
-4.50427e-08
1.60189e-08
-5.07382e-08
1.65966e-08
-5.65969e-08
1.70787e-08
-6.25897e-08
1.74719e-08
-6.86892e-08
1.77829e-08
-7.48698e-08
1.80178e-08
-8.11076e-08
1.81825e-08
-8.73805e-08
1.82822e-08
-9.36676e-08
1.83216e-08
-9.99495e-08
1.83047e-08
-1.06208e-07
1.82352e-08
-1.12425e-07
1.81159e-08
-1.18585e-07
1.79492e-08
-1.2467e-07
1.77369e-08
-1.30667e-07
1.74803e-08
-1.36558e-07
1.71804e-08
-1.4233e-07
1.68376e-08
-1.47968e-07
1.64522e-08
-1.53455e-07
1.60239e-08
-1.58778e-07
1.55524e-08
-1.63921e-07
1.50372e-08
-1.68869e-07
1.44775e-08
-1.73605e-07
1.38725e-08
-1.78116e-07
1.32216e-08
-1.82384e-07
1.25239e-08
-1.86393e-07
1.17789e-08
-1.90128e-07
1.09861e-08
-1.93572e-07
1.01452e-08
-1.96709e-07
9.25623e-09
-1.99524e-07
8.31949e-09
-2.02e-07
7.33564e-09
-2.04122e-07
6.30572e-09
-2.05876e-07
5.23126e-09
-2.07248e-07
4.11421e-09
-2.08225e-07
2.95707e-09
-2.08794e-07
1.76285e-09
-2.08946e-07
5.35112e-10
-2.0867e-07
-7.22031e-10
-2.07959e-07
-2.00389e-09
-2.06807e-07
-3.30522e-09
-2.05209e-07
-4.62024e-09
-2.03164e-07
-5.94264e-09
-2.00673e-07
-7.26561e-09
-1.97737e-07
-8.58189e-09
-1.94362e-07
-9.88383e-09
-1.90557e-07
-1.11634e-08
-1.86331e-07
-1.24123e-08
-1.81698e-07
-1.36221e-08
-1.76674e-07
-1.47842e-08
-1.71279e-07
-1.58899e-08
-1.65534e-07
-1.69307e-08
-1.59465e-07
-1.78981e-08
-1.53097e-07
-1.87841e-08
-1.46461e-07
-1.95808e-08
-1.3959e-07
-2.02809e-08
-1.32517e-07
-2.08777e-08
-1.25279e-07
-2.13651e-08
-1.17914e-07
-2.17378e-08
-1.10462e-07
-2.19912e-08
-1.02963e-07
-2.21217e-08
-9.54587e-08
-2.21266e-08
-8.79918e-08
-2.20042e-08
-8.06044e-08
-2.17539e-08
-7.33385e-08
-2.13762e-08
-6.62359e-08
-2.08725e-08
-5.93372e-08
-2.02455e-08
-5.26819e-08
-1.9499e-08
-4.63078e-08
-1.86376e-08
-4.02506e-08
-1.76676e-08
-3.45437e-08
-1.65958e-08
-2.92175e-08
-1.54307e-08
-2.42992e-08
-1.41817e-08
-1.98121e-08
-1.28598e-08
-1.57755e-08
-1.14772e-08
-1.22036e-08
-1.00484e-08
-9.10518e-09
-8.58953e-09
-6.48254e-09
-7.11988e-09
-4.33081e-09
-5.66203e-09
-2.63669e-09
-4.24315e-09
-1.37716e-09
-2.89631e-09
-5.18007e-10
-1.66227e-09
-1.21101e-11
-5.91652e-10
2.02503e-10
2.5233e-10
2.04897e-10
7.91325e-10
9.45883e-11
9.29258e-10
5.41731e-10
-2.03695e-10
7.61955e-11
-8.66764e-10
1.13714e-09
-2.03794e-09
2.72311e-09
-3.74818e-09
4.60843e-09
-6.01142e-09
6.64751e-09
-8.82731e-09
8.73257e-09
-1.21832e-08
1.07859e-08
-1.6057e-08
1.27542e-08
-2.04192e-08
1.46025e-08
-2.52357e-08
1.63094e-08
-3.04689e-08
1.78633e-08
-3.60797e-08
1.92598e-08
-4.20284e-08
2.04995e-08
-4.82757e-08
2.15863e-08
-5.47832e-08
2.25264e-08
-6.1514e-08
2.33274e-08
-6.8433e-08
2.39977e-08
-7.5507e-08
2.45459e-08
-8.27046e-08
2.49804e-08
-8.99963e-08
2.53095e-08
-9.73545e-08
2.55407e-08
-1.04753e-07
2.5681e-08
-1.12168e-07
2.57365e-08
-1.19576e-07
2.5713e-08
-1.26956e-07
2.5615e-08
-1.34287e-07
2.54466e-08
-1.41549e-07
2.52109e-08
-1.48722e-07
2.49105e-08
-1.55789e-07
2.45473e-08
-1.62732e-07
2.41225e-08
-1.69531e-07
2.36368e-08
-1.76169e-07
2.30906e-08
-1.82629e-07
2.24838e-08
-1.88893e-07
2.18159e-08
-1.94942e-07
2.10863e-08
-2.00758e-07
2.02941e-08
-2.06324e-07
1.94383e-08
-2.1162e-07
1.8518e-08
-2.16629e-07
1.75324e-08
-2.21331e-07
1.64807e-08
-2.25707e-07
1.53623e-08
-2.29739e-07
1.41771e-08
-2.33408e-07
1.29252e-08
-2.36696e-07
1.16071e-08
-2.39584e-07
1.02238e-08
-2.42055e-07
8.77699e-09
-2.44092e-07
7.26877e-09
-2.4568e-07
5.70204e-09
-2.46804e-07
4.08032e-09
-2.47449e-07
2.40787e-09
-2.47603e-07
6.89716e-10
-2.47257e-07
-1.06837e-09
-2.46401e-07
-2.85985e-09
-2.45029e-07
-4.67742e-09
-2.43136e-07
-6.51302e-09
-2.40721e-07
-8.35789e-09
-2.37784e-07
-1.02026e-08
-2.34328e-07
-1.20372e-08
-2.30361e-07
-1.38509e-08
-2.25892e-07
-1.56329e-08
-2.20933e-07
-1.73715e-08
-2.15499e-07
-1.90553e-08
-2.09611e-07
-2.06723e-08
-2.03291e-07
-2.22106e-08
-1.96563e-07
-2.36585e-08
-1.89456e-07
-2.50045e-08
-1.82003e-07
-2.62373e-08
-1.74238e-07
-2.73464e-08
-1.66197e-07
-2.83216e-08
-1.57921e-07
-2.91537e-08
-1.49451e-07
-2.98345e-08
-1.40833e-07
-3.03565e-08
-1.3211e-07
-3.07136e-08
-1.23331e-07
-3.09008e-08
-1.14543e-07
-3.09145e-08
-1.05795e-07
-3.07523e-08
-9.71355e-08
-3.04136e-08
-8.86129e-08
-2.98989e-08
-8.0275e-08
-2.92104e-08
-7.21688e-08
-2.83517e-08
-6.43396e-08
-2.73282e-08
-5.68306e-08
-2.61467e-08
-4.96827e-08
-2.48154e-08
-4.29341e-08
-2.33444e-08
-3.66194e-08
-2.17454e-08
-3.07695e-08
-2.00317e-08
-2.54107e-08
-1.82185e-08
-2.05646e-08
-1.63233e-08
-1.62472e-08
-1.43658e-08
-1.2468e-08
-1.23687e-08
-9.22953e-09
-1.03583e-08
-6.52639e-09
-8.36517e-09
-4.34416e-09
-6.42538e-09
-2.65838e-09
-4.5821e-09
-1.43334e-09
-2.88732e-09
-6.20759e-10
-1.40424e-09
-1.58426e-10
-2.10006e-10
3.14948e-11
6.01404e-10
4.47996e-11
9.15952e-10
5.86534e-10
-2.97797e-10
3.73991e-10
-1.19922e-09
2.03858e-09
-2.72111e-09
4.24499e-09
-4.87276e-09
6.76009e-09
-7.6531e-09
9.42786e-09
-1.1051e-08
1.21304e-08
-1.50463e-08
1.47812e-08
-1.96113e-08
1.73192e-08
-2.47125e-08
1.97036e-08
-3.03117e-08
2.19087e-08
-3.63683e-08
2.39199e-08
-4.28399e-08
2.57314e-08
-4.96835e-08
2.73431e-08
-5.68566e-08
2.87594e-08
-6.43176e-08
2.99874e-08
-7.20262e-08
3.1036e-08
-7.99439e-08
3.19154e-08
-8.8034e-08
3.2636e-08
-9.62617e-08
3.32082e-08
-1.04594e-07
3.36421e-08
-1.13001e-07
3.39472e-08
-1.21452e-07
3.41322e-08
-1.2992e-07
3.4205e-08
-1.3838e-07
3.41727e-08
-1.46806e-07
3.40412e-08
-1.55175e-07
3.38155e-08
-1.63464e-07
3.34999e-08
-1.71651e-07
3.30976e-08
-1.79715e-07
3.26111e-08
-1.87635e-07
3.20421e-08
-1.95389e-07
3.13915e-08
-2.02959e-07
3.066e-08
-2.10322e-07
2.98473e-08
-2.17459e-07
2.89531e-08
-2.2435e-07
2.79765e-08
-2.30972e-07
2.69167e-08
-2.37306e-07
2.57724e-08
-2.43331e-07
2.45426e-08
-2.49025e-07
2.32263e-08
-2.54367e-07
2.18226e-08
-2.59335e-07
2.03311e-08
-2.6391e-07
1.87515e-08
-2.68069e-07
1.70842e-08
-2.71792e-07
1.53301e-08
-2.75059e-07
1.34906e-08
-2.77849e-07
1.15679e-08
-2.80146e-07
9.56513e-09
-2.8193e-07
7.48609e-09
-2.83185e-07
5.33555e-09
-2.83896e-07
3.1192e-09
-2.8405e-07
8.43707e-10
-2.83636e-07
-1.48326e-09
-2.82642e-07
-3.85305e-09
-2.81064e-07
-6.25603e-09
-2.78895e-07
-8.68161e-09
-2.76135e-07
-1.11183e-08
-2.72784e-07
-1.35537e-08
-2.68846e-07
-1.59746e-08
-2.6433e-07
-1.83673e-08
-2.59246e-07
-2.07172e-08
-2.53608e-07
-2.30094e-08
-2.47434e-07
-2.52287e-08
-2.40747e-07
-2.73597e-08
-2.33571e-07
-2.93868e-08
-2.25935e-07
-3.12947e-08
-2.17871e-07
-3.30685e-08
-2.09414e-07
-3.46935e-08
-2.00605e-07
-3.61559e-08
-1.91484e-07
-3.74427e-08
-1.82096e-07
-3.85418e-08
-1.72488e-07
-3.94423e-08
-1.62709e-07
-4.01349e-08
-1.52812e-07
-4.06114e-08
-1.42847e-07
-4.08655e-08
-1.32869e-07
-4.08924e-08
-1.22932e-07
-4.06892e-08
-1.13091e-07
-4.0255e-08
-1.03399e-07
-3.95906e-08
-9.39103e-08
-3.86989e-08
-8.4677e-08
-3.7585e-08
-7.57495e-08
-3.62557e-08
-6.7176e-08
-3.47202e-08
-5.9002e-08
-3.29894e-08
-5.12696e-08
-3.10768e-08
-4.40174e-08
-2.89977e-08
-3.72793e-08
-2.67698e-08
-3.10844e-08
-2.44133e-08
-2.54565e-08
-2.19512e-08
-2.04128e-08
-1.94095e-08
-1.5964e-08
-1.68176e-08
-1.2113e-08
-1.42093e-08
-8.85434e-09
-1.16238e-08
-6.17329e-09
-9.10643e-09
-4.04507e-09
-6.71033e-09
-2.43387e-09
-4.49852e-09
-1.29205e-09
-2.54606e-09
-5.59233e-10
-9.42824e-10
-1.61438e-10
2.0361e-10
-1.00018e-11
7.64519e-10
5.76538e-10
-3.87904e-10
7.619e-10
-1.52367e-09
3.17433e-09
-3.39437e-09
6.1157e-09
-5.98705e-09
9.35278e-09
-9.28413e-09
1.27249e-08
-1.32623e-08
1.61086e-08
-1.78924e-08
1.94113e-08
-2.314e-08
2.25668e-08
-2.89662e-08
2.55299e-08
-3.53291e-08
2.82715e-08
-4.21841e-08
3.07749e-08
-4.94858e-08
3.30331e-08
-5.71883e-08
3.50456e-08
-6.52461e-08
3.68172e-08
-7.36147e-08
3.8356e-08
-8.2251e-08
3.96723e-08
-9.11136e-08
4.0778e-08
-1.00163e-07
4.16852e-08
-1.09361e-07
4.24065e-08
-1.18673e-07
4.29537e-08
-1.28064e-07
4.33383e-08
-1.37503e-07
4.35709e-08
-1.46959e-07
4.3661e-08
-1.56403e-07
4.36172e-08
-1.65809e-07
4.34466e-08
-1.75149e-07
4.31557e-08
-1.84398e-07
4.27495e-08
-1.93533e-07
4.2232e-08
-2.02528e-07
4.16063e-08
-2.1136e-07
4.08747e-08
-2.20007e-07
4.00384e-08
-2.28445e-07
3.90981e-08
-2.36652e-07
3.80538e-08
-2.44604e-07
3.6905e-08
-2.52278e-07
3.5651e-08
-2.59652e-07
3.42905e-08
-2.66702e-07
3.28223e-08
-2.73405e-07
3.12453e-08
-2.79737e-07
2.95582e-08
-2.85674e-07
2.77604e-08
-2.91194e-07
2.58511e-08
-2.96273e-07
2.38304e-08
-3.00888e-07
2.16988e-08
-3.05015e-07
1.94576e-08
-3.08634e-07
1.71089e-08
-3.11721e-07
1.46556e-08
-3.14258e-07
1.21017e-08
-3.16224e-07
9.4521e-09
-3.17601e-07
6.71302e-09
-3.18374e-07
3.89174e-09
-3.18527e-07
9.96782e-10
-3.18048e-07
-1.96212e-09
-3.16927e-07
-4.97398e-09
-3.15157e-07
-8.02658e-09
-3.12732e-07
-1.11065e-08
-3.09651e-07
-1.41993e-08
-3.05915e-07
-1.72893e-08
-3.0153e-07
-2.03599e-08
-2.96503e-07
-2.33937e-08
-2.90848e-07
-2.63725e-08
-2.8458e-07
-2.92776e-08
-2.77719e-07
-3.20898e-08
-2.70289e-07
-3.47897e-08
-2.62318e-07
-3.7358e-08
-2.53837e-07
-3.97753e-08
-2.44883e-07
-4.20229e-08
-2.35494e-07
-4.40826e-08
-2.25713e-07
-4.59369e-08
-2.15586e-07
-4.75695e-08
-2.05162e-07
-4.89655e-08
-1.94493e-07
-5.01112e-08
-1.83633e-07
-5.09948e-08
-1.72639e-07
-5.16062e-08
-1.61567e-07
-5.19375e-08
-1.50476e-07
-5.19828e-08
-1.39427e-07
-5.17385e-08
-1.28479e-07
-5.12034e-08
-1.17691e-07
-5.03788e-08
-1.07121e-07
-4.92685e-08
-9.68271e-08
-4.78789e-08
-8.68641e-08
-4.62187e-08
-7.72847e-08
-4.42996e-08
-6.81384e-08
-4.21357e-08
-5.94712e-08
-3.9744e-08
-5.13248e-08
-3.7144e-08
-4.37363e-08
-3.43583e-08
-3.67372e-08
-3.14125e-08
-3.0353e-08
-2.83354e-08
-2.46027e-08
-2.51598e-08
-1.94979e-08
-2.19224e-08
-1.50422e-08
-1.8665e-08
-1.12307e-08
-1.54354e-08
-8.04891e-09
-1.22882e-08
-5.47264e-09
-9.28661e-09
-3.46706e-09
-6.5041e-09
-1.98638e-09
-4.02673e-09
-9.73498e-10
-1.95571e-09
-3.59846e-10
-4.1004e-10
-6.55125e-11
4.70193e-10
5.11029e-10
-4.73501e-10
1.2354e-09
-1.83588e-09
4.53672e-09
-4.04736e-09
8.32718e-09
-7.07363e-09
1.2379e-08
-1.08802e-08
1.65315e-08
-1.54307e-08
2.06591e-08
-2.0686e-08
2.46666e-08
-2.66041e-08
2.84848e-08
-3.314e-08
3.20658e-08
-4.0247e-08
3.53785e-08
-4.78768e-08
3.84048e-08
-5.59807e-08
4.11369e-08
-6.45097e-08
4.35746e-08
-7.34156e-08
4.57232e-08
-8.26515e-08
4.75918e-08
-9.21715e-08
4.91923e-08
-1.01932e-07
5.05382e-08
-1.1189e-07
5.16436e-08
-1.22006e-07
5.25228e-08
-1.32243e-07
5.31899e-08
-1.42562e-07
5.36581e-08
-1.52931e-07
5.39398e-08
-1.63316e-07
5.40463e-08
-1.73687e-07
5.39875e-08
-1.84012e-07
5.37722e-08
-1.94265e-07
5.34078e-08
-2.04415e-07
5.29004e-08
-2.14438e-07
5.22549e-08
-2.24307e-07
5.1475e-08
-2.33996e-07
5.05633e-08
-2.43479e-07
4.95215e-08
-2.52731e-07
4.83505e-08
-2.61728e-07
4.70504e-08
-2.70443e-07
4.56206e-08
-2.78853e-07
4.40604e-08
-2.86931e-07
4.23683e-08
-2.94652e-07
4.05433e-08
-3.0199e-07
3.85837e-08
-3.08921e-07
3.64886e-08
-3.15417e-07
3.42569e-08
-3.21454e-07
3.18883e-08
-3.27007e-07
2.93829e-08
-3.32049e-07
2.67414e-08
-3.36558e-07
2.39657e-08
-3.40507e-07
2.10584e-08
-3.43875e-07
1.80233e-08
-3.46638e-07
1.48654e-08
-3.48777e-07
1.1591e-08
-3.50272e-07
8.20775e-09
-3.51105e-07
4.72463e-09
-3.5126e-07
1.1522e-09
-3.50725e-07
-2.4975e-09
-3.49488e-07
-6.21096e-09
-3.47541e-07
-9.97319e-09
-3.4488e-07
-1.37677e-08
-3.41503e-07
-1.75768e-08
-3.37411e-07
-2.13813e-08
-3.3261e-07
-2.51608e-08
-3.27109e-07
-2.88942e-08
-3.20922e-07
-3.25592e-08
-3.14067e-07
-3.6133e-08
-3.06565e-07
-3.95921e-08
-2.98441e-07
-4.29129e-08
-2.89728e-07
-4.60719e-08
-2.80458e-07
-4.90454e-08
-2.7067e-07
-5.18106e-08
-2.60407e-07
-5.43454e-08
-2.49715e-07
-5.66284e-08
-2.38645e-07
-5.864e-08
-2.27249e-07
-6.03617e-08
-2.15583e-07
-6.17772e-08
-2.03706e-07
-6.28719e-08
-1.91678e-07
-6.36337e-08
-1.79563e-07
-6.4053e-08
-1.67423e-07
-6.41225e-08
-1.55323e-07
-6.38381e-08
-1.43328e-07
-6.31984e-08
-1.31502e-07
-6.22051e-08
-1.19908e-07
-6.08628e-08
-1.08607e-07
-5.91795e-08
-9.76594e-08
-5.71662e-08
-8.71217e-08
-5.48373e-08
-7.70473e-08
-5.22102e-08
-6.74857e-08
-4.93057e-08
-5.84816e-08
-4.61481e-08
-5.00748e-08
-4.27651e-08
-4.22992e-08
-3.91881e-08
-3.51823e-08
-3.54523e-08
-2.87446e-08
-3.15975e-08
-2.29989e-08
-2.7668e-08
-1.79499e-08
-2.37141e-08
-1.35932e-08
-1.9792e-08
-9.91563e-09
-1.59658e-08
-6.89391e-09
-1.23083e-08
-4.49499e-09
-8.90303e-09
-2.6757e-09
-5.84602e-09
-1.383e-09
-3.24841e-09
-5.54423e-10
-1.23861e-09
-1.19092e-10
3.48674e-11
3.91937e-10
-5.54395e-10
1.78982e-09
-2.13375e-09
6.11606e-09
-4.67461e-09
1.0868e-08
-8.12252e-09
1.5827e-08
-1.24265e-08
2.08355e-08
-1.7537e-08
2.57695e-08
-2.34041e-08
3.05338e-08
-2.99775e-08
3.50583e-08
-3.72059e-08
3.92942e-08
-4.50371e-08
4.32097e-08
-5.34187e-08
4.67864e-08
-6.22984e-08
5.00166e-08
-7.16243e-08
5.29005e-08
-8.13455e-08
5.54444e-08
-9.14123e-08
5.76587e-08
-1.01777e-07
5.95569e-08
-1.12393e-07
6.11543e-08
-1.23216e-07
6.24669e-08
-1.34204e-07
6.35109e-08
-1.45317e-07
6.43025e-08
-1.56516e-07
6.48568e-08
-1.67764e-07
6.5188e-08
-1.79027e-07
6.53091e-08
-1.90271e-07
6.52316e-08
-2.01464e-07
6.49655e-08
-2.12576e-07
6.45196e-08
-2.23576e-07
6.39008e-08
-2.34436e-07
6.31149e-08
-2.45128e-07
6.21663e-08
-2.55623e-07
6.10581e-08
-2.65893e-07
5.97924e-08
-2.75913e-07
5.83701e-08
-2.85654e-07
5.67914e-08
-2.95089e-07
5.5056e-08
-3.04192e-07
5.31628e-08
-3.12934e-07
5.11105e-08
-3.21288e-07
4.88976e-08
-3.29227e-07
4.65228e-08
-3.36724e-07
4.39848e-08
-3.43749e-07
4.12826e-08
-3.50277e-07
3.84159e-08
-3.56279e-07
3.5385e-08
-3.61729e-07
3.21912e-08
-3.666e-07
2.88366e-08
-3.70866e-07
2.53247e-08
-3.74503e-07
2.16602e-08
-3.77486e-07
1.78491e-08
-3.79794e-07
1.38991e-08
-3.81406e-07
9.81948e-09
-3.82303e-07
5.6212e-09
-3.82467e-07
1.31694e-09
-3.81886e-07
-3.07884e-09
-3.80547e-07
-7.54989e-09
-3.78442e-07
-1.20782e-08
-3.75566e-07
-1.66442e-08
-3.71916e-07
-2.12264e-08
-3.67495e-07
-2.5802e-08
-3.62309e-07
-3.03468e-08
-3.56368e-07
-3.48354e-08
-3.49686e-07
-3.92411e-08
-3.42283e-07
-4.35368e-08
-3.3418e-07
-4.76945e-08
-3.25407e-07
-5.1686e-08
-3.15996e-07
-5.54832e-08
-3.05983e-07
-5.90581e-08
-2.9541e-07
-6.23833e-08
-2.84323e-07
-6.54324e-08
-2.72772e-07
-6.81802e-08
-2.60809e-07
-7.0603e-08
-2.48491e-07
-7.26791e-08
-2.3588e-07
-7.43887e-08
-2.23037e-07
-7.57148e-08
-2.10028e-07
-7.66429e-08
-1.96919e-07
-7.71614e-08
-1.8378e-07
-7.72619e-08
-1.70678e-07
-7.69396e-08
-1.57684e-07
-7.61927e-08
-1.44866e-07
-7.50235e-08
-1.32291e-07
-7.34377e-08
-1.20025e-07
-7.14449e-08
-1.08133e-07
-6.90585e-08
-9.66745e-08
-6.62957e-08
-8.57069e-08
-6.31777e-08
-7.5283e-08
-5.97296e-08
-6.54506e-08
-5.59805e-08
-5.62522e-08
-5.19635e-08
-4.7724e-08
-4.77163e-08
-3.98953e-08
-4.32809e-08
-3.27884e-08
-3.87044e-08
-2.64175e-08
-3.4039e-08
-2.07884e-08
-2.93432e-08
-1.5898e-08
-2.46824e-08
-1.17344e-08
-2.01295e-08
-8.2758e-09
-1.57669e-08
-5.49136e-09
-1.16875e-08
-3.34092e-09
-7.99647e-09
-1.77569e-09
-4.81364e-09
-7.39273e-10
-2.27503e-09
-1.69198e-10
-5.35203e-10
2.22741e-10
-6.30561e-10
2.42037e-09
-2.41654e-09
7.90204e-09
-5.27358e-09
1.37251e-08
-9.12864e-09
1.9682e-08
-1.39149e-08
2.56218e-08
-1.95697e-08
3.14243e-08
-2.60323e-08
3.69964e-08
-3.32438e-08
4.22697e-08
-4.11458e-08
4.71962e-08
-4.96806e-08
5.17445e-08
-5.87913e-08
5.58971e-08
-6.84217e-08
5.9647e-08
-7.85167e-08
6.29956e-08
-8.90229e-08
6.59505e-08
-9.98881e-08
6.85239e-08
-1.11062e-07
7.07309e-08
-1.22497e-07
7.25888e-08
-1.34145e-07
7.41156e-08
-1.45964e-07
7.53296e-08
-1.5791e-07
7.62489e-08
-1.69944e-07
7.68906e-08
-1.82027e-07
7.72708e-08
-1.94122e-07
7.74041e-08
-2.06194e-07
7.73035e-08
-2.18209e-07
7.69806e-08
-2.30135e-07
7.64451e-08
-2.41939e-07
7.57051e-08
-2.53591e-07
7.47671e-08
-2.65061e-07
7.36363e-08
-2.76319e-07
7.23161e-08
-2.87336e-07
7.08091e-08
-2.98082e-07
6.91163e-08
-3.08529e-07
6.72381e-08
-3.18647e-07
6.5174e-08
-3.28407e-07
6.29231e-08
-3.3778e-07
6.04839e-08
-3.46737e-07
5.78548e-08
-3.55249e-07
5.50342e-08
-3.63285e-07
5.2021e-08
-3.70817e-07
4.88142e-08
-3.77814e-07
4.54134e-08
-3.84249e-07
4.18194e-08
-3.90091e-07
3.80337e-08
-3.95314e-07
3.40591e-08
-3.99889e-07
2.98996e-08
-4.03789e-07
2.5561e-08
-4.06991e-07
2.10506e-08
-4.0947e-07
1.63775e-08
-4.11203e-07
1.15527e-08
-4.12171e-07
6.58916e-09
-4.12356e-07
1.50182e-09
-4.11742e-07
-3.69223e-09
-4.10318e-07
-8.97389e-09
-4.08075e-07
-1.4322e-08
-4.05005e-07
-1.97133e-08
-4.01109e-07
-2.51229e-08
-3.96387e-07
-3.0524e-08
-3.90846e-07
-3.5888e-08
-3.84496e-07
-4.11851e-08
-3.77353e-07
-4.63842e-08
-3.69436e-07
-5.14534e-08
-3.60771e-07
-5.63599e-08
-3.51386e-07
-6.10707e-08
-3.41317e-07
-6.55527e-08
-3.30602e-07
-6.97732e-08
-3.19285e-07
-7.37001e-08
-3.07415e-07
-7.73025e-08
-2.95044e-07
-8.05508e-08
-2.8223e-07
-8.34172e-08
-2.69033e-07
-8.58763e-08
-2.55517e-07
-8.7905e-08
-2.41748e-07
-8.94833e-08
-2.27797e-07
-9.05941e-08
-2.13734e-07
-9.1224e-08
-1.99633e-07
-9.13634e-08
-1.85566e-07
-9.10063e-08
-1.71608e-07
-9.0151e-08
-1.57831e-07
-8.88002e-08
-1.44308e-07
-8.69608e-08
-1.31109e-07
-8.46442e-08
-1.18301e-07
-8.18661e-08
-1.0595e-07
-7.86472e-08
-9.41151e-08
-7.50124e-08
-8.28533e-08
-7.09914e-08
-7.22154e-08
-6.66184e-08
-6.22463e-08
-6.19325e-08
-5.29848e-08
-5.69779e-08
-4.44622e-08
-5.18035e-08
-3.67026e-08
-4.6464e-08
-2.97217e-08
-4.10199e-08
-2.35267e-08
-3.55382e-08
-1.81162e-08
-3.00929e-08
-1.34794e-08
-2.47663e-08
-9.5966e-09
-1.96497e-08
-6.43913e-09
-1.4845e-08
-3.96987e-09
-1.04657e-08
-2.14412e-09
-6.63938e-09
-9.10929e-10
-3.50822e-09
-2.14967e-10
-1.23116e-09
7.77842e-12
-7.02175e-10
3.12255e-09
-2.68442e-09
9.88428e-09
-5.8437e-09
1.68844e-08
-1.009e-08
2.39282e-08
-1.53415e-08
3.08734e-08
-2.15228e-08
3.76056e-08
-2.85628e-08
4.40364e-08
-3.63934e-08
5.01003e-08
-4.49491e-08
5.57519e-08
-5.41664e-08
6.09618e-08
-6.39834e-08
6.57141e-08
-7.43401e-08
7.00037e-08
-8.51782e-08
7.38336e-08
-9.64412e-08
7.72135e-08
-1.08075e-07
8.01573e-08
-1.20026e-07
8.26824e-08
-1.32245e-07
8.48081e-08
-1.44684e-07
8.65545e-08
-1.57297e-07
8.79423e-08
-1.70039e-07
8.89913e-08
-1.8287e-07
8.97208e-08
-1.95747e-07
9.01486e-08
-2.08634e-07
9.02912e-08
-2.21494e-07
9.01631e-08
-2.34291e-07
8.97771e-08
-2.4699e-07
8.91442e-08
-2.59558e-07
8.82736e-08
-2.71964e-07
8.71726e-08
-2.84174e-07
8.58468e-08
-2.96159e-07
8.43004e-08
-3.07886e-07
8.2536e-08
-3.19324e-07
8.05551e-08
-3.30444e-07
7.8358e-08
-3.41214e-07
7.59442e-08
-3.51604e-07
7.33128e-08
-3.61582e-07
7.04621e-08
-3.71118e-07
6.73904e-08
-3.8018e-07
6.40962e-08
-3.88737e-07
6.05781e-08
-3.96758e-07
5.68351e-08
-4.04212e-07
5.28672e-08
-4.11067e-07
4.86751e-08
-4.17294e-07
4.42608e-08
-4.22863e-07
3.96277e-08
-4.27744e-07
3.47808e-08
-4.3191e-07
2.97266e-08
-4.35333e-07
2.44738e-08
-4.37988e-07
1.90329e-08
-4.39853e-07
1.34169e-08
-4.40904e-07
7.64067e-09
-4.41124e-07
1.72172e-09
-4.40496e-07
-4.32022e-09
-4.39007e-07
-1.0463e-08
-4.36647e-07
-1.66821e-08
-4.33409e-07
-2.29508e-08
-4.29292e-07
-2.924e-08
-4.24297e-07
-3.55189e-08
-4.18431e-07
-4.17544e-08
-4.11704e-07
-4.79122e-08
-4.04132e-07
-5.39562e-08
-3.95736e-07
-5.98495e-08
-3.86541e-07
-6.55543e-08
-3.76579e-07
-7.10324e-08
-3.65886e-07
-7.62456e-08
-3.54503e-07
-8.1156e-08
-3.42477e-07
-8.57266e-08
-3.29858e-07
-8.99215e-08
-3.16702e-07