/*--------------------------------*- C++ -*----------------------------------*\
  =========                 |
  \\      /  F ield         | OpenFOAM: The Open Source CFD Toolbox
   \\    /   O peration     | Website:  https://openfoam.org
    \\  /    A nd           | Version:  7
     \\/     M anipulation  |
\*---------------------------------------------------------------------------*/
FoamFile
{
    version     2.0;
    format      ascii;
    class       volVectorField;
    location    "0.34375";
    object      U;
}
// * * * * * * * * * * * * * * * * * * * * * * * * * * * * * * * * * * * * * //

dimensions      [0 1 -1 0 0 0 0];

internalField   nonuniform List<vector> 
10000
(
(5.21494e-06 -1.98101e-06 0)
(1.21003e-05 -3.31494e-06 0)
(2.02802e-05 -3.39184e-06 0)
(2.13987e-05 -1.10058e-06 0)
(1.5266e-05 1.73878e-06 0)
(-4.68405e-08 4.72765e-06 0)
(-2.43002e-05 7.60274e-06 0)
(-5.70234e-05 1.0241e-05 0)
(-9.75371e-05 1.25849e-05 0)
(-0.000145071 1.46356e-05 0)
(-0.000198827 1.64208e-05 0)
(-0.000258047 1.7967e-05 0)
(-0.000322018 1.92847e-05 0)
(-0.000390075 2.03874e-05 0)
(-0.000461597 2.13031e-05 0)
(-0.00053602 2.20592e-05 0)
(-0.00061284 2.26727e-05 0)
(-0.000691602 2.31544e-05 0)
(-0.00077189 2.35144e-05 0)
(-0.000853328 2.37688e-05 0)
(-0.00093558 2.39365e-05 0)
(-0.00101834 2.40284e-05 0)
(-0.00110135 2.40481e-05 0)
(-0.00118435 2.39987e-05 0)
(-0.0012671 2.38854e-05 0)
(-0.0013494 2.37153e-05 0)
(-0.00143104 2.34951e-05 0)
(-0.00151184 2.32279e-05 0)
(-0.0015916 2.29122e-05 0)
(-0.00167015 2.25461e-05 0)
(-0.00174732 2.21294e-05 0)
(-0.00182291 2.16624e-05 0)
(-0.00189676 2.11453e-05 0)
(-0.00196867 2.05775e-05 0)
(-0.00203846 1.99575e-05 0)
(-0.00210594 1.92824e-05 0)
(-0.0021709 1.85479e-05 0)
(-0.00223314 1.77508e-05 0)
(-0.00229244 1.68893e-05 0)
(-0.00234859 1.59621e-05 0)
(-0.00240136 1.49678e-05 0)
(-0.00245052 1.39052e-05 0)
(-0.00249584 1.27731e-05 0)
(-0.00253709 1.15704e-05 0)
(-0.00257403 1.02963e-05 0)
(-0.00260644 8.9508e-06 0)
(-0.00263407 7.53485e-06 0)
(-0.00265671 6.05043e-06 0)
(-0.00267414 4.50051e-06 0)
(-0.00268617 2.88923e-06 0)
(-0.0026926 1.22144e-06 0)
(-0.00269326 -4.97157e-07 0)
(-0.00268801 -2.25996e-06 0)
(-0.00267672 -4.05987e-06 0)
(-0.00265929 -5.88879e-06 0)
(-0.00263565 -7.73758e-06 0)
(-0.00260575 -9.59634e-06 0)
(-0.0025696 -1.14543e-05 0)
(-0.00252722 -1.32998e-05 0)
(-0.00247869 -1.51204e-05 0)
(-0.00242412 -1.69029e-05 0)
(-0.00236367 -1.86338e-05 0)
(-0.00229753 -2.02995e-05 0)
(-0.00222594 -2.18865e-05 0)
(-0.0021492 -2.33815e-05 0)
(-0.00206764 -2.47709e-05 0)
(-0.00198163 -2.60419e-05 0)
(-0.00189157 -2.71818e-05 0)
(-0.00179794 -2.81787e-05 0)
(-0.00170121 -2.90217e-05 0)
(-0.00160191 -2.97008e-05 0)
(-0.00150059 -3.02072e-05 0)
(-0.00139784 -3.05337e-05 0)
(-0.00129425 -3.06745e-05 0)
(-0.00119044 -3.06256e-05 0)
(-0.00108704 -3.0384e-05 0)
(-0.000984683 -2.99487e-05 0)
(-0.000884004 -2.93203e-05 0)
(-0.000785635 -2.8501e-05 0)
(-0.000690195 -2.74944e-05 0)
(-0.000598292 -2.63058e-05 0)
(-0.000510512 -2.49421e-05 0)
(-0.000427415 -2.34112e-05 0)
(-0.000349534 -2.17228e-05 0)
(-0.000277365 -1.98874e-05 0)
(-0.000211366 -1.79165e-05 0)
(-0.000151951 -1.58226e-05 0)
(-9.94855e-05 -1.36195e-05 0)
(-5.42784e-05 -1.1323e-05 0)
(-1.65759e-05 -8.95095e-06 0)
(1.34493e-05 -6.52466e-06 0)
(3.57161e-05 -4.06992e-06 0)
(5.02591e-05 -1.62448e-06 0)
(5.72665e-05 7.55192e-07 0)
(5.71501e-05 2.97947e-06 0)
(5.06519e-05 4.901e-06 0)
(3.89915e-05 6.26988e-06 0)
(2.41591e-05 6.64648e-06 0)
(9.81127e-06 5.29245e-06 0)
(1.67389e-06 1.71076e-06 0)
(7.8946e-06 -1.3025e-05 0)
(1.91968e-05 -1.41808e-05 0)
(2.27745e-05 -6.97162e-06 0)
(1.11312e-05 6.91347e-06 0)
(-2.07126e-05 2.33403e-05 0)
(-7.4585e-05 4.05279e-05 0)
(-0.000150753 5.72913e-05 0)
(-0.000248439 7.30244e-05 0)
(-0.000366288 8.73993e-05 0)
(-0.000502648 0.000100316 0)
(-0.000655712 0.00011178 0)
(-0.000823639 0.000121836 0)
(-0.00100465 0.000130547 0)
(-0.00119706 0.000138004 0)
(-0.00139924 0.000144317 0)
(-0.0016097 0.000149592 0)
(-0.00182706 0.000153917 0)
(-0.00205006 0.000157376 0)
(-0.00227756 0.000160051 0)
(-0.00250852 0.000162025 0)
(-0.00274194 0.000163372 0)
(-0.00297697 0.000164147 0)
(-0.00321281 0.000164397 0)
(-0.00344874 0.000164162 0)
(-0.00368406 0.000163481 0)
(-0.00391814 0.000162385 0)
(-0.00415039 0.0001609 0)
(-0.00438021 0.000159043 0)
(-0.00460706 0.000156821 0)
(-0.00483041 0.000154235 0)
(-0.00504973 0.00015129 0)
(-0.00526449 0.000147987 0)
(-0.00547416 0.000144321 0)
(-0.00567819 0.000140286 0)
(-0.00587603 0.000135873 0)
(-0.00606713 0.000131068 0)
(-0.00625091 0.000125858 0)
(-0.00642679 0.00012023 0)
(-0.00659417 0.000114174 0)
(-0.00675243 0.000107682 0)
(-0.00690094 0.000100743 0)
(-0.00703907 9.33526e-05 0)
(-0.00716618 8.55042e-05 0)
(-0.00728162 7.71954e-05 0)
(-0.00738475 6.84276e-05 0)
(-0.00747495 5.92063e-05 0)
(-0.0075516 4.95418e-05 0)
(-0.00761409 3.94497e-05 0)
(-0.00766186 2.89509e-05 0)
(-0.00769436 1.8072e-05 0)
(-0.00771111 6.84494e-06 0)
(-0.00771164 -4.69303e-06 0)
(-0.00769558 -1.64989e-05 0)
(-0.00766259 -2.85242e-05 0)
(-0.00761242 -4.07148e-05 0)
(-0.00754491 -5.30107e-05 0)
(-0.00745998 -6.53465e-05 0)
(-0.00735763 -7.76522e-05 0)
(-0.00723797 -8.98528e-05 0)
(-0.00710123 -0.000101869 0)
(-0.00694774 -0.000113618 0)
(-0.00677793 -0.000125017 0)
(-0.00659238 -0.000135978 0)
(-0.00639176 -0.000146416 0)
(-0.00617687 -0.000156246 0)
(-0.00594863 -0.000165383 0)
(-0.00570807 -0.000173744 0)
(-0.00545633 -0.000181251 0)
(-0.00519465 -0.000187831 0)
(-0.00492439 -0.000193414 0)
(-0.00464696 -0.000197939 0)
(-0.0043639 -0.00020135 0)
(-0.00407677 -0.000203603 0)
(-0.00378722 -0.000204659 0)
(-0.00349693 -0.000204493 0)
(-0.00320761 -0.000203086 0)
(-0.00292099 -0.000200432 0)
(-0.00263882 -0.000196534 0)
(-0.0023628 -0.000191407 0)
(-0.00209463 -0.000185073 0)
(-0.00183597 -0.000177568 0)
(-0.0015884 -0.000168936 0)
(-0.00135347 -0.000159231 0)
(-0.00113261 -0.000148518 0)
(-0.000927163 -0.000136869 0)
(-0.000738366 -0.000124367 0)
(-0.000567321 -0.000111104 0)
(-0.000414983 -9.71864e-05 0)
(-0.000282142 -8.27332e-05 0)
(-0.000169391 -6.7885e-05 0)
(-7.7096e-05 -5.28101e-05 0)
(-5.34409e-06 -3.77172e-05 0)
(4.61233e-05 -2.28808e-05 0)
(7.80085e-05 -8.67406e-06 0)
(9.16046e-05 4.37231e-06 0)
(8.89947e-05 1.54837e-05 0)
(7.32718e-05 2.35162e-05 0)
(4.886e-05 2.67767e-05 0)
(2.27799e-05 2.2876e-05 0)
(5.19347e-06 9.79961e-06 0)
(5.2744e-06 -2.22532e-05 0)
(9.80254e-06 -2.04143e-05 0)
(-9.56519e-07 4.30083e-06 0)
(-3.69675e-05 4.1178e-05 0)
(-0.000102949 8.4155e-05 0)
(-0.000201294 0.000129071 0)
(-0.000332354 0.000173313 0)
(-0.000495214 0.000215315 0)
(-0.000688204 0.000254197 0)
(-0.000909104 0.00028954 0)
(-0.00115542 0.000321216 0)
(-0.00142459 0.000349243 0)
(-0.00171404 0.000373737 0)
(-0.00202128 0.00039489 0)
(-0.00234388 0.000412936 0)
(-0.0026796 0.000428111 0)
(-0.00302633 0.000440645 0)
(-0.00338214 0.000450755 0)
(-0.00374523 0.000458653 0)
(-0.00411394 0.000464548 0)
(-0.00448672 0.000468621 0)
(-0.0048622 0.000471028 0)
(-0.00523908 0.000471901 0)
(-0.00561617 0.000471356 0)
(-0.00599237 0.000469495 0)
(-0.00636663 0.000466402 0)
(-0.00673794 0.000462146 0)
(-0.00710537 0.000456774 0)
(-0.00746801 0.000450314 0)
(-0.00782498 0.000442786 0)
(-0.0081754 0.000434197 0)
(-0.00851841 0.00042455 0)
(-0.00885313 0.000413835 0)
(-0.00917868 0.000402038 0)
(-0.00949417 0.000389135 0)
(-0.0097987 0.000375099 0)
(-0.0100914 0.0003599 0)
(-0.0103712 0.00034351 0)
(-0.0106373 0.000325901 0)
(-0.0108886 0.00030705 0)
(-0.0111241 0.000286937 0)
(-0.011343 0.000265547 0)
(-0.0115441 0.00024287 0)
(-0.0117264 0.000218908 0)
(-0.0118891 0.000193668 0)
(-0.012031 0.000167173 0)
(-0.0121512 0.000139455 0)
(-0.0122489 0.00011056 0)
(-0.0123231 8.05492e-05 0)
(-0.0123731 4.9499e-05 0)
(-0.012398 1.75005e-05 0)
(-0.0123972 -1.53397e-05 0)
(-0.0123701 -4.88992e-05 0)
(-0.0123162 -8.30395e-05 0)
(-0.0122352 -0.000117607 0)
(-0.0121269 -0.000152434 0)
(-0.0119911 -0.000187336 0)
(-0.0118279 -0.000222118 0)
(-0.0116374 -0.000256572 0)
(-0.0114201 -0.000290478 0)
(-0.0111765 -0.00032361 0)
(-0.0109073 -0.000355734 0)
(-0.0106134 -0.000386614 0)
(-0.0102958 -0.000416012 0)
(-0.0099559 -0.000443691 0)
(-0.00959506 -0.000469418 0)
(-0.00921491 -0.000492968 0)
(-0.00881723 -0.000514125 0)
(-0.00840395 -0.000532685 0)
(-0.00797718 -0.00054846 0)
(-0.00753913 -0.00056128 0)
(-0.00709217 -0.000570996 0)
(-0.00663873 -0.000577481 0)
(-0.00618137 -0.000580634 0)
(-0.00572269 -0.00058038 0)
(-0.00526535 -0.000576671 0)
(-0.00481202 -0.000569487 0)
(-0.00436539 -0.00055884 0)
(-0.00392812 -0.000544767 0)
(-0.00350284 -0.000527337 0)
(-0.0030921 -0.000506647 0)
(-0.00269837 -0.000482824 0)
(-0.00232401 -0.000456021 0)
(-0.00197123 -0.000426422 0)
(-0.00164212 -0.000394238 0)
(-0.00133854 -0.000359709 0)
(-0.00106217 -0.000323112 0)
(-0.00081444 -0.000284757 0)
(-0.000596518 -0.000245005 0)
(-0.000409241 -0.000204277 0)
(-0.000253079 -0.000163075 0)
(-0.000128059 -0.000122018 0)
(-3.3669e-05 -8.18886e-05 0)
(3.12658e-05 -4.37091e-05 0)
(6.87541e-05 -8.84843e-06 0)
(8.1855e-05 2.08279e-05 0)
(7.48709e-05 4.27742e-05 0)
(5.358e-05 5.3577e-05 0)
(2.66082e-05 4.88789e-05 0)
(6.51173e-06 2.39934e-05 0)
(2.19036e-06 -2.63552e-05 0)
(-5.20547e-06 -1.05683e-05 0)
(-3.90084e-05 3.96415e-05 0)
(-0.000106939 0.000108869 0)
(-0.000213519 0.000187802 0)
(-0.000360944 0.000270038 0)
(-0.000549554 0.00035134 0)
(-0.000778324 0.000428967 0)
(-0.00104527 0.000501322 0)
(-0.0013478 0.000567554 0)
(-0.00168297 0.000627286 0)
(-0.00204768 0.000680444 0)
(-0.00243879 0.000727175 0)
(-0.00285315 0.000767764 0)
(-0.00328775 0.00080257 0)
(-0.00373971 0.000831978 0)
(-0.00420635 0.000856378 0)
(-0.00468514 0.000876162 0)
(-0.00517372 0.000891715 0)
(-0.00566988 0.000903397 0)
(-0.00617161 0.000911531 0)
(-0.00667703 0.000916402 0)
(-0.00718442 0.000918263 0)
(-0.00769214 0.000917332 0)
(-0.0081987 0.000913801 0)
(-0.00870264 0.000907827 0)
(-0.0092026 0.000899534 0)
(-0.00969731 0.000889011 0)
(-0.0101855 0.000876325 0)
(-0.0106659 0.000861516 0)
(-0.0111374 0.000844605 0)
(-0.0115988 0.000825598 0)
(-0.0120489 0.000804482 0)
(-0.0124864 0.000781231 0)
(-0.0129102 0.000755808 0)
(-0.013319 0.000728168 0)
(-0.0137116 0.000698263 0)
(-0.0140867 0.000666046 0)
(-0.0144431 0.00063147 0)
(-0.0147794 0.000594496 0)
(-0.0150944 0.000555092 0)
(-0.0153867 0.000513235 0)
(-0.015655 0.000468915 0)
(-0.0158979 0.00042214 0)
(-0.0161142 0.000372935 0)
(-0.0163025 0.000321345 0)
(-0.0164617 0.00026744 0)
(-0.0165906 0.000211314 0)
(-0.0166879 0.000153089 0)
(-0.0167528 9.29124e-05 0)
(-0.0167841 3.0963e-05 0)
(-0.016781 -3.25525e-05 0)
(-0.0167428 -9.73974e-05 0)
(-0.0166689 -0.000163305 0)
(-0.0165589 -0.000229981 0)
(-0.0164124 -0.0002971 0)
(-0.0162294 -0.000364315 0)
(-0.01601 -0.000431251 0)
(-0.0157544 -0.000497512 0)
(-0.0154632 -0.000562683 0)
(-0.0151371 -0.000626334 0)
(-0.0147771 -0.000688024 0)
(-0.0143844 -0.000747305 0)
(-0.0139604 -0.000803728 0)
(-0.0135067 -0.000856844 0)
(-0.0130254 -0.000906216 0)
(-0.0125185 -0.000951418 0)
(-0.0119884 -0.000992042 0)
(-0.0114376 -0.00102771 0)
(-0.0108689 -0.00105805 0)
(-0.0102853 -0.00108277 0)
(-0.00968969 -0.00110157 0)
(-0.00908542 -0.00111422 0)
(-0.0084758 -0.00112052 0)
(-0.00786424 -0.00112034 0)
(-0.0072542 -0.00111359 0)
(-0.00664921 -0.00110022 0)
(-0.00605277 -0.00108027 0)
(-0.00546836 -0.0010538 0)
(-0.00489941 -0.00102095 0)
(-0.00434926 -0.000981902 0)
(-0.00382112 -0.000936905 0)
(-0.00331808 -0.000886256 0)
(-0.00284302 -0.000830313 0)
(-0.00239861 -0.000769487 0)
(-0.00198728 -0.000704253 0)
(-0.00161119 -0.000635153 0)
(-0.00127215 -0.000562805 0)
(-0.000971619 -0.000487921 0)
(-0.000710612 -0.00041133 0)
(-0.000489663 -0.000334015 0)
(-0.000308726 -0.000257167 0)
(-0.000167073 -0.000182259 0)
(-6.31678e-05 -0.000111154 0)
(5.50025e-06 -4.62488e-05 0)
(4.261e-05 9.33045e-06 0)
(5.31753e-05 5.15029e-05 0)
(4.37294e-05 7.50317e-05 0)
(2.36076e-05 7.34129e-05 0)
(6.14791e-06 3.86843e-05 0)
(-1.28184e-06 -2.03178e-05 0)
(-2.29455e-05 2.04508e-05 0)
(-8.3968e-05 0.000105602 0)
(-0.000188623 0.000215503 0)
(-0.000339988 0.000338325 0)
(-0.00053978 0.00046557 0)
(-0.000787996 0.000591357 0)
(-0.00108331 0.000711843 0)
(-0.00142344 0.000824644 0)
(-0.00180548 0.00092838 0)
(-0.00222615 0.00102236 0)
(-0.00268194 0.00110639 0)
(-0.00316922 0.00118059 0)
(-0.00368441 0.00124533 0)
(-0.00422398 0.00130107 0)
(-0.0047846 0.00134834 0)
(-0.00536306 0.00138771 0)
(-0.00595635 0.00141977 0)
(-0.00656163 0.00144507 0)
(-0.00717624 0.00146416 0)
(-0.00779772 0.00147752 0)
(-0.00842379 0.00148558 0)
(-0.00905229 0.00148874 0)
(-0.00968122 0.00148735 0)
(-0.0103087 0.00148169 0)
(-0.0109329 0.00147202 0)
(-0.0115521 0.00145852 0)
(-0.0121648 0.00144135 0)
(-0.0127693 0.0014206 0)
(-0.0133641 0.00139636 0)
(-0.0139476 0.00136866 0)
(-0.0145185 0.00133752 0)
(-0.0150751 0.00130291 0)
(-0.015616 0.00126481 0)
(-0.0161396 0.00122317 0)
(-0.0166445 0.00117791 0)
(-0.0171291 0.00112899 0)
(-0.0175919 0.00107632 0)
(-0.0180312 0.00101984 0)
(-0.0184455 0.000959502 0)
(-0.0188331 0.00089526 0)
(-0.0191924 0.000827088 0)
(-0.0195219 0.00075498 0)
(-0.0198199 0.000678956 0)
(-0.0200848 0.000599066 0)
(-0.0203151 0.00051539 0)
(-0.0205092 0.000428049 0)
(-0.0206659 0.0003372 0)
(-0.0207836 0.000243044 0)
(-0.0208612 0.000145823 0)
(-0.0208975 4.58277e-05 0)
(-0.0208915 -5.66084e-05 0)
(-0.0208423 -0.000161103 0)
(-0.0207493 -0.000267227 0)
(-0.0206119 -0.000374509 0)
(-0.0204298 -0.000482431 0)
(-0.0202029 -0.000590436 0)
(-0.0199315 -0.000697928 0)
(-0.0196158 -0.000804278 0)
(-0.0192565 -0.000908828 0)
(-0.0188547 -0.0010109 0)
(-0.0184113 -0.00110978 0)
(-0.0179281 -0.00120478 0)
(-0.0174066 -0.00129519 0)
(-0.0168491 -0.00138028 0)
(-0.0162577 -0.00145938 0)
(-0.0156351 -0.00153181 0)
(-0.0149842 -0.00159693 0)
(-0.014308 -0.00165413 0)
(-0.0136099 -0.00170286 0)
(-0.0128934 -0.00174262 0)
(-0.0121623 -0.00177297 0)
(-0.0114205 -0.00179352 0)
(-0.0106719 -0.00180399 0)
(-0.00992069 -0.00180414 0)
(-0.0091711 -0.00179384 0)
(-0.00842734 -0.00177304 0)
(-0.00769363 -0.00174177 0)
(-0.00697418 -0.00170015 0)
(-0.00627312 -0.0016484 0)
(-0.00559446 -0.00158681 0)
(-0.00494208 -0.00151579 0)
(-0.00431965 -0.00143582 0)
(-0.00373066 -0.00134747 0)
(-0.00317828 -0.00125142 0)
(-0.00266543 -0.00114844 0)
(-0.00219463 -0.00103942 0)
(-0.00176803 -0.000925357 0)
(-0.00138731 -0.000807419 0)
(-0.00105365 -0.000686945 0)
(-0.000767622 -0.000565509 0)
(-0.000529124 -0.000444989 0)
(-0.000337274 -0.000327666 0)
(-0.000190292 -0.000216346 0)
(-8.53544e-05 -0.000114536 0)
(-1.84369e-05 -2.66574e-05 0)
(1.5827e-05 4.16936e-05 0)
(2.43178e-05 8.35009e-05 0)
(1.64137e-05 9.01166e-05 0)
(4.8774e-06 5.0427e-05 0)
(-4.6524e-06 -4.77338e-06 0)
(-4.13543e-05 7.47914e-05 0)
(-0.000131698 0.000205199 0)
(-0.000275621 0.000364519 0)
(-0.000474174 0.000538866 0)
(-0.000728294 0.00071807 0)
(-0.00103734 0.000894883 0)
(-0.00139948 0.00106443 0)
(-0.00181207 0.00122356 0)
(-0.00227191 0.00137036 0)
(-0.00277535 0.0015038 0)
(-0.00331855 0.00162355 0)
(-0.00389751 0.00172968 0)
(-0.00450826 0.00182259 0)
(-0.00514693 0.00190283 0)
(-0.00580974 0.00197111 0)
(-0.00649309 0.00202815 0)
(-0.00719355 0.00207474 0)
(-0.00790789 0.00211163 0)
(-0.00863305 0.00213954 0)
(-0.00936621 0.00215913 0)
(-0.0101047 0.002171 0)
(-0.010846 0.00217571 0)
(-0.0115877 0.00217374 0)
(-0.0123276 0.00216549 0)
(-0.0130637 0.0021513 0)
(-0.0137938 0.00213146 0)
(-0.014516 0.00210618 0)
(-0.0152285 0.00207562 0)
(-0.0159294 0.00203987 0)
(-0.0166169 0.00199902 0)
(-0.0172892 0.00195307 0)
(-0.0179446 0.00190202 0)
(-0.0185812 0.00184582 0)
(-0.0191973 0.00178441 0)
(-0.019791 0.00171772 0)
(-0.0203606 0.00164565 0)
(-0.0209042 0.00156813 0)
(-0.0214199 0.00148507 0)
(-0.0219059 0.0013964 0)
(-0.0223602 0.00130207 0)
(-0.0227811 0.00120206 0)
(-0.0231666 0.00109637 0)
(-0.0235149 0.000985045 0)
(-0.0238241 0.00086816 0)
(-0.0240925 0.000745849 0)
(-0.0243184 0.000618292 0)
(-0.0245 0.000485727 0)
(-0.0246359 0.000348451 0)
(-0.0247247 0.000206824 0)
(-0.0247649 6.12674e-05 0)
(-0.0247556 -8.77286e-05 0)
(-0.0246957 -0.000239609 0)
(-0.0245844 -0.000393755 0)
(-0.0244212 -0.00054948 0)
(-0.0242058 -0.00070604 0)
(-0.0239382 -0.000862632 0)
(-0.0236184 -0.0010184 0)
(-0.0232471 -0.00117244 0)
(-0.022825 -0.00132381 0)
(-0.0223532 -0.00147153 0)
(-0.0218332 -0.0016146 0)
(-0.0212666 -0.00175202 0)
(-0.0206556 -0.00188276 0)
(-0.0200025 -0.00200582 0)
(-0.01931 -0.00212021 0)
(-0.0185812 -0.00222497 0)
(-0.0178194 -0.00231919 0)
(-0.0170281 -0.00240202 0)
(-0.0162112 -0.00247265 0)
(-0.0153729 -0.00253038 0)
(-0.0145174 -0.00257457 0)
(-0.0136492 -0.0026047 0)
(-0.0127729 -0.00262033 0)
(-0.0118934 -0.00262116 0)
(-0.0110154 -0.00260698 0)
(-0.0101438 -0.00257773 0)
(-0.00928344 -0.00253346 0)
(-0.00843924 -0.00247435 0)
(-0.00761589 -0.00240071 0)
(-0.00681801 -0.00231298 0)
(-0.00605005 -0.00221175 0)
(-0.00531623 -0.00209771 0)
(-0.0046205 -0.00197171 0)
(-0.00396651 -0.00183474 0)
(-0.00335757 -0.00168793 0)
(-0.00279653 -0.00153257 0)
(-0.00228582 -0.00137013 0)
(-0.00182732 -0.00120231 0)
(-0.00142234 -0.00103102 0)
(-0.00107148 -0.000858542 0)
(-0.000774641 -0.000687506 0)
(-0.000530849 -0.000521071 0)
(-0.000338188 -0.000363044 0)
(-0.000193678 -0.000218067 0)
(-9.3156e-05 -9.18428e-05 0)
(-3.1158e-05 8.58491e-06 0)
(-7.67328e-07 7.45504e-05 0)
(6.92775e-06 9.54572e-05 0)
(3.18883e-06 5.75902e-05 0)
(-7.80423e-06 2.03608e-05 0)
(-5.95529e-05 0.000153041 0)
(-0.000179796 0.000339788 0)
(-0.000363931 0.000557511 0)
(-0.000610742 0.000790942 0)
(-0.000920028 0.00102869 0)
(-0.0012903 0.00126248 0)
(-0.00171908 0.00148655 0)
(-0.00220329 0.00169706 0)
(-0.0027393 0.00189163 0)
(-0.00332314 0.00206894 0)
(-0.00395062 0.00222847 0)
(-0.00461744 0.00237026 0)
(-0.00531932 0.00249471 0)
(-0.00605204 0.00260248 0)
(-0.00681151 0.00269441 0)
(-0.00759377 0.00277142 0)
(-0.00839505 0.00283446 0)
(-0.00921177 0.00288448 0)
(-0.0100406 0.00292239 0)
(-0.0108783 0.00294905 0)
(-0.0117219 0.00296522 0)
(-0.0125685 0.00297163 0)
(-0.0134156 0.0029689 0)
(-0.0142605 0.00295755 0)
(-0.0151008 0.00293806 0)
(-0.0159342 0.00291077 0)
(-0.0167586 0.00287597 0)
(-0.0175717 0.00283389 0)
(-0.0183713 0.00278467 0)
(-0.0191556 0.00272839 0)
(-0.0199223 0.00266511 0)
(-0.0206694 0.0025948 0)
(-0.021395 0.00251742 0)
(-0.0220969 0.0024329 0)
(-0.022773 0.00234114 0)
(-0.0234214 0.00224205 0)
(-0.0240398 0.00213553 0)
(-0.0246263 0.00202146 0)
(-0.0251786 0.00189979 0)
(-0.0256947 0.00177045 0)
(-0.0261724 0.00163342 0)
(-0.0266095 0.00148872 0)
(-0.0270042 0.00133643 0)
(-0.0273541 0.00117666 0)
(-0.0276575 0.00100961 0)
(-0.0279123 0.000835526 0)
(-0.0281168 0.000654746 0)
(-0.0282691 0.00046768 0)
(-0.0283678 0.000274823 0)
(-0.0284114 7.6752e-05 0)
(-0.0283986 -0.000125865 0)
(-0.0283284 -0.000332276 0)
(-0.0281999 -0.000541638 0)
(-0.0280127 -0.000753027 0)
(-0.0277662 -0.000965437 0)
(-0.0274606 -0.00117779 0)
(-0.027096 -0.00138892 0)
(-0.0266731 -0.00159763 0)
(-0.0261927 -0.00180264 0)
(-0.0256562 -0.00200265 0)
(-0.0250652 -0.00219632 0)
(-0.0244216 -0.0023823 0)
(-0.0237277 -0.00255922 0)
(-0.0229863 -0.00272574 0)
(-0.0222005 -0.00288054 0)
(-0.0213735 -0.00302234 0)
(-0.0205093 -0.00314992 0)
(-0.0196116 -0.00326213 0)
(-0.018685 -0.00335793 0)
(-0.0177341 -0.00343635 0)
(-0.0167635 -0.00349656 0)
(-0.0157784 -0.00353786 0)
(-0.0147839 -0.00355967 0)
(-0.0137855 -0.00356158 0)
(-0.0127884 -0.00354333 0)
(-0.0117981 -0.00350483 0)
(-0.0108201 -0.00344617 0)
(-0.00985978 -0.00336758 0)
(-0.00892241 -0.0032695 0)
(-0.00801314 -0.00315254 0)
(-0.00713692 -0.00301747 0)
(-0.00629845 -0.00286527 0)
(-0.00550212 -0.00269709 0)
(-0.00475199 -0.00251426 0)
(-0.00405168 -0.00231834 0)
(-0.00340437 -0.00211109 0)
(-0.00281272 -0.0018945 0)
(-0.00227878 -0.00167085 0)
(-0.00180399 -0.00144274 0)
(-0.00138902 -0.00121316 0)
(-0.00103378 -0.000985585 0)
(-0.000737277 -0.000764086 0)
(-0.000497561 -0.000553481 0)
(-0.000311619 -0.000359533 0)
(-0.000175305 -0.000189172 0)
(-8.32426e-05 -5.0785e-05 0)
(-2.87061e-05 4.5499e-05 0)
(-3.5897e-06 8.74469e-05 0)
(1.36032e-06 5.94086e-05 0)
(-1.07209e-05 5.4739e-05 0)
(-7.7098e-05 0.00025504 0)
(-0.000226946 0.000509556 0)
(-0.000451224 0.000794827 0)
(-0.00074629 0.0010949 0)
(-0.00111067 0.00139762 0)
(-0.00154187 0.00169395 0)
(-0.00203668 0.00197746 0)
(-0.00259139 0.00224381 0)
(-0.00320194 0.00249022 0)
(-0.00386396 0.00271513 0)
(-0.00457293 0.00291787 0)
(-0.00532428 0.00309843 0)
(-0.00611341 0.00325723 0)
(-0.00693583 0.00339504 0)
(-0.00778714 0.00351283 0)
(-0.0086631 0.0036117 0)
(-0.00955965 0.00369277 0)
(-0.0104729 0.00375719 0)
(-0.0113993 0.00380606 0)
(-0.0123352 0.00384043 0)
(-0.0132775 0.00386126 0)
(-0.014223 0.00386942 0)
(-0.0151687 0.00386568 0)
(-0.0161119 0.00385072 0)
(-0.0170498 0.0038251 0)
(-0.0179799 0.00378927 0)
(-0.0188997 0.00374361 0)
(-0.0198068 0.00368839 0)
(-0.0206988 0.0036238 0)
(-0.0215733 0.00354997 0)
(-0.0224281 0.00346694 0)
(-0.0232609 0.00337472 0)
(-0.0240694 0.00327325 0)
(-0.0248513 0.00316247 0)
(-0.0256043 0.00304225 0)
(-0.0263261 0.00291248 0)
(-0.0270143 0.00277305 0)
(-0.0276666 0.00262385 0)
(-0.0282807 0.00246479 0)
(-0.0288542 0.00229583 0)
(-0.0293847 0.00211695 0)
(-0.0298699 0.00192819 0)
(-0.0303076 0.00172965 0)
(-0.0306954 0.00152152 0)
(-0.0310312 0.00130404 0)
(-0.0313129 0.00107757 0)
(-0.0315385 0.000842545 0)
(-0.0317061 0.000599505 0)
(-0.031814 0.000349096 0)
(-0.0318607 9.20727e-05 0)
(-0.0318446 -0.000170699 0)
(-0.0317649 -0.000438243 0)
(-0.0316205 -0.000709472 0)
(-0.0314108 -0.000983194 0)
(-0.0311355 -0.00125811 0)
(-0.0307945 -0.00153284 0)
(-0.0303883 -0.00180589 0)
(-0.0299175 -0.0020757 0)
(-0.0293831 -0.00234066 0)
(-0.0287864 -0.0025991 0)
(-0.0281294 -0.00284928 0)
(-0.0274142 -0.0030895 0)
(-0.0266434 -0.003318 0)
(-0.02582 -0.00353306 0)
(-0.0249473 -0.00373301 0)
(-0.0240291 -0.00391621 0)
(-0.0230695 -0.00408111 0)
(-0.022073 -0.00422624 0)
(-0.0210442 -0.00435026 0)
(-0.0199882 -0.00445196 0)
(-0.0189104 -0.00453026 0)
(-0.0178163 -0.00458427 0)
(-0.0167115 -0.00461328 0)
(-0.0156019 -0.00461675 0)
(-0.0144934 -0.00459437 0)
(-0.0133921 -0.00454602 0)
(-0.0123038 -0.00447181 0)
(-0.0112344 -0.00437207 0)
(-0.0101899 -0.00424737 0)
(-0.00917568 -0.00409849 0)
(-0.00819729 -0.00392645 0)
(-0.00725981 -0.00373252 0)
(-0.00636804 -0.00351819 0)
(-0.00552638 -0.0032852 0)
(-0.00473878 -0.00303556 0)
(-0.00400868 -0.00277154 0)
(-0.00333895 -0.00249572 0)
(-0.00273184 -0.00221103 0)
(-0.00218889 -0.00192078 0)
(-0.00171088 -0.00162874 0)
(-0.00129775 -0.00133924 0)
(-0.000948556 -0.00105727 0)
(-0.000661383 -0.000788679 0)
(-0.000433289 -0.000540291 0)
(-0.000260259 -0.000320187 0)
(-0.000137135 -0.000137959 0)
(-5.75266e-05 -4.99003e-06 0)
(-1.43171e-05 6.51971e-05 0)
(-4.49438e-07 5.56351e-05 0)
(-1.34371e-05 9.79129e-05 0)
(-9.38373e-05 0.000380152 0)
(-0.000272467 0.000713893 0)
(-0.000536112 0.001076 0)
(-0.000878704 0.00145032 0)
(-0.00129744 0.00182432 0)
(-0.00178874 0.00218851 0)
(-0.00234851 0.00253608 0)
(-0.00297236 0.00286232 0)
(-0.0036557 0.0031642 0)
(-0.00439376 0.00343996 0)
(-0.00518165 0.00368884 0)
(-0.0060145 0.00391078 0)
(-0.00688745 0.00410629 0)
(-0.0077957 0.00427622 0)
(-0.00873462 0.00442169 0)
(-0.0096997 0.00454395 0)
(-0.0106867 0.00464433 0)
(-0.0116914 0.00472416 0)
(-0.0127099 0.00478474 0)
(-0.0137386 0.0048273 0)
(-0.0147739 0.00485299 0)
(-0.0158124 0.00486285 0)
(-0.0168509 0.00485781 0)
(-0.0178864 0.00483867 0)
(-0.018916 0.00480611 0)
(-0.0199369 0.00476069 0)
(-0.0209462 0.00470285 0)
(-0.0219415 0.00463294 0)
(-0.02292 0.0045512 0)
(-0.0238792 0.00445777 0)
(-0.0248166 0.00435274 0)
(-0.0257297 0.00423611 0)
(-0.0266159 0.00410782 0)
(-0.0274728 0.0039678 0)
(-0.0282978 0.00381592 0)
(-0.0290883 0.00365205 0)
(-0.029842 0.00347608 0)
(-0.030556 0.00328787 0)
(-0.031228 0.00308735 0)
(-0.0318554 0.00287446 0)
(-0.0324355 0.0026492 0)
(-0.0329658 0.00241165 0)
(-0.033444 0.00216195 0)
(-0.0338674 0.00190035 0)
(-0.0342339 0.00162716 0)
(-0.034541 0.00134284 0)
(-0.0347866 0.00104796 0)
(-0.0349688 0.000743185 0)
(-0.0350856 0.000429341 0)
(-0.0351353 0.000107374 0)
(-0.0351166 -0.000221631 0)
(-0.0350283 -0.000556456 0)
(-0.0348692 -0.000895744 0)
(-0.0346389 -0.00123801 0)
(-0.034337 -0.00158164 0)
(-0.0339634 -0.00192491 0)
(-0.0335186 -0.00226598 0)
(-0.0330032 -0.00260291 0)
(-0.0324185 -0.00293371 0)
(-0.0317659 -0.00325629 0)
(-0.0310474 -0.00356854 0)
(-0.0302654 -0.00386831 0)
(-0.0294228 -0.00415346 0)
(-0.0285226 -0.00442186 0)
(-0.0275687 -0.00467143 0)
(-0.0265651 -0.00490016 0)
(-0.0255162 -0.00510612 0)
(-0.0244268 -0.00528752 0)
(-0.0233021 -0.00544269 0)
(-0.0221476 -0.00557014 0)
(-0.0209689 -0.00566855 0)
(-0.0197722 -0.00573683 0)
(-0.0185634 -0.00577408 0)
(-0.0173491 -0.00577966 0)
(-0.0161355 -0.00575319 0)
(-0.0149292 -0.00569453 0)
(-0.0137365 -0.00560384 0)
(-0.0125639 -0.00548152 0)
(-0.0114177 -0.00532829 0)
(-0.0103038 -0.00514515 0)
(-0.0092282 -0.00493337 0)
(-0.00819631 -0.00469455 0)
(-0.00721333 -0.00443054 0)
(-0.00628398 -0.00414354 0)
(-0.00541252 -0.00383606 0)
(-0.00460263 -0.00351092 0)
(-0.0038574 -0.00317133 0)
(-0.00317925 -0.00282091 0)
(-0.00256986 -0.00246369 0)
(-0.00203011 -0.00210429 0)
(-0.00156003 -0.00174789 0)
(-0.00115877 -0.00140043 0)
(-0.000824496 -0.00106872 0)
(-0.00055441 -0.000760633 0)
(-0.00034471 -0.000485286 0)
(-0.000190532 -0.000253335 0)
(-8.5899e-05 -7.71996e-05 0)
(-2.4736e-05 2.86239e-05 0)
(-2.15326e-06 4.63578e-05 0)
(-1.59702e-05 0.000149405 0)
(-0.000109703 0.000527471 0)
(-0.000316019 0.000951799 0)
(-0.000617824 0.00140004 0)
(-0.00100675 0.0018562 0)
(-0.00147863 0.00230772 0)
(-0.00202876 0.00274501 0)
(-0.00265208 0.00316105 0)
(-0.00334347 0.00355098 0)
(-0.00409775 0.00391162 0)
(-0.0049097 0.00424111 0)
(-0.00577406 0.00453866 0)
(-0.00668563 0.00480424 0)
(-0.00763924 0.00503843 0)
(-0.00862987 0.00524221 0)
(-0.00965262 0.00541684 0)
(-0.0107028 0.00556376 0)
(-0.0117758 0.00568446 0)
(-0.0128674 0.00578048 0)
(-0.0139734 0.00585331 0)
(-0.01509 0.00590438 0)
(-0.0162132 0.00593503 0)
(-0.0173396 0.00594646 0)
(-0.0184658 0.00593976 0)
(-0.0195884 0.00591584 0)
(-0.0207044 0.00587553 0)
(-0.0218108 0.00581947 0)
(-0.0229045 0.0057482 0)
(-0.0239828 0.00566212 0)
(-0.0250428 0.00556153 0)
(-0.0260817 0.0054466 0)
(-0.0270969 0.00531744 0)
(-0.0280857 0.00517404 0)
(-0.0290451 0.00501638 0)
(-0.0299727 0.00484435 0)
(-0.0308656 0.00465783 0)
(-0.0317211 0.00445668 0)
(-0.0325365 0.00424075 0)
(-0.033309 0.00400993 0)
(-0.0340357 0.00376412 0)
(-0.0347141 0.00350329 0)
(-0.0353412 0.00322745 0)
(-0.0359145 0.00293671 0)
(-0.0364312 0.00263127 0)
(-0.0368887 0.00231142 0)
(-0.0372844 0.00197759 0)
(-0.037616 0.00163033 0)
(-0.0378812 0.00127034 0)
(-0.0380776 0.000898458 0)
(-0.0382035 0.00051568 0)
(-0.0382569 0.000123164 0)
(-0.0382364 -0.000277768 0)
(-0.0381407 -0.000685634 0)
(-0.0379686 -0.00109879 0)
(-0.0377197 -0.00151543 0)
(-0.0373933 -0.00193361 0)
(-0.0369897 -0.00235123 0)
(-0.0365092 -0.00276607 0)
(-0.0359525 -0.00317581 0)
(-0.035321 -0.00357801 0)
(-0.0346162 -0.00397018 0)
(-0.0338402 -0.00434975 0)
(-0.0329957 -0.00471415 0)
(-0.0320856 -0.00506078 0)
(-0.0311134 -0.00538708 0)
(-0.0300831 -0.00569056 0)
(-0.0289989 -0.00596878 0)
(-0.0278657 -0.00621943 0)
(-0.0266886 -0.00644034 0)
(-0.0254731 -0.00662952 0)
(-0.0242251 -0.00678517 0)
(-0.0229508 -0.0069057 0)
(-0.0216565 -0.00698979 0)
(-0.020349 -0.00703638 0)
(-0.0190349 -0.00704471 0)
(-0.0177211 -0.00701431 0)
(-0.0164146 -0.00694503 0)
(-0.0151223 -0.00683706 0)
(-0.0138509 -0.00669093 0)
(-0.0126073 -0.00650751 0)
(-0.0113979 -0.00628801 0)
(-0.0102289 -0.006034 0)
(-0.00910619 -0.00574741 0)
(-0.00803536 -0.00543053 0)
(-0.00702141 -0.00508602 0)
(-0.00606889 -0.00471691 0)
(-0.00518174 -0.00432665 0)
(-0.00436324 -0.0039191 0)
(-0.003616 -0.00349857 0)
(-0.00294185 -0.00306992 0)
(-0.00234181 -0.00263855 0)
(-0.00181602 -0.00221055 0)
(-0.00136373 -0.00179278 0)
(-0.000983267 -0.00139301 0)
(-0.000672 -0.00102006 0)
(-0.000426384 -0.000684021 0)
(-0.000241888 -0.000396471 0)
(-0.000112963 -0.00017067 0)
(-3.45329e-05 -2.18207e-05 0)
(-3.70637e-06 3.18665e-05 0)
(-1.83216e-05 0.000208752 0)
(-0.000124677 0.000695981 0)
(-0.000357461 0.00122204 0)
(-0.000696 0.00176558 0)
(-0.00112978 0.00231113 0)
(-0.00165328 0.0028464 0)
(-0.00226064 0.00336192 0)
(-0.00294583 0.00385075 0)
(-0.00370295 0.00430799 0)
(-0.00452622 0.00473045 0)
(-0.00540991 0.0051163 0)
(-0.00634835 0.00546478 0)
(-0.00733599 0.00577596 0)
(-0.00836737 0.00605053 0)
(-0.00943722 0.0062896 0)
(-0.0105404 0.00649462 0)
(-0.011672 0.00666718 0)
(-0.0128273 0.00680899 0)
(-0.0140018 0.00692179 0)
(-0.015191 0.00700727 0)
(-0.016391 0.00706705 0)
(-0.0175978 0.00710264 0)
(-0.0188076 0.00711542 0)
(-0.0200168 0.00710663 0)
(-0.021222 0.00707734 0)
(-0.0224198 0.00702846 0)
(-0.0236071 0.00696077 0)
(-0.0247807 0.00687486 0)
(-0.0259375 0.00677122 0)
(-0.0270747 0.00665017 0)
(-0.0281891 0.00651195 0)
(-0.029278 0.00635666 0)
(-0.0303384 0.00618432 0)
(-0.0313673 0.0059949 0)
(-0.032362 0.00578828 0)
(-0.0333194 0.00556435 0)
(-0.0342367 0.00532294 0)
(-0.0351108 0.0050639 0)
(-0.0359389 0.00478711 0)
(-0.0367181 0.00449248 0)
(-0.0374452 0.00417997 0)
(-0.0381176 0.00384964 0)
(-0.0387321 0.00350161 0)
(-0.0392861 0.00313615 0)
(-0.0397766 0.00275361 0)
(-0.040201 0.00235453 0)
(-0.0405568 0.00193957 0)
(-0.0408413 0.00150957 0)
(-0.0410525 0.00106554 0)
(-0.041188 0.000608662 0)
(-0.041246 0.000140328 0)
(-0.041225 -0.000337893 0)
(-0.0411234 -0.000824236 0)
(-0.0409402 -0.00131675 0)
(-0.0406746 -0.00181329 0)
(-0.0403263 -0.00231155 0)
(-0.0398953 -0.00280906 0)
(-0.0393819 -0.00330317 0)
(-0.0387871 -0.00379114 0)
(-0.038112 -0.00427008 0)
(-0.0373585 -0.00473705 0)
(-0.0365287 -0.00518902 0)
(-0.0356254 -0.00562293 0)
(-0.0346518 -0.00603574 0)
(-0.0336115 -0.0064244 0)
(-0.0325088 -0.00678597 0)
(-0.0313482 -0.00711757 0)
(-0.0301348 -0.00741648 0)