/*--------------------------------*- C++ -*----------------------------------*\
  =========                 |
  \\      /  F ield         | OpenFOAM: The Open Source CFD Toolbox
   \\    /   O peration     | Website:  https://openfoam.org
    \\  /    A nd           | Version:  7
     \\/     M anipulation  |
\*---------------------------------------------------------------------------*/
FoamFile
{
    version     2.0;
    format      ascii;
    class       volScalarField;
    location    "10";
    object      p;
}
// * * * * * * * * * * * * * * * * * * * * * * * * * * * * * * * * * * * * * //

dimensions      [0 2 -2 0 0 0 0];

internalField   nonuniform List<scalar> 
8500
(
-0.281225
-0.28675
-0.290611
-0.296783
-0.305756
-0.317793
-0.333138
-0.351978
-0.374577
-0.401242
-0.282451
-0.287795
-0.2916
-0.297728
-0.306672
-0.318694
-0.334049
-0.352923
-0.375554
-0.402296
-0.284811
-0.289802
-0.293495
-0.299535
-0.308415
-0.320401
-0.335762
-0.354688
-0.377359
-0.40421
-0.288134
-0.292613
-0.296141
-0.302048
-0.310821
-0.322735
-0.338072
-0.357038
-0.379719
-0.406628
-0.292188
-0.296018
-0.299329
-0.305051
-0.313666
-0.325452
-0.340704
-0.359658
-0.382287
-0.409076
-0.296701
-0.299773
-0.302816
-0.308298
-0.316691
-0.328274
-0.343343
-0.362189
-0.384693
-0.411034
-0.301392
-0.30363
-0.306356
-0.311535
-0.319627
-0.330912
-0.345672
-0.364257
-0.386594
-0.412006
-0.305995
-0.307362
-0.309719
-0.314523
-0.322221
-0.333096
-0.347401
-0.365509
-0.387681
-0.4116
-0.310282
-0.310783
-0.312717
-0.317068
-0.324262
-0.334596
-0.348294
-0.365655
-0.387641
-0.409654
-0.314074
-0.313739
-0.315236
-0.319032
-0.325595
-0.33524
-0.34819
-0.364557
-0.386024
-0.406629
-0.317256
-0.316181
-0.317187
-0.320341
-0.326143
-0.334934
-0.346973
-0.362199
-0.382817
-0.401913
-0.319774
-0.318087
-0.318573
-0.320997
-0.325898
-0.333666
-0.344641
-0.358523
-0.37824
-0.39546
-0.321627
-0.319484
-0.319445
-0.321063
-0.324932
-0.331511
-0.341277
-0.353661
-0.372399
-0.387628
-0.322862
-0.320439
-0.319893
-0.320655
-0.323383
-0.328629
-0.337049
-0.347883
-0.365489
-0.378881
-0.323562
-0.321037
-0.320024
-0.319916
-0.321437
-0.325253
-0.332206
-0.341553
-0.357846
-0.369752
-0.323834
-0.321372
-0.319951
-0.319001
-0.319301
-0.321662
-0.32706
-0.335103
-0.349884
-0.360792
-0.323801
-0.32154
-0.319779
-0.318051
-0.317183
-0.31815
-0.321956
-0.329012
-0.341951
-0.352861
-0.323599
-0.321636
-0.319603
-0.317195
-0.315272
-0.314992
-0.317229
-0.323787
-0.334225
-0.34633
-0.32338
-0.321761
-0.319517
-0.316545
-0.31373
-0.312412
-0.313164
-0.31986
-0.327078
-0.34163
-0.323306
-0.322027
-0.319618
-0.31621
-0.312701
-0.31057
-0.310031
-0.317091
-0.321133
-0.339944
-0.323543
-0.322558
-0.320013
-0.316301
-0.312304
-0.30956
-0.308193
-0.314569
-0.317079
-0.340333
-0.324254
-0.323462
-0.320817
-0.316916
-0.312622
-0.30941
-0.307648
-0.312061
-0.315685
-0.330146
-0.325571
-0.324842
-0.322112
-0.318114
-0.31367
-0.310078
-0.307945
-0.310454
-0.313886
-0.32195
-0.327585
-0.326773
-0.323935
-0.31989
-0.315368
-0.311414
-0.308735
-0.309677
-0.311605
-0.315946
-0.330337
-0.329281
-0.326286
-0.322187
-0.317559
-0.313181
-0.309863
-0.30931
-0.309251
-0.310587
-0.333828
-0.332341
-0.329154
-0.324924
-0.320064
-0.315194
-0.311187
-0.309059
-0.306752
-0.305647
-0.338054
-0.335962
-0.332489
-0.328028
-0.322754
-0.317389
-0.312552
-0.308645
-0.304139
-0.300765
-0.342985
-0.340156
-0.336296
-0.331447
-0.325621
-0.319735
-0.313778
-0.307936
-0.301316
-0.295903
-0.348622
-0.344948
-0.340616
-0.335167
-0.328767
-0.322146
-0.314726
-0.306853
-0.298253
-0.290981
-0.354998
-0.350389
-0.345498
-0.339245
-0.332268
-0.3245
-0.315308
-0.305369
-0.294919
-0.285944
-0.362158
-0.356553
-0.350974
-0.34382
-0.336078
-0.326681
-0.315475
-0.303474
-0.291298
-0.28074
-0.370149
-0.363511
-0.357062
-0.349027
-0.340061
-0.328588
-0.315199
-0.301163
-0.287373
-0.27532
-0.379005
-0.371298
-0.363793
-0.354862
-0.344055
-0.330136
-0.314454
-0.298428
-0.283119
-0.26964
-0.388731
-0.379894
-0.371223
-0.361154
-0.347896
-0.331244
-0.31321
-0.29525
-0.278503
-0.263651
-0.399294
-0.389216
-0.379375
-0.367639
-0.351411
-0.331835
-0.311428
-0.291599
-0.273482
-0.257306
-0.410601
-0.399137
-0.38816
-0.374039
-0.354423
-0.331817
-0.309054
-0.287431
-0.268008
-0.250559
-0.422496
-0.409505
-0.397325
-0.380087
-0.356764
-0.331092
-0.306025
-0.28269
-0.262024
-0.243362
-0.434743
-0.420142
-0.40648
-0.385512
-0.358269
-0.329555
-0.302263
-0.277314
-0.255471
-0.235676
-0.447029
-0.43083
-0.415174
-0.390023
-0.358772
-0.327093
-0.297687
-0.271232
-0.248291
-0.22747
-0.458972
-0.441275
-0.42295
-0.393323
-0.358105
-0.323592
-0.292207
-0.264373
-0.24043
-0.218723
-0.470139
-0.45109
-0.429388
-0.395129
-0.356098
-0.318935
-0.285734
-0.256663
-0.231842
-0.209409
-0.480068
-0.459805
-0.434117
-0.395192
-0.352587
-0.313007
-0.278176
-0.248029
-0.222477
-0.199501
-0.488291
-0.466896
-0.436814
-0.393304
-0.347425
-0.305695
-0.269445
-0.238393
-0.212279
-0.188963
-0.494359
-0.471847
-0.437188
-0.389292
-0.340485
-0.296904
-0.259462
-0.227686
-0.201174
-0.177709
-0.497862
-0.474206
-0.43496
-0.383009
-0.331662
-0.28655
-0.248165
-0.215857
-0.189087
-0.16555
-0.498442
-0.47359
-0.429887
-0.374331
-0.320868
-0.274567
-0.235506
-0.202889
-0.176001
-0.152238
-0.495792
-0.469693
-0.42179
-0.363164
-0.308041
-0.260898
-0.22144
-0.188777
-0.161994
-0.137682
-0.489665
-0.462289
-0.410548
-0.349445
-0.293132
-0.245501
-0.205934
-0.173504
-0.147112
-0.12226
-0.479872
-0.451231
-0.396097
-0.333141
-0.276113
-0.228362
-0.189014
-0.157096
-0.131099
-0.106525
-0.466281
-0.436444
-0.378426
-0.314252
-0.256979
-0.209522
-0.170776
-0.139665
-0.113936
-0.0903558
-0.448824
-0.417918
-0.357585
-0.292817
-0.235772
-0.189085
-0.15127
-0.121078
-0.0958656
-0.0736186
-0.427488
-0.395707
-0.333676
-0.268917
-0.21261
-0.167075
-0.130466
-0.101383
-0.0770106
-0.0562936
-0.402326
-0.369932
-0.306812
-0.242638
-0.1876
-0.143508
-0.108418
-0.0806655
-0.0574324
-0.0384359
-0.373467
-0.340813
-0.277012
-0.21408
-0.160806
-0.118503
-0.0852104
-0.0590152
-0.0371757
-0.0201071
-0.341101
-0.308646
-0.244187
-0.183424
-0.132364
-0.0921939
-0.0609535
-0.0365178
-0.0162897
-0.00134849
-0.305434
-0.273589
-0.208762
-0.150749
-0.102419
-0.0647212
-0.0357617
-0.0132585
0.00514181
0.0177036
-0.266662
-0.235324
-0.171621
-0.116363
-0.0711382
-0.0362254
-0.00973589
0.0106789
0.0269218
0.0365566
-0.225064
-0.194125
-0.133032
-0.0806348
-0.0387269
-0.00684462
0.0170361
0.0351883
0.048693
0.054431
-0.180934
-0.15069
-0.0929628
-0.0438165
-0.00540891
0.0232691
0.0444332
0.0600838
0.0701372
0.0712604
-0.134556
-0.105666
-0.0516051
-0.00612017
0.0285959
0.053937
0.0722411
0.0850439
0.0913157
0.0890657
-0.0864707
-0.0594004
-0.00926156
0.0322259
0.0630719
0.0849545
0.100183
0.109716
0.112304
0.111982
-0.0371291
-0.0122367
0.0337319
0.0709655
0.0977955
0.116102
0.128037
0.13416
0.133939
0.134635
0.0130099
0.0354426
0.0770289
0.109824
0.132529
0.147158
0.155687
0.158565
0.156104
0.156107
0.0634857
0.0832407
0.120281
0.148514
0.167026
0.177907
0.18299
0.182778
0.178216
0.176664
0.113837
0.130755
0.163141
0.186748
0.201041
0.208153
0.20982
0.206645
0.199925
0.196326
0.163607
0.177585
0.205266
0.224237
0.234326
0.237692
0.236
0.229952
0.221028
0.215194
0.212347
0.223339
0.24632
0.260697
0.266644
0.266325
0.261359
0.252515
0.241355
0.233206
0.259625
0.267631
0.285977
0.29585
0.297758
0.293855
0.285718
0.274169
0.260794
0.250311
0.305036
0.310077
0.323919
0.329431
0.327442
0.320088
0.308907
0.29476
0.279221
0.266427
0.348184
0.35032
0.359844
0.361184
0.355479
0.344839
0.330765
0.314151
0.296526
0.281477
0.388693
0.388025
0.393466
0.390868
0.381664
0.367931
0.351141
0.332212
0.312604
0.295386
0.426212
0.422883
0.424519
0.418258
0.405805
0.389202
0.369895
0.348824
0.327359
0.308083
0.460415
0.45461
0.452759
0.443147
0.427726
0.408502
0.3869
0.363876
0.3407
0.319509
0.491009
0.48295
0.477967
0.465348
0.447266
0.425695
0.40204
0.377269
0.352549
0.329609
0.517732
0.507674
0.499945
0.484694
0.464285
0.44066
0.415211
0.388916
0.362835
0.338338
0.540356
0.528586
0.518525
0.501041
0.478659
0.453293
0.426326
0.398741
0.371497
0.345661
0.558688
0.545518
0.533563
0.514267
0.490284
0.463506
0.435308
0.406679
0.378487
0.351549
0.572575
0.558336
0.544944
0.524273
0.499077
0.471228
0.442098
0.412677
0.383763
0.35598
0.581898
0.566938
0.552579
0.530985
0.504974
0.476406
0.44665
0.416699
0.387297
0.358942
0.586579
0.571256
0.556412
0.534353
0.507933
0.479004
0.448934
0.418716
0.389069
0.360425
0.586579
0.571256
0.556412
0.534353
0.507933
0.479004
0.448934
0.418716
0.389069
0.360425
0.581898
0.566938
0.552579
0.530985
0.504974
0.476406
0.44665
0.416698
0.387297
0.358942
0.572575
0.558336
0.544943
0.524272
0.499077
0.471228
0.442098
0.412677
0.383763
0.35598
0.558688
0.545518
0.533563
0.514266
0.490284
0.463506
0.435308
0.406679
0.378487
0.351548
0.540356
0.528586
0.518525
0.501041
0.478659
0.453293
0.426325
0.398741
0.371497
0.345661
0.517732
0.507674
0.499945
0.484694
0.464285
0.44066
0.415211
0.388916
0.362834
0.338338
0.491009
0.482949
0.477966
0.465348
0.447266
0.425695
0.40204
0.377269
0.352549
0.329608
0.460415
0.454609
0.452759
0.443147
0.427725
0.408502
0.3869
0.363875
0.3407
0.319509
0.426211
0.422882
0.424518
0.418257
0.405805
0.389202
0.369895
0.348823
0.327359
0.308083
0.388693
0.388024
0.393465
0.390867
0.381664
0.367931
0.351141
0.332212
0.312604
0.295385
0.348183
0.35032
0.359844
0.361184
0.355479
0.344839
0.330765
0.314151
0.296526
0.281477
0.305035
0.310077
0.323919
0.329431
0.327442
0.320088
0.308907
0.29476
0.27922
0.266427
0.259625
0.26763
0.285976
0.29585
0.297757
0.293855
0.285718
0.274169
0.260794
0.250311
0.212346
0.223339
0.24632
0.260696
0.266643
0.266325
0.261359
0.252515
0.241355
0.233205
0.163607
0.177585
0.205265
0.224237
0.234326
0.237691
0.236
0.229952
0.221027
0.215193
0.113837
0.130754
0.16314
0.186748
0.20104
0.208152
0.209819
0.206645
0.199925
0.196326
0.063485
0.0832401
0.12028
0.148514
0.167026
0.177907
0.18299
0.182778
0.178216
0.176664
0.0130092
0.0354419
0.0770283
0.109823
0.132529
0.147157
0.155686
0.158565
0.156104
0.156106
-0.0371298
-0.0122374
0.0337312
0.0709649
0.097795
0.116101
0.128037
0.134159
0.133939
0.134634
-0.0864715
-0.0594012
-0.00926225
0.0322253
0.0630713
0.084954
0.100182
0.109715
0.112304
0.111982
-0.134557
-0.105667
-0.0516058
-0.00612082
0.0285953
0.0539365
0.0722406
0.0850434
0.0913152
0.0890652
-0.180935
-0.150691
-0.0929635
-0.0438172
-0.00540954
0.0232685
0.0444326
0.0600833
0.0701368
0.07126
-0.225065
-0.194126
-0.133033
-0.0806355
-0.0387275
-0.00684522
0.0170356
0.0351878
0.0486926
0.0544305
-0.266663
-0.235325
-0.171622
-0.116364
-0.0711389
-0.036226
-0.00973646
0.0106784
0.0269213
0.0365562
-0.305435
-0.27359
-0.208763
-0.15075
-0.10242
-0.0647218
-0.0357623
-0.013259
0.00514131
0.0177031
-0.341102
-0.308647
-0.244188
-0.183424
-0.132365
-0.0921945
-0.0609541
-0.0365184
-0.0162902
-0.00134898
-0.373468
-0.340814
-0.277013
-0.214081
-0.160807
-0.118504
-0.0852111
-0.0590157
-0.0371763
-0.0201076
-0.402328
-0.369933
-0.306813
-0.242638
-0.187601
-0.143509
-0.108419
-0.0806661
-0.057433
-0.0384364
-0.427489
-0.395708
-0.333677
-0.268917
-0.212611
-0.167076
-0.130467
-0.101383
-0.0770112
-0.0562942
-0.448825
-0.417919
-0.357586
-0.292818
-0.235773
-0.189086
-0.15127
-0.121079
-0.0958662
-0.0736191
-0.466282
-0.436445
-0.378427
-0.314253
-0.25698
-0.209523
-0.170777
-0.139666
-0.113937
-0.0903564
-0.479873
-0.451232
-0.396098
-0.333142
-0.276114
-0.228363
-0.189015
-0.157097
-0.131099
-0.106525
-0.489666
-0.46229
-0.410549
-0.349446
-0.293132
-0.245501
-0.205935
-0.173505
-0.147113
-0.122261
-0.495793
-0.469694
-0.421791
-0.363165
-0.308041
-0.260899
-0.221441
-0.188778
-0.161995
-0.137682
-0.498443
-0.473591
-0.429888
-0.374332
-0.320869
-0.274568
-0.235507
-0.20289
-0.176002
-0.152238
-0.497863
-0.474208
-0.434961
-0.38301
-0.331662
-0.286551
-0.248166
-0.215858
-0.189088
-0.165551
-0.49436
-0.471848
-0.437189
-0.389293
-0.340486
-0.296905
-0.259463
-0.227686
-0.201174
-0.17771
-0.488292
-0.466897
-0.436815
-0.393305
-0.347426
-0.305696
-0.269446
-0.238394
-0.21228
-0.188964
-0.480069
-0.459806
-0.434118
-0.395193
-0.352588
-0.313007
-0.278177
-0.248029
-0.222478
-0.199502
-0.47014
-0.451092
-0.429389
-0.39513
-0.356099
-0.318936
-0.285735
-0.256664
-0.231842
-0.20941
-0.458973
-0.441276
-0.422951
-0.393324
-0.358106
-0.323593
-0.292208
-0.264374
-0.240431
-0.218723
-0.44703
-0.430831
-0.415175
-0.390024
-0.358773
-0.327094
-0.297688
-0.271233
-0.248292
-0.227471
-0.434744
-0.420143
-0.406481
-0.385513
-0.35827
-0.329556
-0.302264
-0.277315
-0.255472
-0.235676
-0.422497
-0.409506
-0.397326
-0.380088
-0.356765
-0.331093
-0.306026
-0.282691
-0.262025
-0.243362
-0.410602
-0.399138
-0.388161
-0.37404
-0.354424
-0.331818
-0.309055
-0.287432
-0.268009
-0.250559
-0.399295
-0.389217
-0.379376
-0.36764
-0.351412
-0.331836
-0.311429
-0.2916
-0.273483
-0.257307
-0.388732
-0.379895
-0.371224
-0.361155
-0.347897
-0.331245
-0.313211
-0.295251
-0.278503
-0.263651
-0.379006
-0.371299
-0.363794
-0.354863
-0.344056
-0.330136
-0.314455
-0.298428
-0.283119
-0.26964
-0.37015
-0.363512
-0.357064
-0.349028
-0.340062
-0.328589
-0.3152
-0.301163
-0.287374
-0.275321
-0.362159
-0.356554
-0.350975
-0.343821
-0.336079
-0.326681
-0.315476
-0.303474
-0.291299
-0.280741
-0.354999
-0.35039
-0.345498
-0.339246
-0.332269
-0.324501
-0.315309
-0.30537
-0.294919
-0.285944
-0.348623
-0.344949
-0.340617
-0.335168
-0.328768
-0.322147
-0.314727
-0.306854
-0.298254
-0.290982
-0.342986
-0.340157
-0.336297
-0.331448
-0.325622
-0.319736
-0.313778
-0.307937
-0.301317
-0.295903
-0.338055
-0.335963
-0.33249
-0.328028
-0.322755
-0.317389
-0.312553
-0.308646
-0.30414
-0.300766
-0.333829
-0.332342
-0.329155
-0.324925
-0.320065
-0.315195
-0.311188
-0.30906
-0.306753
-0.305648
-0.330338
-0.329282
-0.326287
-0.322188
-0.31756
-0.313182
-0.309864
-0.309311
-0.309252
-0.310588
-0.327586
-0.326774
-0.323936
-0.319891
-0.315369
-0.311415
-0.308736
-0.309678
-0.311606
-0.315947
-0.325572
-0.324843
-0.322113
-0.318115
-0.313671
-0.310079
-0.307946
-0.310455
-0.313887
-0.321951
-0.324255
-0.323463
-0.320818
-0.316917
-0.312623
-0.309411
-0.307649
-0.312062
-0.315686
-0.330147
-0.323544
-0.322559
-0.320014
-0.316302
-0.312305
-0.309561
-0.308194
-0.31457
-0.31708
-0.340334
-0.323307
-0.322028
-0.319619
-0.316211
-0.312702
-0.310571
-0.310032
-0.317092
-0.321134
-0.339945
-0.323381
-0.321762
-0.319518
-0.316546
-0.313731
-0.312413
-0.313165
-0.319861
-0.327079
-0.341632
-0.3236
-0.321637
-0.319604
-0.317196
-0.315272
-0.314993
-0.31723
-0.323788
-0.334226
-0.346331
-0.323802
-0.321541
-0.31978
-0.318052
-0.317184
-0.318151
-0.321957
-0.329013
-0.341952
-0.352862
-0.323835
-0.321373
-0.319952
-0.319002
-0.319302
-0.321663
-0.327061
-0.335105
-0.349885
-0.360793
-0.323563
-0.321038
-0.320025
-0.319917
-0.321438
-0.325254
-0.332207
-0.341554
-0.357847
-0.369754
-0.322863
-0.32044
-0.319894
-0.320656
-0.323384
-0.32863
-0.33705
-0.347884
-0.365491
-0.378882
-0.321628
-0.319485
-0.319446
-0.321064
-0.324933
-0.331512
-0.341278
-0.353663
-0.372401
-0.38763
-0.319775
-0.318088
-0.318574
-0.320998
-0.325899
-0.333667
-0.344642
-0.358525
-0.378241
-0.395462
-0.317257
-0.316182
-0.317188
-0.320342
-0.326144
-0.334935
-0.346974
-0.3622
-0.382819
-0.401914
-0.314075
-0.31374
-0.315237
-0.319033
-0.325596
-0.335241
-0.348191
-0.364558
-0.386025
-0.406631
-0.310283
-0.310784
-0.312718
-0.317069
-0.324263
-0.334597
-0.348296
-0.365656
-0.387643
-0.409656
-0.305996
-0.307363
-0.30972
-0.314524
-0.322222
-0.333097
-0.347402
-0.36551
-0.387683
-0.411601
-0.301393
-0.303631
-0.306357
-0.311535
-0.319628
-0.330913
-0.345673
-0.364258
-0.386596
-0.412007
-0.296702
-0.299774
-0.302817
-0.308299
-0.316692
-0.328275
-0.343344
-0.36219
-0.384695
-0.411035
-0.292188
-0.296019
-0.299329
-0.305052
-0.313667
-0.325453
-0.340704
-0.359659
-0.382288
-0.409077
-0.288135
-0.292614
-0.296141
-0.302048
-0.310821
-0.322735
-0.338072
-0.357039
-0.37972
-0.406629
-0.284811
-0.289802
-0.293495
-0.299536
-0.308415
-0.320402
-0.335762
-0.354688
-0.37736
-0.404211
-0.282451
-0.287795
-0.2916
-0.297728
-0.306672
-0.318694
-0.334049
-0.352923
-0.375554
-0.402296
-0.281225
-0.28675
-0.290612
-0.296783
-0.305757
-0.317793
-0.333138
-0.351978
-0.374577
-0.401242
-0.431311
-0.462339
-0.493704
-0.522518
-0.547887
-0.567684
-0.581042
-0.586765
-0.584107
-0.572344
-0.550918
-0.518138
-0.471061
-0.405791
-0.320576
-0.220824
-0.118481
-0.0289563
0.0379025
0.079168
0.0977726
0.10092
0.0938849
0.0824261
0.0686537
0.0552517
0.0419516
0.0301398
0.0179258
0.00695135
-0.432663
-0.463639
-0.49503
-0.523837
-0.549179
-0.568949
-0.582252
-0.587932
-0.585254
-0.573548
-0.552259
-0.51974
-0.473043
-0.408165
-0.323128
-0.223234
-0.120511
-0.0305288
0.036714
0.0783271
0.0971413
0.100459
0.0935428
0.0821801
0.0684742
0.0551239
0.0418608
0.0300783
0.0178875
0.00693391
-0.435154
-0.466017
-0.497459
-0.526261
-0.551562
-0.571289
-0.584504
-0.590109
-0.587408
-0.575809
-0.55478
-0.52276
-0.476797
-0.412684
-0.328017
-0.227885
-0.124465
-0.0336398
0.0343532
0.076625
0.0958633
0.0995207
0.0928487
0.0816814
0.0681114
0.0548661
0.0416784
0.0299548
0.0178112
0.00689907
-0.438386
-0.469076
-0.500589
-0.529406
-0.554675
-0.574372
-0.587496
-0.593026
-0.59034
-0.57887
-0.558211
-0.526885
-0.481958
-0.41895
-0.334873
-0.234485
-0.130158
-0.0382386
0.0308572
0.0740418
0.0939158
0.0980827
0.0917872
0.0809187
0.0675598
0.054475
0.0414031
0.0297688
0.0176975
0.006847
-0.441822
-0.472311
-0.503906
-0.532792
-0.558072
-0.577787
-0.590866
-0.59635
-0.593625
-0.582437
-0.562235
-0.531746
-0.488093
-0.426487
-0.343243
-0.242679
-0.137398
-0.0441432
0.0262418
0.0705692
0.0912802
0.0961237
0.0903436
0.0798814
0.0668137
0.0539475
0.0410341
0.0295198
0.0175474
0.00677807
-0.444864
-0.475172
-0.506877
-0.535915
-0.561297
-0.581119
-0.594245
-0.59977
-0.597101
-0.586243
-0.566549
-0.536984
-0.494773
-0.43481
-0.352656
-0.252122
-0.146
-0.0511475
0.0205776
0.0662213
0.087952
0.0936336
0.0885095
0.0785632
0.06587
0.0532819
0.0405711
0.029208
0.017362
0.00669291
-0.446942
-0.477128
-0.509004
-0.538309
-0.563924
-0.583985
-0.597302
-0.60301
-0.600589
-0.590026
-0.570896
-0.542297
-0.501615
-0.44347
-0.362692
-0.262489
-0.155444
-0.0592192
0.0139517
0.0610345
0.0839454
0.0906181
0.0862868
0.0769645
0.0647297
0.0524792
0.0400155
0.0288346
0.0171429
0.00659249
-0.447551
-0.477719
-0.509866
-0.539576
-0.56559
-0.586061
-0.599752
-0.605819
-0.603777
-0.593604
-0.575085
-0.547451
-0.508323
-0.452115
-0.372989
-0.27323
-0.165598
-0.0681611
0.0064627
0.0550638
0.0792955
0.0870976
0.0836884
0.0750933
0.0633984
0.0515434
0.0393705
0.0284017
0.0168919
0.00647806
-0.446455
-0.476589
-0.509141
-0.539404
-0.566
-0.58708
-0.601357
-0.60798
-0.606456
-0.596827
-0.578977
-0.552291
-0.514696
-0.460497
-0.383017
-0.283987
-0.17631
-0.0778101
-0.00177647
0.0483833
0.0740517
0.0831056
0.0807364
0.0729641
0.0618861
0.0504812
0.0386406
0.0279125
0.0166109
0.00635106
-0.442454
-0.473684
-0.506658
-0.537563
-0.564953
-0.58683
-0.601921
-0.609319
-0.608508
-0.599578
-0.58248
-0.556736
-0.52051
-0.468179
-0.392587
-0.294769
-0.187272
-0.0879813
-0.0106407
0.0410795
0.0682749
0.0786849
0.0774604
0.070597
0.060206
0.0493015
0.0378317
0.0273711
0.0163023
0.00621306
-0.43676
-0.468788
-0.502237
-0.533965
-0.562234
-0.585148
-0.601267
-0.609673
-0.609795
-0.601728
-0.585463
-0.56063
-0.525718
-0.475239
-0.401601
-0.305236
-0.198284
-0.0985007
-0.020001
0.0332475
0.062034
0.0738851
0.0738949
0.0680156
0.0583738
0.0480148
0.0369508
0.026782
0.0159686
0.00606562
-0.429125
-0.462089
-0.495992
-0.528549
-0.557843
-0.58194
-0.599309
-0.60893
-0.610155
-0.603176
-0.58789
-0.564012
-0.530253
-0.481472
-0.409866
-0.315223
-0.209166
-0.109207
-0.0297281
0.0249867
0.055402
0.0687597
0.0700773
0.0652455
0.0564065
0.0466325
0.0360052
0.02615
0.0156121
0.00591023
-0.419888
-0.453781
-0.488067
-0.521417
-0.551782
-0.577171
-0.595954
-0.607012
-0.609487
-0.603821
-0.58964
-0.566759
-0.534064
-0.486819
-0.417269
-0.324581
-0.219763
-0.119956
-0.0397006
0.0163941
0.0484509
0.0633623
0.0660451
0.0623128
0.0543214
0.0451661
0.0350024
0.0254799
0.0152354
0.00574829
-0.409675
-0.444159
-0.478708
-0.512765
-0.544163
-0.570889
-0.591203
-0.603874
-0.608334
-0.603616
-0.590645
-0.568809
-0.537102
-0.491222
-0.423721
-0.333206
-0.229962
-0.130631
-0.0498139
0.00755843
0.0412498
0.0577453
0.0618356
0.0592427
0.0521356
0.0436268
0.0339496
0.0247765
0.0148408
0.00558101
-0.39922
-0.433624
-0.468251
-0.502872
-0.535187
-0.563219
-0.585112
-0.599472
-0.605445
-0.60245
-0.590829
-0.570095
-0.539329
-0.494663
-0.429167
-0.341027
-0.239672
-0.141129
-0.05996
-0.00142302
0.0338749
0.0519655
0.0574881
0.0560604
0.0498651
0.0420253
0.0328535
0.0240441
0.0144305
0.00540945
-0.38921
-0.422627
-0.457086
-0.49208
-0.525125
-0.554356
-0.577803
-0.593893
-0.601572
-0.600314
-0.590126
-0.570547
-0.540693
-0.497142
-0.433558
-0.347942
-0.248745
-0.151272
-0.0699701
-0.0104142
0.0264218
0.0460863
0.0530436
0.0527927
0.0475261
0.0403714
0.0317201
0.0232863
0.0140064
0.00523437
-0.380154
-0.41159
-0.445588
-0.480728
-0.514269
-0.544531
-0.569437
-0.587236
-0.596717
-0.597176
-0.588472
-0.570085
-0.541125
-0.498602
-0.436835
-0.353809
-0.257022
-0.160924
-0.0797461
-0.0193469
0.0189336
0.0401381
0.0485241
0.0494605
0.0451349
0.0386759
0.0305561
0.0225072
0.0135703
0.00505651
-0.372286
-0.400889
-0.434145
-0.469144
-0.502905
-0.533978
-0.560206
-0.579646
-0.590939
-0.593079
-0.585866
-0.568684
-0.540635
-0.499153
-0.439263
-0.359019
-0.265019
-0.170622
-0.0897296
-0.0285119
0.0112468
0.034047
0.0439032
0.0460596
0.0426999
0.0369498
0.0293702
0.0217134
0.0131261
0.00487735
-0.365507
-0.390342
-0.422814
-0.457632
-0.491461
-0.523104
-0.550386
-0.571218
-0.584016
-0.587968
-0.582243
-0.566366
-0.539426
-0.499276
-0.441626
-0.364446
-0.273524
-0.180954
-0.100289
-0.0381041
0.00328098
0.0277867
0.039177
0.0425784
0.0402131
0.0351922
0.028165
0.020908
0.0126764
0.00469816
-0.361795
-0.38089
-0.411183
-0.444803
-0.478188
-0.510094
-0.538327
-0.560654
-0.57537
-0.58083
-0.576797
-0.562338
-0.536474
-0.49739
-0.44147
-0.366752
-0.278408
-0.187893
-0.108218
-0.0459749
-0.00369329
0.0220052
0.0346384
0.0391157
0.0376783
0.033373
0.026909
0.0200639
0.012204
0.00451254
-0.347583
-0.37117
-0.404061
-0.437455
-0.470277
-0.501826
-0.53004
-0.552577
-0.56754
-0.573755
-0.569816
-0.555256
-0.528955
-0.489221
-0.43328
-0.359963
-0.274496
-0.187698
-0.111249
-0.0511635
-0.00961848
0.0162542
0.0296601
0.0350608
0.0345818
0.0310685
0.0252846
0.0189527
0.0115769
0.00426794
-0.348091
-0.370999
-0.401387
-0.432174
-0.46258
-0.492099
-0.518767
-0.540164
-0.554267
-0.559594
-0.555161
-0.540114
-0.513309
-0.473346
-0.418468
-0.34836
-0.267921
-0.186664
-0.114669
-0.0573859
-0.016841
0.00919911
0.0235092
0.0299992
0.0306582
0.0281189
0.0231928
0.0175245
0.0107677
0.00395592
-0.347698
-0.369244
-0.395994
-0.423939
-0.451889
-0.479126
-0.503858
-0.523772
-0.536738
-0.541185
-0.536254
-0.52092
-0.494118
-0.454766
-0.401925
-0.335928
-0.261135
-0.185625
-0.118055
-0.0634775
-0.0239278
0.00222737
0.0173541
0.0248659
0.0266237
0.0250524
0.0209968
0.0160178
0.00990928
0.00363229
-0.34377
-0.364062
-0.387069
-0.411767
-0.437075
-0.461886
-0.484474
-0.502686
-0.514683
-0.518455
-0.513239
-0.497955
-0.471723
-0.433764
-0.383725
-0.322377
-0.253505
-0.183869
-0.120847
-0.0691024
-0.0307141
-0.00458998
0.0112334
0.0196966
0.0225151
0.0219022
0.0187236
0.0144528
0.00901479
0.00330138
-0.335903
-0.355716
-0.375688
-0.397009
-0.41939
-0.441591
-0.461859
-0.478207
-0.488914
-0.492304
-0.487042
-0.472215
-0.447152
-0.411331
-0.364753
-0.308421
-0.24556
-0.181739
-0.123219
-0.0743176
-0.0371858
-0.0112139
0.00518756
0.0145224
0.0183519
0.018679
0.0163779
0.0128314
0.00808377
0.00296165
-0.325456
-0.345
-0.362687
-0.380934
-0.400347
-0.419886
-0.437804
-0.452234
-0.461546
-0.464433
-0.459278
-0.445238
-0.421783
-0.388575
-0.345798
-0.294521
-0.237467
-0.179216
-0.125079
-0.0790342
-0.0432718
-0.0175895
-0.000740826
0.00937477
0.0141555
0.0153963
0.0139672
0.0111576
0.00711747
0.00261337
-0.313555
-0.332553
-0.348542
-0.364231
-0.38089
-0.397868
-0.413538
-0.426132
-0.434135
-0.436387
-0.431393
-0.418319
-0.396692
-0.36629
-0.327367
-0.28096
-0.229374
-0.176378
-0.126466
-0.0832623
-0.0489558
-0.0236861
-0.00651781
0.0042828
0.0099485
0.0120703
0.0115017
0.00943771
0.00611911
0.00225759
-0.30065
-0.318943
-0.333611
-0.347257
-0.36152
-0.376156
-0.389757
-0.400678
-0.407502
-0.409117
-0.404306
-0.392259
-0.372518
-0.344917
-0.309721
-0.267883
-0.221359
-0.173262
-0.127381
-0.086982
-0.0542064
-0.0294677
-0.0121078
-0.000723273
0.00575463
0.00871821
0.00899322
0.00767908
0.00509257
0.0018953
-0.287216
-0.304662
-0.318203
-0.330224
-0.34249
-0.355064
-0.366808
-0.376228
-0.381996
-0.383079
-0.378481
-0.36746
-0.349566
-0.324646
-0.292953
-0.255337
-0.213459
-0.169899
-0.127841
-0.090195
-0.0590103
-0.0349093
-0.0174804
-0.00561456
0.00159804
0.00535863
0.00645444
0.00588992
0.00404231
0.00152757
-0.273587
-0.290034
-0.302568
-0.313286
-0.32392
-0.334734
-0.344852
-0.352954
-0.357817
-0.358476
-0.354112
-0.344072
-0.327922
-0.305514
-0.277067
-0.243325
-0.205696
-0.166319
-0.127867
-0.0929055
-0.0633555
-0.0399874
-0.0226056
-0.0103619
-0.00249616
0.00201121
0.0038996
0.00407944
0.00297355
0.00115571
-0.259903
-0.275301
-0.286916
-0.296565
-0.305871
-0.315213
-0.323928
-0.330884
-0.334976
-0.335318
-0.331214
-0.3221
-0.307575
-0.287493
-0.262035
-0.231836
-0.198079
-0.162549
-0.127484
-0.0951235
-0.0672358
-0.0446837
-0.0274569
-0.0149372
-0.00650261
-0.00130339
0.00134412
0.0022579
0.00189221
0.000781253
-0.246332
-0.260671
-0.271426
-0.280172
-0.288391
-0.296507
-0.30403
-0.310002
-0.313446
-0.313564
-0.309745
-0.301503
-0.288484
-0.270543
-0.247821
-0.220849
-0.190617
-0.158618
-0.126721
-0.0968642
-0.0706496
-0.0489836
-0.0320105
-0.0193136
-0.0103958
-0.00456374
-0.00119548
0.000436456
0.000804876
0.000406008
-0.233038
-0.246303
-0.256244
-0.264209
-0.271526
-0.278626
-0.285145
-0.290285
-0.293193
-0.293161
-0.289645
-0.282226
-0.270594
-0.254614
-0.234385
-0.210347
-0.183322
-0.154557
-0.12561
-0.098148
-0.0736
-0.0528772
-0.0362463
-0.0234658
-0.0141506
-0.00774811
-0.00370194
-0.00137293
-0.000281308
3.20029e-05
-0.220119
-0.232318
-0.241487
-0.248767
-0.255326
-0.261582
-0.267263
-0.271707
-0.274179
-0.274055
-0.270853
-0.264208
-0.253852
-0.239657
-0.221693
-0.200317
-0.176206
-0.150397
-0.124187
-0.0989996
-0.0760948
-0.0563589
-0.0401483
-0.0273717
-0.017743
-0.0108348
-0.00615751
-0.00315771
-0.00135874
-0.000338526
-0.207654
-0.218819
-0.227257
-0.233925
-0.239839
-0.245391
-0.250376
-0.254243
-0.256366
-0.256197
-0.253312
-0.247393
-0.238205
-0.225634
-0.20972
-0.190753
-0.169284
-0.146172
-0.12249
-0.0994478
-0.0781473
-0.0594282
-0.043705
-0.0310118
-0.0211507
-0.0138026
-0.00854442
-0.00490499
-0.00241952
-0.000703174
-0.19572
-0.205889
-0.213632
-0.219749
-0.22511
-0.230072
-0.234477
-0.237871
-0.239716
-0.239541
-0.236971
-0.23173
-0.22361
-0.212509
-0.198447
-0.181654
-0.162573
-0.141912
-0.120555
-0.0995249
-0.0797758
-0.0620896
-0.0469095
-0.034371
-0.0243534
-0.0166316
-0.0108453
-0.00660181
-0.00345558
-0.00105942
-0.184371
-0.193588
-0.200676
-0.206293
-0.211176
-0.21564
-0.219563
-0.222568
-0.224199
-0.224046
-0.221785
-0.217173
-0.210026
-0.200253
-0.187858
-0.17302
-0.156092
-0.137651
-0.118421
-0.0992659
-0.0810041
-0.0643527
-0.0497599
-0.037438
-0.0273341
-0.0193034
-0.0130434
-0.00823547
-0.00445893
-0.0014047
-0.173645
-0.181966
-0.188439
-0.193601
-0.198067
-0.202108
-0.205629
-0.208317
-0.209783
-0.209677
-0.207713
-0.203682
-0.197419
-0.188841
-0.17794
-0.164854
-0.149857
-0.133419
-0.116128
-0.098709
-0.0818607
-0.0662322
-0.0522589
-0.0402063
-0.0300793
-0.0218017
-0.0151234
-0.00979382
-0.00542177
-0.00173644
-0.163576
-0.17106
-0.176962
-0.18171
-0.185809
-0.18949
-0.192675
-0.195104
-0.196446
-0.196401
-0.194721
-0.191222
-0.185758
-0.178252
-0.168684
-0.15716
-0.143888
-0.129248
-0.113715
-0.0978948
-0.0823784
-0.0677483
-0.0544141
-0.0426735
-0.032579
-0.0241129
-0.0170715
-0.0112656
-0.00633673
-0.00205218
-0.15419
-0.160902
-0.166274
-0.170646
-0.174425
-0.177797
-0.180701
-0.182916
-0.184166
-0.184192
-0.182779
-0.179764
-0.175018
-0.168466
-0.160083
-0.149943
-0.138206
-0.125173
-0.111225
-0.0968663
-0.0825942
-0.0689258
-0.0562379
-0.0448422
-0.0348278
-0.0262265
-0.0188759
-0.0126407
-0.00719702
-0.00234959
-0.145509
-0.151512
-0.156401
-0.160434
-0.16393
-0.167039
-0.169705
-0.171746
-0.172928
-0.173029
-0.171861
-0.169284
-0.165176
-0.15947
-0.152132
-0.143215
-0.132833
-0.121227
-0.108699
-0.0956688
-0.0825483
-0.0697943
-0.0577474
-0.0467191
-0.036824
-0.0281354
-0.020527
-0.0139105
-0.0079966
-0.00262655
-0.13755
-0.142913
-0.147363
-0.151091
-0.15434
-0.157223
-0.159689
-0.161587
-0.162718
-0.162893
-0.161949
-0.159761
-0.156218
-0.151255
-0.144833
-0.136986
-0.127795
-0.117449
-0.106185
-0.0943497
-0.0822841
-0.070388
-0.0589643
-0.0483152
-0.0385703
-0.0298359
-0.0220178
-0.0150677
-0.00873026
-0.00288122
-0.130331
-0.135119
-0.139176
-0.142633
-0.145667
-0.148357
-0.150655
-0.152434
-0.153527
-0.153773
-0.153029
-0.151183
-0.148133
-0.143818
-0.138192
-0.131275
-0.123121
-0.113878
-0.103728
-0.092958
-0.0818475
-0.0707444
-0.0599148
-0.0496461
-0.0400732
-0.0313276
-0.0233437
-0.016107
-0.00939371
-0.00311201
-0.123868
-0.12815
-0.131858
-0.135077
-0.137924
-0.14045
-0.142608
-0.144289
-0.145353
-0.145664
-0.145094
-0.143545
-0.140921
-0.137163
-0.132221
-0.126105
-0.118844
-0.110555
-0.101377
-0.0915449
-0.0812867
-0.0709045
-0.0606293
-0.0507307
-0.0413427
-0.0326136
-0.0245029
-0.0170243
-0.00998354
-0.00331764
-0.118182
-0.122024
-0.125429
-0.128441
-0.131129
-0.133518
-0.135558
-0.137158
-0.1382
-0.138567
-0.138148
-0.136852
-0.13459
-0.131304
-0.126942
-0.121504
-0.115003
-0.107528
-0.099183
-0.090163
-0.0806516
-0.0709113
-0.061141
-0.0515917
-0.0423915
-0.0336993
-0.0254955
-0.0178174
-0.0104971
-0.00349708
-0.113299
-0.116768
-0.119914
-0.122751
-0.125307
-0.127582