/*--------------------------------*- C++ -*----------------------------------*\
  =========                 |
  \\      /  F ield         | OpenFOAM: The Open Source CFD Toolbox
   \\    /   O peration     | Website:  https://openfoam.org
    \\  /    A nd           | Version:  7
     \\/     M anipulation  |
\*---------------------------------------------------------------------------*/
FoamFile
{
    version     2.0;
    format      ascii;
    class       surfaceScalarField;
    location    "10";
    object      phi;
}
// * * * * * * * * * * * * * * * * * * * * * * * * * * * * * * * * * * * * * //

dimensions      [0 3 -1 0 0 0 0];

internalField   nonuniform List<scalar> 
16735
(
-4.46945e-06
4.46918e-06
2.67815e-10
-1.40637e-05
9.59367e-06
5.33977e-10
-2.70175e-05
1.29532e-05
6.55667e-10
-4.24902e-05
1.5472e-05
7.04853e-10
-6.03634e-05
1.78725e-05
7.2526e-10
-8.0909e-05
2.05449e-05
7.29054e-10
-0.000104524
2.36138e-05
7.10598e-10
-0.000131597
2.70723e-05
6.58847e-10
-0.00016248
3.08832e-05
5.60864e-10
3.51297e-05
4.03118e-10
-0.00019761
-4.27031e-06
8.73949e-06
-1.35307e-05
1.8854e-05
-2.61016e-05
2.55241e-05
-4.11433e-05
3.05136e-05
-5.84979e-05
3.52272e-05
-7.83882e-05
4.04351e-05
-0.000101159
4.63848e-05
-0.000127143
5.30565e-05
-0.000156607
6.0347e-05
6.84073e-05
-0.000189885
-3.88484e-06
1.26243e-05
-1.24922e-05
2.74614e-05
-2.43108e-05
3.73427e-05
-3.85066e-05
4.47094e-05
-5.48481e-05
5.15687e-05
-7.34632e-05
5.90502e-05
-9.4599e-05
6.75207e-05
-0.000118484
7.69415e-05
-0.000145229
8.70917e-05
9.81411e-05
-0.000174963
-3.33781e-06
1.59621e-05
-1.10019e-05
3.51256e-05
-2.17251e-05
4.80659e-05
-3.46914e-05
5.76758e-05
-4.95703e-05
6.64475e-05
-6.63571e-05
7.5837e-05
-8.51624e-05
8.6326e-05
-0.000106079
9.78584e-05
-0.000129027
0.000110039
0.000122926
-0.000153812
-2.6643e-06
1.86264e-05
-9.13719e-06
4.15985e-05
-1.84603e-05
5.73889e-05
-2.98572e-05
6.90727e-05
-4.28853e-05
7.94756e-05
-5.73808e-05
9.03325e-05
-7.32878e-05
0.000102233
-9.05464e-05
0.000115117
-0.000108905
0.000128398
0.000141712
-0.000127691
-1.90728e-06
2.05337e-05
-6.99535e-06
4.66865e-05
-1.4663e-05
6.50565e-05
-2.42039e-05
7.86137e-05
-3.50654e-05
9.03371e-05
-4.69098e-05
0.000102177
-5.94964e-05
0.00011482
-7.25939e-05
0.000128214
-8.58712e-05
0.000141675
0.000153839
-9.79985e-05
-1.11449e-06
2.16482e-05
-4.68913e-06
5.02612e-05
-1.05053e-05
7.08727e-05
-1.79643e-05
8.60727e-05
-2.64206e-05
9.87934e-05
-3.53617e-05
0.000111118
-4.43568e-05
0.000123815
-5.29684e-05
0.000136826
-6.09315e-05
0.000149638
0.000159066
-6.61577e-05
-3.34851e-07
2.19831e-05
-2.34083e-06
5.22672e-05
-6.17842e-06
7.47103e-05
-1.13962e-05
9.12905e-05
-1.72874e-05
0.000104685
-2.31768e-05
0.000117007
-2.84577e-05
0.000129096
-3.24395e-05
0.000140808
-3.49905e-05
0.000152189
0.000157678
-3.36028e-05
3.8538e-07
2.15977e-05
-6.18015e-08
5.27143e-05
-1.88543e-06
7.65339e-05
-4.77537e-06
9.41804e-05
-8.01967e-06
0.000107929
-1.08057e-05
0.000119793
-1.23847e-05
0.000130675
-1.18537e-05
0.000140277
-8.67655e-06
0.000149012
0.000151252
-2.25056e-06
1.00401e-06
2.05937e-05
1.98439e-06
5.1734e-05
2.16241e-06
7.63559e-05
1.61139e-06
9.47314e-05
1.01591e-06
0.000108524
1.29262e-06
0.000119517
3.33925e-06
0.000128628
8.11544e-06
0.000135501
1.63376e-05
0.00014079
0.000138046
2.95437e-05
1.49276e-06
1.91009e-05
3.73937e-06
4.94873e-05
5.76975e-06
7.43255e-05
7.47634e-06
9.30248e-05
9.45954e-06
0.000106541
1.26804e-05
0.000116296
1.81219e-05
0.000123187
2.70133e-05
0.000126609
3.96178e-05
0.000128185
0.000118976
5.86878e-05
1.83187e-06
1.7269e-05
5.09651e-06
4.62227e-05
8.75288e-06
7.06691e-05
1.25368e-05
8.92409e-05
1.69324e-05
0.000102146
2.28915e-05
0.000110337
3.14541e-05
0.000114624
4.39302e-05
0.000114133
6.05263e-05
0.000111589
9.4721e-05
8.4781e-05
2.01389e-06
1.52552e-05
5.99982e-06
4.22368e-05
1.09625e-05
6.57064e-05
1.65378e-05
8.36656e-05
2.30815e-05
9.56019e-05
3.14817e-05
0.000101936
4.28062e-05
0.000103299
5.82889e-05
9.86504e-05
7.81032e-05
9.1775e-05
6.58565e-05
0.000106968
2.04249e-06
1.32127e-05
6.424e-06
3.78553e-05
1.2298e-05
5.98324e-05
1.92732e-05
7.66905e-05
2.75897e-05
8.72854e-05
3.80269e-05
9.14993e-05
5.16802e-05
8.96462e-05
6.94899e-05
8.08407e-05
9.16358e-05
6.96291e-05
3.29814e-05
0.000124511
1.92981e-06
1.12829e-05
6.3761e-06
3.3409e-05
1.27187e-05
5.34898e-05
2.06144e-05
6.87948e-05
3.02212e-05
7.76786e-05
4.21855e-05
7.95349e-05
5.7651e-05
7.41807e-05
7.70173e-05
6.14744e-05
0.000100971
4.56754e-05
-3.51421e-06
0.000137467
1.6938e-06
9.58905e-06
5.89371e-06
2.92091e-05
1.2253e-05
4.71306e-05
2.05411e-05
6.05066e-05
3.08808e-05
6.73389e-05
4.38001e-05
6.66156e-05
6.05174e-05
5.74634e-05
8.06914e-05
4.13004e-05
0.000107085
1.92817e-05
-4.3878e-05
0.000147449
1.35668e-06
8.23237e-06
5.04247e-06
2.55233e-05
1.10033e-05
4.11698e-05
1.91696e-05
5.23403e-05
2.96884e-05
5.68201e-05
4.30441e-05
5.32598e-05
6.0562e-05
3.99456e-05
8.13276e-05
2.05348e-05
0.00011268
-1.20707e-05
-8.85759e-05
0.000157378
9.45504e-07
7.28687e-06
3.91585e-06
2.25529e-05
9.15083e-06
3.59348e-05
1.67794e-05
4.47118e-05
2.7056e-05
4.65435e-05
4.05862e-05
3.97296e-05
5.88937e-05
2.16381e-05
8.15354e-05
-2.10696e-06
0.000121617
-5.21519e-05
-0.000136869
0.00016991
4.94289e-07
6.79258e-06
2.63682e-06
2.04104e-05
6.9588e-06
3.16128e-05
1.38295e-05
3.78411e-05
2.37403e-05
3.66326e-05
3.7691e-05
2.57789e-05
5.75457e-05
1.78338e-06
8.55807e-05
-3.0142e-05
0.000137201
-0.000103773
-0.000184807
0.000185139
4.70095e-08
6.74557e-06
1.35827e-06
1.90991e-05
4.766e-06
2.82051e-05
1.09449e-05
3.16622e-05
2.08112e-05
2.67664e-05
3.61017e-05
1.04884e-05
5.92964e-05
-2.14113e-05
9.73639e-05
-6.82095e-05
0.000158872
-0.00016528
-0.00023064
0.000204705
-3.51166e-07
7.09673e-06
2.59025e-07
1.8489e-05
2.95595e-06
2.55082e-05
8.84298e-06
2.57752e-05
1.94775e-05
1.61318e-05
3.76666e-05
-7.70071e-06
6.6968e-05
-5.07127e-05
0.000116887
-0.000118128
0.000180798
-0.000229192
-0.000315021
0.00026518
-6.47575e-07
7.74431e-06
-5.11092e-07
1.83525e-05
1.89147e-06
2.31056e-05
8.19207e-06
1.94746e-05
2.08037e-05
3.52019e-06
4.37444e-05
-3.06414e-05
8.19247e-05
-8.8893e-05
0.000141356
-0.00017756
0.000211603
-0.000299438
-0.000404511
0.000301092
-8.07565e-07
8.55187e-06
-8.22492e-07
1.83674e-05
1.83908e-06
2.0444e-05
9.45491e-06
1.18588e-05
2.54344e-05
-1.24593e-05
5.48421e-05
-6.00492e-05
0.000102683
-0.000136734
0.000169297
-0.000244174
0.000241945
-0.000372087
-0.000483808
0.000321242
-8.14876e-07
9.36675e-06
-6.13581e-07
1.81661e-05
2.91736e-06
1.69131e-05
1.28002e-05
1.97591e-06
3.3467e-05
-3.31261e-05
7.04657e-05
-9.70478e-05
0.000126565
-0.000192833
0.00019619
-0.000313799
0.000264713
-0.00044061
-0.000550819
0.000331724
-6.78609e-07
1.00454e-05
1.07849e-07
1.73796e-05
5.09582e-06
1.19251e-05
1.81297e-05
-1.1058e-05
4.45267e-05
-5.95231e-05
8.91535e-05
-0.000141675
0.00015045
-0.00025413
0.000218
-0.000381348
0.000279479
-0.000502089
-0.000605918
0.000334578
-4.31678e-07
1.0477e-05
1.22514e-06
1.57228e-05
8.23697e-06
4.91329e-06
2.51921e-05
-2.80131e-05
5.79067e-05
-9.22376e-05
0.000108849
-0.000192617
0.000171379
-0.000316661
0.00023339
-0.000443358
0.000286403
-0.000555102
-0.000650192
0.000330677
-8.86846e-08
1.05657e-05
2.70468e-06
1.29295e-05
1.21869e-05
-4.56891e-06
3.36877e-05
-4.9514e-05
7.26305e-05
-0.00013118
0.000127421
-0.000247407
0.00018758
-0.00037682
0.000242228
-0.000498007
0.000286751
-0.000599624
-0.000686089
0.000322648
3.0597e-07
1.02598e-05
4.45641e-06
8.77903e-06
1.68177e-05
-1.69302e-05
4.32849e-05
-7.59812e-05
8.75096e-05
-0.000175405
0.000143175
-0.000303073
0.00019844
-0.000432085
0.000245264
-0.000544831
0.000282185
-0.000636544
-0.000715298
0.000311394
7.38097e-07
9.52165e-06
6.44017e-06
3.07695e-06
2.20479e-05
-3.25379e-05
5.35479e-05
-0.000107481
0.000101307
-0.000223164
0.000155128
-0.000356894
0.00020418
-0.000481137
0.00024355
-0.000584201
0.000273952
-0.000666947
-0.000739435
0.000298089
1.21401e-06
8.30764e-06
8.64793e-06
-4.35697e-06
2.78072e-05
-5.16972e-05
6.38863e-05
-0.00014356
0.000112983
-0.00027226
0.000162985
-0.000406895
0.000205434
-0.000523587
0.000238128
-0.000616894
0.000263196
-0.000692015
-0.000759656
0.000283418
1.74157e-06
6.56607e-06
1.10888e-05
-1.37042e-05
3.39661e-05
-7.45744e-05
7.36012e-05
-0.000183195
0.000121889
-0.000320548
0.000166929
-0.000451936
0.000202986
-0.000559644
0.000229948
-0.000643856
0.000250702
-0.00071277
-0.00077681
0.000267856
2.33238e-06
4.23369e-06
1.37667e-05
-2.51385e-05
4.02844e-05
-0.000101092
8.20202e-05
-0.000224931
0.000127796
-0.000366324
0.000167409
-0.000491548
0.000197615
-0.00058985
0.000219774
-0.000666015
0.000237065
-0.000730061
-0.000791516
0.000251771
2.99445e-06
1.23923e-06
1.66573e-05
-3.88014e-05
4.64225e-05
-0.000130857
8.86488e-05
-0.000267158
0.000130791
-0.000408466
0.000164976
-0.000525733
0.000190017
-0.000614891
0.000208212
-0.00068421
0.000222698
-0.000744546
-0.000804171
0.000235353
3.7282e-06
-2.48896e-06
1.96912e-05
-5.47645e-05
5.19954e-05
-0.000163161
9.32422e-05
-0.000308404
0.000131145
-0.000446369
0.000160193
-0.000554781
0.000180779
-0.000635478
0.000195712
-0.000699144
0.000207878
-0.000756712
-0.000815051
0.000218758
4.52592e-06
-7.01488e-06
2.27517e-05
-7.29902e-05
5.66542e-05
-0.000197064
9.57823e-05
-0.000347532
0.000129221
-0.000479807
0.000153575
-0.000579135
0.000170371
-0.000652274
0.000182606
-0.000711379
0.000192799
-0.000766905
-0.000824319
0.000202067
5.37299e-06
-1.23879e-05
2.56879e-05
-9.33051e-05
6.01536e-05
-0.00023153
9.63985e-05
-0.000383777
0.000125409
-0.000508818
0.000145571
-0.000599297
0.000159159
-0.000665862
0.000169129
-0.000721349
0.000177587
-0.000775363
-0.000832081
0.000185349
6.24878e-06
-1.86367e-05
2.83381e-05
-0.000115394
6.23792e-05
-0.000265571
9.52989e-05
-0.000416697
0.000120084
-0.000533602
0.000136554
-0.000615767
0.000147421
-0.000676729
0.000155447
-0.000729374
0.00016233
-0.000782245
-0.000838397
0.000168646
7.12748e-06
-2.57641e-05
3.05555e-05
-0.000138822
6.33379e-05
-0.000298353
9.27278e-05
-0.000446087
0.000113583
-0.000554458
0.000126826
-0.00062901
0.000135367
-0.00068527
0.000141679
-0.000735687
0.000147089
-0.000787655
-0.000843306
0.000151998
7.97948e-06
-3.37436e-05
3.22291e-05
-0.000163072
6.3121e-05
-0.000329245
8.89378e-05
-0.000471904
0.000106199
-0.000571719
0.000116626
-0.000639437
0.000123146
-0.000691791
0.000127906
-0.000740446
0.00013191
-0.000791659
-0.000846833
0.000135438
8.77299e-06
-4.25166e-05
3.32938e-05
-0.000187593
6.1859e-05
-0.00035781
8.417e-05
-0.000494215
9.81742e-05
-0.000585723
0.000106137
-0.0006474
0.000110872
-0.000696526
0.000114188
-0.000743762
0.000116826
-0.000794298
-0.000849005
0.000118997
9.47553e-06
-5.19921e-05
3.37297e-05
-0.000211847
5.96978e-05
-0.000383778
7.86428e-05
-0.00051316
8.97104e-05
-0.00059679
9.54997e-05
-0.000653189
9.86218e-05
-0.000699648
0.000100565
-0.000745706
0.000101866
-0.000795598
-0.000849833
0.000102695
1.00552e-05
-6.20473e-05
3.3555e-05
-0.000235347
5.67838e-05
-0.000407007
7.25463e-05
-0.000528922
8.09688e-05
-0.000605213
8.48192e-05
-0.000657039
8.64539e-05
-0.000701282
8.70712e-05
-0.000746323
8.70488e-05
-0.000795576
-0.000849308
8.65232e-05
1.04827e-05
-7.253e-05
3.2814e-05
-0.000257678
5.32554e-05
-0.000427449
6.60415e-05
-0.000541708
7.2078e-05
-0.000611249
7.41748e-05
-0.000659136
7.44093e-05
-0.000701517
7.37268e-05
-0.000745641
7.23906e-05
-0.000794239
-0.000847414
7.04971e-05
1.07349e-05
-8.32649e-05
3.1565e-05
-0.000278508
4.92404e-05
-0.000445124
5.92629e-05
-0.000551731
6.31391e-05
-0.000615126
6.3627e-05
-0.000659624
6.25206e-05
-0.00070041
6.0549e-05
-0.000743669
5.79006e-05
-0.000791591
-0.000844144
5.46307e-05
1.08002e-05
-9.40651e-05
2.98977e-05
-0.000297606
4.48575e-05
-0.000460084
5.23206e-05
-0.000559194
5.42293e-05
-0.000617034
5.32216e-05
-0.000658616
5.08173e-05
-0.000698006
4.75597e-05
-0.000740411
4.3581e-05
-0.000787612
-0.000839484
3.8921e-05
1.06775e-05
-0.000104743
2.78885e-05
-0.000314817
4.02111e-05
-0.000472406
4.53037e-05
-0.000564287
4.54071e-05
-0.000617138
4.29918e-05
-0.000656201
3.93263e-05
-0.000694341
3.47986e-05
-0.000735884
2.94418e-05
-0.000782256
-0.000833375
2.33322e-05
1.03747e-05
-0.000115117
2.56023e-05
-0.000330044
3.53887e-05
-0.000482193
3.8284e-05
-0.000567182
3.67166e-05
-0.00061557
3.29605e-05
-0.000652445
2.80628e-05
-0.000689443
2.23069e-05
-0.000730128
1.55632e-05
-0.000775512
-0.00082557
7.75855e-06
9.90615e-06
-0.000125023
2.30994e-05
-0.000343238
3.04634e-05
-0.000489557
3.13186e-05
-0.000568037
2.81918e-05
-0.000612443
2.31465e-05
-0.0006474
1.70274e-05
-0.000683324
1.00445e-05
-0.000723145
2.27222e-06
-0.00076774
-0.000816058
-7.24022e-06
9.29137e-06
-0.000134315
2.04347e-05
-0.000354381
2.54957e-05
-0.000494618
2.44517e-05
-0.000566993
1.98585e-05
-0.00060785
1.35648e-05
-0.000641106
6.21484e-06
-0.000675974
-2.08598e-06
-0.000714844
-1.12277e-05
-0.000758598
-0.000805738
-2.15475e-05
8.5528e-06
-0.000142868
1.76584e-05
-0.000363487
2.05356e-05
-0.000497495
1.77162e-05
-0.000564174
1.17345e-05
-0.000601868
4.20155e-06
-0.000633573
-4.30603e-06
-0.000667466
-1.36455e-05
-0.000705505
-2.42699e-05
-0.000747974
-0.000794305
-3.5703e-05
7.71384e-06
-0.000150581
1.48159e-05
-0.000370589
1.5624e-05
-0.000498303
1.11369e-05
-0.000559687
3.80993e-06
-0.000594541
-4.86051e-06
-0.000624902
-1.44653e-05
-0.000657861
-2.50711e-05
-0.000694899
-3.69172e-05
-0.000736127
-0.000781621
-4.96003e-05
6.79713e-06
-0.000157379
1.19476e-05
-0.000375739
1.0793e-05
-0.000497148
4.74553e-06
-0.000553639
-3.83855e-06
-0.000585957
-1.36272e-05
-0.000615114
-2.43936e-05
-0.000647095
-3.62112e-05
-0.000683081
-4.92313e-05
-0.000723107
-0.000767676
-6.31769e-05
5.82493e-06
-0.000163203
9.08685e-06
-0.000379001
6.07602e-06
-0.000494137
-1.43698e-06
-0.000546126
-1.11989e-05
-0.000576195
-2.21475e-05
-0.000604165
-3.40532e-05
-0.000635189
-4.70401e-05
-0.000670094
-6.12308e-05
-0.000708917
-0.000752498
-7.64089e-05
4.82275e-06
-0.000168026
6.26169e-06
-0.00038044
1.54527e-06
-0.000489421
-7.4073e-06
-0.000537174
-1.83486e-05
-0.000565254
-3.04042e-05
-0.00059211
-4.34274e-05
-0.000622166
-5.7556e-05
-0.000655966
-7.2905e-05
-0.000693568
-0.000736161
-8.92419e-05
3.81919e-06
-0.000171845
3.5216e-06
-0.000380142
-2.96901e-06
-0.00048293
-1.3194e-05
-0.000526949
-2.52592e-05
-0.000553189
-3.83918e-05
-0.000578977
-5.25081e-05
-0.00060805
-6.77553e-05
-0.000640719
-8.42312e-05
-0.000677092
-0.000718752
-0.00010164
2.81856e-06
-0.000174664
1.02194e-06
-0.000378346
-7.23455e-06
-0.000474674
-1.87752e-05
-0.000515408
-3.19271e-05
-0.000540037
-4.61069e-05
-0.000564797
-6.1289e-05
-0.000592868
-7.7627e-05
-0.000624381
-9.51971e-05
-0.000659522
-0.000700261
-0.000113688
1.76924e-06
-0.000176433
-1.79759e-06
-0.000374779
-1.13679e-05
-0.000465104
-2.4135e-05
-0.000502641
-3.83472e-05
-0.000525825
-5.35482e-05
-0.000549596
-6.97709e-05
-0.000576645
-8.71705e-05
-0.000606981
-0.000105837
-0.000640855
-0.000680578
-0.00012552
7.14813e-07
-0.000177148
-4.63962e-06
-0.000369425
-1.54202e-05
-0.000454323
-2.92765e-05
-0.000488785
-4.45095e-05
-0.000510592
-6.07133e-05
-0.000533392
-7.79646e-05
-0.000559394
-9.6405e-05
-0.000588541
-0.000116115
-0.000621145
-0.000659787
-0.000136906
-3.02542e-07
-0.000176846
-7.23559e-06
-0.000362491
-1.93121e-05
-0.000442247
-3.42037e-05
-0.000473893
-5.04114e-05
-0.000494384
-6.75969e-05
-0.000516207
-8.58751e-05
-0.000541116
-0.000105357
-0.000569059
-0.000125824
-0.000600678
-0.000638075
-0.000147536
-1.3965e-06
-0.000175449
-9.69323e-06
-0.000354195
-2.30136e-05
-0.000428926
-3.89096e-05
-0.000457997
-5.60523e-05
-0.000477241
-7.41891e-05
-0.00049807
-9.34579e-05
-0.000521847
-0.000113976
-0.000548541
-0.000135762
-0.000578892
-0.000618141
-0.000155696
-2.40821e-06
-0.000173041
-1.20335e-05
-0.000344569
-2.65242e-05
-0.000414436
-4.33883e-05
-0.000441133
-6.14336e-05
-0.000459196
-8.04854e-05
-0.000479018
-0.000100658
-0.000501674
-0.000121858
-0.000527341
-0.000143661
-0.000557089
-0.000590708
-0.000171093
-3.36931e-06
-0.000169671
-1.4259e-05
-0.00033368
-2.985e-05
-0.000398844
-4.76389e-05
-0.000423344
-6.65548e-05
-0.00044028
-8.64817e-05
-0.000459091
-0.000107479
-0.000480677
-0.000129421
-0.000505399
-0.000152617
-0.000533892
-0.000564141
-0.000179185
-4.28491e-06
-0.000165387
-1.63696e-05
-0.000321595
-3.29935e-05
-0.000382221
-5.16606e-05
-0.000404677
-7.141e-05
-0.000420531
-9.21707e-05
-0.000438331
-0.000114017
-0.000458831
-0.000137035
-0.000482381
-0.000161768
-0.000509159
-0.000537415
-0.000188494
-5.1552e-06
-0.000160231
-1.83642e-05
-0.000308386
-3.59561e-05
-0.000364629
-5.54535e-05
-0.00038518
-7.59949e-05
-0.000399989
-9.75431e-05
-0.000416782
-0.000120186
-0.000436188
-0.00014408
-0.000458488
-0.000169653
-0.000483586
-0.000510167
-0.000196901
-5.97871e-06
-0.000154253
-2.02415e-05
-0.000294123
-3.87382e-05
-0.000346132
-5.9018e-05
-0.0003649
-8.03111e-05
-0.000378696
-0.000102618
-0.000394476
-0.000126062
-0.000412744
-0.000150844
-0.000433706
-0.000177255
-0.000457174
-0.000482254
-0.000205169
-6.75344e-06
-0.000147499
-2.20004e-05
-0.000278876
-4.13403e-05
-0.000326792
-6.23537e-05
-0.000343887
-8.43547e-05
-0.000356695
-0.000107375
-0.000371455
-0.000131555
-0.000388564
-0.000157096
-0.000408166
-0.000184223
-0.000430047
-0.000453599
-0.000212877
-7.47677e-06
-0.000140022
-2.36398e-05
-0.000262713
-4.37631e-05
-0.000306669
-6.54619e-05
-0.000322188
-8.81288e-05
-0.000334028
-0.000111825
-0.00034776
-0.000136704
-0.000363684
-0.000162961
-0.000381909
-0.00019078
-0.000402228
-0.000424237
-0.000220143
-8.14695e-06
-0.000131876
-2.51593e-05
-0.000245701
-4.60072e-05
-0.000285821
-6.83427e-05
-0.000299852
-9.16302e-05
-0.000310741
-0.000115954
-0.000323436
-0.000141476
-0.000338162
-0.000168382
-0.000355003
-0.000196847
-0.000373763
-0.000394195
-0.000226889
-8.77113e-06
-0.000123104
-2.65602e-05
-0.000227912
-4.80737e-05
-0.000264307
-7.09974e-05
-0.000276929
-9.48605e-05
-0.000286878
-0.000119767
-0.000298529
-0.000145882
-0.000312047
-0.000173388
-0.000327497
-0.000202455
-0.000344696
-0.000363524
-0.000233126
-9.3469e-06
-0.000113757
-2.7843e-05
-0.000209416
-4.99635e-05
-0.000242187
-7.34263e-05
-0.000253466
-9.78182e-05
-0.000262486
-0.000123259
-0.000273088
-0.000149916
-0.000285391
-0.000177969
-0.000299443
-0.000207588
-0.000315077
-0.000332273
-0.000238838
-9.87224e-06
-0.000103885
-2.9008e-05
-0.00019028
-5.16777e-05
-0.000219517
-7.56305e-05
-0.000229513
-0.000100504
-0.000237612
-0.000126431
-0.000247161
-0.000153579
-0.000258243
-0.00018213
-0.000270893
-0.000212248
-0.000284958
-0.000300497
-0.000244024
-1.03461e-05
-9.35391e-05
-3.00553e-05
-0.000170571
-5.32171e-05
-0.000196355
-7.76107e-05
-0.00020512
-0.000102919
-0.000212304
-0.000129283
-0.000220797
-0.000156872
-0.000230653
-0.000185868
-0.000241898
-0.000216434
-0.000254392
-0.000268252
-0.000248679
-1.0768e-05
-8.27711e-05
-3.09852e-05
-0.000150354
-5.45827e-05
-0.000172758
-7.93679e-05
-0.000180335
-0.000105062
-0.00018661
-0.000131814
-0.000194045
-0.000159796
-0.000202672
-0.000189185
-0.000212509
-0.000220145
-0.000223432
-0.000235593
-0.000252804
-1.11375e-05
-7.16337e-05
-3.17978e-05
-0.000129693
-5.57754e-05
-0.00014878
-8.09029e-05
-0.000155207
-0.000106935
-0.000160579
-0.000134027
-0.000166952
-0.00016235
-0.000174349
-0.000192081
-0.000182778
-0.000223383
-0.00019213
-0.000202576
-0.0002564
-1.14544e-05
-6.01792e-05
-3.24935e-05
-0.000108654
-5.6796e-05
-0.000124478
-8.22166e-05
-0.000129787
-0.000108538
-0.000134257
-0.000135921
-0.00013957
-0.000164535
-0.000145734
-0.000194558
-0.000152754
-0.000226149
-0.000160539
-0.000169258
-0.000259467
-1.17187e-05
-4.84606e-05
-3.30727e-05
-8.73001e-05
-5.76452e-05
-9.99051e-05
-8.33099e-05
-0.000104122
-0.000109872
-0.000107695
-0.000137497
-0.000111945
-0.000166354
-0.000116877
-0.000196618
-0.00012249
-0.000228447
-0.00012871
-0.000135694
-0.000262012
-1.19301e-05
-3.65305e-05
-3.35356e-05
-6.56947e-05
-5.83236e-05
-7.51171e-05
-8.41835e-05
-7.82619e-05
-0.000110939
-8.09399e-05
-0.000138756
-8.41277e-05
-0.000167807
-8.78259e-05
-0.000198263
-9.2034e-05
-0.000230279
-9.66941e-05
-0.000101935
-0.000264037
-1.20887e-05
-2.44417e-05
-3.38825e-05
-4.39009e-05
-5.8832e-05
-5.01676e-05
-8.48381e-05
-5.22558e-05
-0.000111738
-5.40402e-05
-0.0001397
-5.61654e-05
-0.000168895
-5.86307e-05
-0.000199494
-6.14349e-05
-0.00023165
-6.45389e-05
-6.80347e-05
-0.00026555
-1.21945e-05
-1.22473e-05
-3.41136e-05
-2.19817e-05
-5.91706e-05
-2.51106e-05
-8.52742e-05
-2.61522e-05
-0.00011227
-2.70441e-05
-0.000140329
-2.81067e-05
-0.00016962
-2.93393e-05
-0.000200314
-3.0741e-05
-0.000232561
-3.22922e-05
-3.40405e-05
-0.000266555
-1.22473e-05
5.24933e-11
-3.42292e-05
9.07088e-11
-5.93398e-05
1.0051e-10
-8.54921e-05
1.01666e-10
-0.000112536
1.01573e-10
-0.000140643
1.01319e-10
-0.000169983
1.00913e-10
-0.000200724
1.00321e-10
-0.000233016
9.93999e-11
9.80958e-11
-0.000267057
-1.22473e-05
1.22474e-05
-3.42292e-05
2.19819e-05
-5.93398e-05
2.51108e-05
-8.54921e-05
2.61524e-05
-0.000112536
2.70443e-05
-0.000140643
2.81069e-05
-0.000169983
2.93395e-05
-0.000200724
3.07412e-05
-0.000233016
3.22924e-05
3.40407e-05
-0.000267057
-1.21945e-05
2.44419e-05
-3.41136e-05
4.39011e-05
-5.91706e-05
5.01678e-05
-8.52742e-05
5.2256e-05
-0.00011227
5.40404e-05
-0.000140329
5.61656e-05
-0.00016962
5.86309e-05
-0.000200314
6.14351e-05
-0.000232561
6.45391e-05
6.80349e-05
-0.000266555
-1.20887e-05
3.65306e-05
-3.38825e-05
6.56948e-05
-5.8832e-05
7.51173e-05
-8.48381e-05
7.82621e-05
-0.000111738
8.09401e-05
-0.0001397
8.41279e-05
-0.000168895
8.78261e-05
-0.000199494
9.20342e-05
-0.00023165
9.66943e-05
0.000101936
-0.00026555
-1.19301e-05
4.84607e-05
-3.35356e-05
8.73003e-05
-5.83236e-05
9.99053e-05
-8.41835e-05
0.000104122
-0.000110939
0.000107695
-0.000138756
0.000111946
-0.000167807
0.000116877
-0.000198263
0.00012249
-0.000230279
0.00012871
0.000135694
-0.000264038
-1.17187e-05
6.01793e-05
-3.30727e-05
0.000108654
-5.76452e-05
0.000124478
-8.33099e-05
0.000129787
-0.000109872
0.000134258
-0.000137497
0.00013957
-0.000166354
0.000145734
-0.000196618
0.000152755
-0.000228447
0.000160539
0.000169258
-0.000262012
-1.14544e-05
7.16338e-05
-3.24935e-05
0.000129693
-5.6796e-05
0.00014878
-8.22166e-05
0.000155207
-0.000108538
0.000160579
-0.000135921
0.000166953
-0.000164535
0.000174349
-0.000194558
0.000182778
-0.000226149
0.00019213
0.000202576
-0.000259467
-1.11375e-05
8.27712e-05
-3.17978e-05
0.000150354
-5.57754e-05
0.000172758
-8.09029e-05
0.000180335
-0.000106935
0.000186611
-0.000134027
0.000194045
-0.00016235
0.000202672
-0.000192081
0.000212509
-0.000223383
0.000223432
0.000235593
-0.0002564
-1.0768e-05
9.35392e-05
-3.09852e-05
0.000170571
-5.45827e-05
0.000196355
-7.93679e-05
0.00020512
-0.000105062
0.000212304
-0.000131814
0.000220797
-0.000159796
0.000230653
-0.000189185
0.000241898
-0.000220145
0.000254393
0.000268252
-0.000252804
-1.03461e-05
0.000103885
-3.00553e-05
0.00019028
-5.32171e-05
0.000219517
-7.76107e-05
0.000229514
-0.000102919
0.000237612
-0.000129283
0.000247162
-0.000156872
0.000258243
-0.000185868
0.000270894
-0.000216434
0.000284959
0.000300498
-0.000248679
-9.87224e-06
0.000113758
-2.9008e-05
0.000209416
-5.16777e-05
0.000242187
-7.56305e-05
0.000253466
-0.000100504
0.000262486
-0.000126431
0.000273088
-0.000153579
0.000285391
-0.00018213
0.000299444
-0.000212248
0.000315077
0.000332273
-0.000244024
-9.3469e-06
0.000123104
-2.7843e-05
0.000227912
-4.99635e-05
0.000264307
-7.34263e-05
0.000276929
-9.78183e-05
0.000286878
-0.000123259
0.000298529
-0.000149916
0.000312048
-0.000177969
0.000327497
-0.000207588
0.000344696
0.000363524
-0.000238838
-8.77113e-06
0.000131876
-2.65602e-05
0.000245701
-4.80737e-05
0.000285821
-7.09974e-05
0.000299853
-9.48605e-05
0.000310741
-0.000119767
0.000323436
-0.000145882
0.000338162
-0.000173388
0.000355003
-0.000202455
0.000373763
0.000394195
-0.000233126
-8.14695e-06
0.000140023
-2.51593e-05
0.000262713
-4.60072e-05
0.000306669
-6.83427e-05
0.000322188
-9.16302e-05
0.000334029
-0.000115954
0.00034776
-0.000141476
0.000363684
-0.000168382
0.000381909
-0.000196847
0.000402228
0.000424237
-0.000226889
-7.47677e-06
0.000147499
-2.36398e-05
0.000278876
-4.37631e-05
0.000326792
-6.54619e-05
0.000343887
-8.81288e-05
0.000356695
-0.000111825
0.000371456
-0.000136704
0.000388564
-0.000162961
0.000408166
-0.00019078
0.000430048
0.0004536
-0.000220143
-6.75344e-06
0.000154253
-2.20004e-05
0.000294123
-4.13403e-05
0.000346132
-6.23537e-05
0.0003649
-8.43547e-05
0.000378696
-0.000107375
0.000394476
-0.000131555
0.000412744
-0.000157096
0.000433706
-0.000184223
0.000457174
0.000482254
-0.000212877
-5.97871e-06
0.000160231
-2.02415e-05
0.000308386
-3.87382e-05
0.000364629
-5.9018e-05
0.00038518
-8.03111e-05
0.00039999
-0.000102618
0.000416783
-0.000126062
0.000436189
-0.000150844
0.000458488
-0.000177255
0.000483586
0.000510167
-0.000205169
-5.1552e-06
0.000165387
-1.83642e-05
0.000321595
-3.59561e-05
0.000382221
-5.54535e-05
0.000404678
-7.59949e-05
0.000420531
-9.75431e-05
0.000438331
-0.000120186
0.000458831
-0.00014408
0.000482382
-0.000169653
0.000509159
0.000537415
-0.000196901
-4.28491e-06
0.000169672
-1.63696e-05
0.00033368
-3.29935e-05
0.000398845
-5.16606e-05
0.000423345
-7.141e-05
0.00044028
-9.21707e-05
0.000459091
-0.000114017
0.000480678
-0.000137035
0.000505399
-0.000161768
0.000533893
0.000564141
-0.000188494
-3.36931e-06
0.000173041
-1.4259e-05
0.00034457
-2.98501e-05
0.000414436
-4.76389e-05
0.000441133
-6.65549e-05
0.000459196
-8.64817e-05
0.000479018
-0.000107479
0.000501675
-0.000129421
0.000527341
-0.000152617
0.000557089
0.000590709
-0.000179185
-2.40821e-06
0.000175449
-1.20335e-05
0.000354195
-2.65242e-05
0.000428926
-4.33883e-05
0.000457998
-6.14336e-05
0.000477242
-8.04854e-05
0.00049807
-0.000100658
0.000521847
-0.000121858
0.000548541
-0.000143661
0.000578892
0.000618141
-0.000171093
-1.3965e-06
0.000176846
-9.69323e-06
0.000362492
-2.30136e-05
0.000442247
-3.89096e-05
0.000473894
-5.60523e-05
0.000494384
-7.41892e-05
0.000516207
-9.34579e-05
0.000541116
-0.000113976
0.000569059
-0.000135762
0.000600678
0.000638075
-0.000155696
-3.02542e-07
0.000177148
-7.23559e-06
0.000369425
-1.93121e-05
0.000454323
-3.42037e-05
0.000488785
-5.04114e-05
0.000510592
-6.75969e-05
0.000533392
-8.58751e-05
0.000559394
-0.000105357
0.000588541
-0.000125824
0.000621146
0.000659787
-0.000147536
7.14813e-07
0.000176433
-4.63962e-06
0.000374779
-1.54202e-05
0.000465104
-2.92765e-05
0.000502641
-4.45096e-05
0.000525825
-6.07133e-05
0.000549596
-7.79646e-05
0.000576645
-9.64051e-05
0.000606981
-0.000116115
0.000640856
0.000680578
-0.000136906
1.76924e-06
0.000174664
-1.79759e-06
0.000378346
-1.1368e-05
0.000474674
-2.4135e-05
0.000515408
-3.83472e-05
0.000540037
-5.35482e-05
0.000564797
-6.9771e-05
0.000592868
-8.71706e-05
0.000624381
-0.000105837
0.000659522
0.000700261
-0.00012552
2.81856e-06
0.000171846
1.02194e-06
0.000380143
-7.23456e-06
0.000482931
-1.87753e-05
0.000526949
-3.19271e-05
0.000553189
-4.6107e-05
0.000578977
-6.1289e-05
0.00060805
-7.7627e-05
0.000640719
-9.51971e-05
0.000677092
0.000718752
-0.000113688
3.81919e-06
0.000168026
3.5216e-06
0.00038044
-2.96902e-06
0.000489421
-1.3194e-05
0.000537174
-2.52592e-05
0.000565254
-3.83918e-05
0.00059211
-5.25081e-05
0.000622166
-6.77553e-05
0.000655966
-8.42312e-05
0.000693568
0.000736161
-0.00010164
4.82275e-06
0.000163204
6.26168e-06
0.000379001
1.54526e-06
0.000494138
-7.40731e-06
0.000546127
-1.83486e-05
0.000576196
-3.04042e-05
0.000604165
-4.34275e-05
0.00063519
-5.75561e-05
0.000670095
-7.2905e-05
0.000708917
0.000752498
-8.92419e-05
5.82493e-06
0.000157379
9.08685e-06
0.000375739
6.07601e-06
0.000497149
-1.43699e-06
0.00055364
-1.11989e-05
0.000585958
-2.21475e-05
0.000615114
-3.40532e-05
0.000647095
-4.70402e-05
0.000683082
-6.12308e-05
0.000723108
0.000767676
-7.6409e-05
6.79713e-06
0.000150582
1.19476e-05
0.000370589
1.0793e-05
0.000498303
4.74552e-06
0.000559687
-3.83856e-06
0.000594542
-1.36273e-05
0.000624903
-2.43936e-05
0.000657862
-3.62112e-05
0.000694899
-4.92313e-05
0.000736128
0.000781622
-6.3177e-05
7.71384e-06
0.000142868
1.48159e-05
0.000363487
1.5624e-05
0.000497495
1.11369e-05
0.000564174
3.80991e-06
0.000601869
-4.86053e-06
0.000633573
-1.44654e-05
0.000667467
-2.50711e-05
0.000705505
-3.69172e-05
0.000747974
0.000794305
-4.96003e-05
8.5528e-06
0.000134315
1.76584e-05
0.000354381
2.05356e-05
0.000494618
1.77162e-05
0.000566994
1.17345e-05
0.00060785
4.20152e-06
0.000641106
-4.30606e-06
0.000675974
-1.36455e-05
0.000714844
-2.42699e-05
0.000758598
0.000805738
-3.57031e-05
9.29137e-06
0.000125024
2.04347e-05
0.000343238
2.54957e-05
0.000489557
2.44517e-05
0.000568038
1.98585e-05
0.000612444
1.35648e-05
0.0006474
6.21482e-06
0.000683324
-2.08601e-06
0.000723145
-1.12277e-05
0.00076774
0.000816058
-2.15476e-05
9.90615e-06
0.000115117
2.30994e-05
0.000330045
3.04634e-05
0.000482193
3.13186e-05
0.000567182
2.81918e-05
0.00061557
2.31464e-05
0.000652445
1.70273e-05
0.000689443
1.00445e-05
0.000730128
2.27218e-06
0.000775512
0.00082557
-7.24026e-06
1.03747e-05
0.000104743
2.56023e-05
0.000314817
3.53887e-05
0.000472407
3.8284e-05
0.000564287
3.67166e-05
0.000617138
3.29605e-05
0.000656201
2.80628e-05
0.000694341
2.23069e-05
0.000735884
1.55631e-05
0.000782256
0.000833375
7.7585e-06
1.06775e-05
9.40652e-05
2.78885e-05
0.000297606
4.02111e-05
0.000460084
4.53037e-05
0.000559194
4.54071e-05
0.000617034
4.29917e-05
0.000658617
3.93263e-05
0.000698006
3.47986e-05
0.000740412
2.94417e-05
0.000787613
0.000839484
2.33321e-05
1.08002e-05
8.3265e-05
2.98977e-05
0.000278508
4.48575e-05
0.000445124
5.23206e-05
0.000551731
5.42293e-05
0.000615126
5.32216e-05
0.000659624
5.08173e-05
0.000700411
4.75596e-05
0.000743669
4.3581e-05
0.000791591
0.000844145
3.89209e-05
1.07349e-05
7.25301e-05
3.1565e-05
0.000257678
4.92404e-05
0.000427449
5.92629e-05
0.000541709
6.31391e-05
0.00061125
6.3627e-05
0.000659136
6.25205e-05
0.000701517
6.05489e-05
0.000745641
5.79006e-05
0.00079424
0.000847414
5.46307e-05
1.04827e-05
6.20474e-05
3.2814e-05
0.000235347
5.32554e-05
0.000407008
6.60415e-05
0.000528923
7.2078e-05