/*--------------------------------*- C++ -*----------------------------------*\
  =========                 |
  \\      /  F ield         | OpenFOAM: The Open Source CFD Toolbox
   \\    /   O peration     | Website:  https://openfoam.org
    \\  /    A nd           | Version:  7
     \\/     M anipulation  |
\*---------------------------------------------------------------------------*/
FoamFile
{
    version     2.0;
    format      ascii;
    class       volScalarField;
    location    "15";
    object      p;
}
// * * * * * * * * * * * * * * * * * * * * * * * * * * * * * * * * * * * * * //

dimensions      [0 2 -2 0 0 0 0];

internalField   nonuniform List<scalar> 
8500
(
-0.275326
-0.278288
-0.279957
-0.282286
-0.285606
-0.290138
-0.296108
-0.303755
-0.313399
-0.325656
-0.275839
-0.278709
-0.28035
-0.282657
-0.285957
-0.290472
-0.296427
-0.304064
-0.313686
-0.325925
-0.27683
-0.279522
-0.281107
-0.283369
-0.28663
-0.291108
-0.29703
-0.304642
-0.314215
-0.326402
-0.27824
-0.280674
-0.282175
-0.284368
-0.287566
-0.291983
-0.297846
-0.305409
-0.314902
-0.326968
-0.279983
-0.282092
-0.283481
-0.285579
-0.288687
-0.293013
-0.298781
-0.306259
-0.315636
-0.327467
-0.281958
-0.283689
-0.284942
-0.286916
-0.2899
-0.294099
-0.299724
-0.307065
-0.316296
-0.327717
-0.284058
-0.285378
-0.286469
-0.288289
-0.291111
-0.295136
-0.300563
-0.307695
-0.316761
-0.32754
-0.286179
-0.287074
-0.287981
-0.289611
-0.292226
-0.296026
-0.30119
-0.30802
-0.316924
-0.326781
-0.288228
-0.288703
-0.289406
-0.29081
-0.293169
-0.296683
-0.301519
-0.307927
-0.316675
-0.325376
-0.290128
-0.290208
-0.290694
-0.291833
-0.293881
-0.297043
-0.301489
-0.307356
-0.315835
-0.323555
-0.29182
-0.291554
-0.291808
-0.29265
-0.29433
-0.29707
-0.301045
-0.306372
-0.314304
-0.32115
-0.293272
-0.292721
-0.29274
-0.293251
-0.29451
-0.29676
-0.300197
-0.304902
-0.312288
-0.318049
-0.294472
-0.293711
-0.293495
-0.29365
-0.29444
-0.296141
-0.29898
-0.303002
-0.309854
-0.314371
-0.295429
-0.294538
-0.294096
-0.293877
-0.294161
-0.295267
-0.29746
-0.300789
-0.307089
-0.310304
-0.296172
-0.295231
-0.294576
-0.293976
-0.293733
-0.294217
-0.295727
-0.298417
-0.304134
-0.306074
-0.296747
-0.295827
-0.294975
-0.293999
-0.293226
-0.293087
-0.293887
-0.296084
-0.301109
-0.301973
-0.297216
-0.296374
-0.29534
-0.294002
-0.292716
-0.291985
-0.292047
-0.294025
-0.298011
-0.298432
-0.297655
-0.296928
-0.295725
-0.294049
-0.292286
-0.291021
-0.290307
-0.292508
-0.294726
-0.29563
-0.298156
-0.297555
-0.296189
-0.294207
-0.292019
-0.290298
-0.288777
-0.291751
-0.29135
-0.293969
-0.298816
-0.298332
-0.296795
-0.294548
-0.291999
-0.289895
-0.28761
-0.291399
-0.288369
-0.29534
-0.299737
-0.29931
-0.297632
-0.295145
-0.292297
-0.289864
-0.287116
-0.290628
-0.286399
-0.300363
-0.301014
-0.30058
-0.298745
-0.296054
-0.292967
-0.290225
-0.287329
-0.289237
-0.286533
-0.293923
-0.302729
-0.302203
-0.300184
-0.297311
-0.294027
-0.290975
-0.28794
-0.288134
-0.286304
-0.288583
-0.304944
-0.304225
-0.301983
-0.298922
-0.295454
-0.292066
-0.288705
-0.287533
-0.285327
-0.284932
-0.3077
-0.306662
-0.304171
-0.30088
-0.29719
-0.293391
-0.289568
-0.287208
-0.283998
-0.281645
-0.311032
-0.309547
-0.306748
-0.303179
-0.299166
-0.294863
-0.290511
-0.286968
-0.282362
-0.278484
-0.314978
-0.3129
-0.309731
-0.305818
-0.301329
-0.296485
-0.291484
-0.2866
-0.280495
-0.275165
-0.319527
-0.316778
-0.313164
-0.308802
-0.303691
-0.29829
-0.292385
-0.285984
-0.278353
-0.271652
-0.324741
-0.321216
-0.317104
-0.312133
-0.306348
-0.300249
-0.293106
-0.285049
-0.275919
-0.267905
-0.330668
-0.326274
-0.321609
-0.315844
-0.309396
-0.302263
-0.293564
-0.283764
-0.273178
-0.263901
-0.337359
-0.332027
-0.326716
-0.320032
-0.312826
-0.304215
-0.293703
-0.282113
-0.270123
-0.259619
-0.344863
-0.338542
-0.332431
-0.324823
-0.316517
-0.305998
-0.293481
-0.280086
-0.266741
-0.255034
-0.353211
-0.345861
-0.338767
-0.330251
-0.320304
-0.307509
-0.292862
-0.277667
-0.263014
-0.250118
-0.362413
-0.353973
-0.345759
-0.336194
-0.32402
-0.308658
-0.291802
-0.274831
-0.258912
-0.244837
-0.372439
-0.362813
-0.353439
-0.34241
-0.327489
-0.309353
-0.290251
-0.271542
-0.254395
-0.239153
-0.383212
-0.372265
-0.361756
-0.348623
-0.330532
-0.309499
-0.288149
-0.267754
-0.249415
-0.233025
-0.394593
-0.382183
-0.370512
-0.354565
-0.332972
-0.30899
-0.285427
-0.263408
-0.243919
-0.226413
-0.40637
-0.392398
-0.379365
-0.359972
-0.334639
-0.307715
-0.282003
-0.258439
-0.237848
-0.219281
-0.418255
-0.402704
-0.387885
-0.364558
-0.335367
-0.305558
-0.277791
-0.252776
-0.231143
-0.211599
-0.42989
-0.412834
-0.39562
-0.368031
-0.334984
-0.302403
-0.272701
-0.246345
-0.22375
-0.203346
-0.440861
-0.422436
-0.402145
-0.370104
-0.333319
-0.29813
-0.26664
-0.239073
-0.21562
-0.194499
-0.45072
-0.431069
-0.407077
-0.370519
-0.330208
-0.29262
-0.259516
-0.230885
-0.206707
-0.18503
-0.459006
-0.438234
-0.410084
-0.369058
-0.325496
-0.285762
-0.25124
-0.221707
-0.196957
-0.174909
-0.465271
-0.443417
-0.41087
-0.365539
-0.319053
-0.277455
-0.241734
-0.211472
-0.186303
-0.164067
-0.469101
-0.446153
-0.409158
-0.359808
-0.310766
-0.267614
-0.230936
-0.200127
-0.17467
-0.152347
-0.470127
-0.446049
-0.404697
-0.351738
-0.300545
-0.256169
-0.218793
-0.187643
-0.162018
-0.139518
-0.468036
-0.442781
-0.397295
-0.341229
-0.288322
-0.24306
-0.205249
-0.173995
-0.148411
-0.125447
-0.462571
-0.436109
-0.386816
-0.328211
-0.274049
-0.228242
-0.190256
-0.159136
-0.133949
-0.110401
-0.45353
-0.425869
-0.373187
-0.312647
-0.257696
-0.211696
-0.17383
-0.143094
-0.118478
-0.0949876
-0.440776
-0.41197
-0.356385
-0.294532
-0.239253
-0.193452
-0.156084
-0.126167
-0.101739
-0.0791581
-0.424226
-0.394391
-0.336448
-0.273894
-0.218748
-0.173606
-0.137117
-0.108095
-0.0840598
-0.0627665
-0.40386
-0.373173
-0.313467
-0.250808
-0.196283
-0.152228
-0.116868
-0.0889002
-0.0655981
-0.0457865
-0.379721
-0.348424
-0.287556
-0.225366
-0.171997
-0.129296
-0.0953787
-0.068672
-0.0464216
-0.0282705
-0.351922
-0.320343
-0.258755
-0.197671
-0.145942
-0.104933
-0.0727319
-0.0475066
-0.0265727
-0.0102824
-0.320644
-0.289213
-0.227003
-0.167879
-0.118243
-0.0792672
-0.0490364
-0.0254944
-0.00609927
0.00813462
-0.286094
-0.255235
-0.192605
-0.136096
-0.0890482
-0.0524413
-0.0244072
-0.00272277
0.0149159
0.026843
-0.248469
-0.218188
-0.156367
-0.102577
-0.0585206
-0.0245951
0.0010531
0.0207224
0.0362779
0.0453594
-0.208037
-0.178155
-0.118729
-0.0676987
-0.0268605
0.00413313
0.0272548
0.044733
0.0576331
0.0629248
-0.165099
-0.135836
-0.0796322
-0.0317278
0.00571045
0.0335931
0.0540765
0.0691246
0.0786664
0.0794742
-0.119892
-0.0919249
-0.0392483
0.00512318
0.0389728
0.063608
0.0813078
0.0935832
0.0994385
0.096956
-0.0729725
-0.0467597
0.00212953
0.0426294
0.0727118
0.0939758
0.108677
0.117765
0.120021
0.119395
-0.0247852
-0.000677669
0.0441715
0.0805387
0.106706
0.12448
0.135968
0.141726
0.141232
0.141582
0.0242175
0.0459419
0.0865352
0.11858
0.14072
0.154901
0.163061
0.165648
0.162957
0.162621
0.0735808
0.0927063
0.128876
0.15647
0.174512
0.185028
0.189819
0.189382
0.184631
0.182772
0.122849
0.139217
0.17085
0.193925
0.207838
0.214666
0.216113
0.212775
0.205909
0.20205
0.17157
0.185078
0.212118
0.230658
0.240455
0.243613
0.241771
0.235618
0.226593
0.220549
0.2193
0.2299
0.252349
0.26639
0.272128
0.271676
0.266625
0.257732
0.246518
0.238208
0.265616
0.273301
0.291219
0.300847
0.302624
0.298658
0.290498
0.278953
0.26557
0.254977
0.310114
0.314903
0.328415
0.333767
0.331721
0.32437
0.313224
0.299133
0.283629
0.270776
0.352405
0.354353
0.363638
0.364897
0.359205
0.348629
0.334646
0.318136
0.300589
0.28553
0.392116
0.39132
0.396606
0.394002
0.384875
0.371263
0.354615
0.335834
0.316346
0.299164
0.428901
0.4255
0.427058
0.420858
0.408541
0.392112
0.372994
0.352112
0.330806
0.311613
0.462438
0.456614
0.454755
0.445264
0.430031
0.411029
0.389659
0.366861
0.343881
0.322815
0.492439
0.484409
0.479478
0.467034
0.449188
0.42788
0.404495
0.379986
0.355493
0.332718
0.518646
0.50866
0.501035
0.486005
0.465873
0.442548
0.417403
0.391399
0.365574
0.341279
0.540834
0.529171
0.519259
0.502036
0.479965
0.454931
0.428294
0.401026
0.374064
0.348461
0.558813
0.54578
0.534009
0.515005
0.491362
0.464941
0.437097
0.408804
0.380915
0.354236
0.572433
0.558354
0.545172
0.524818
0.499982
0.47251
0.443751
0.414682
0.386087
0.358584
0.581577
0.566792
0.552662
0.5314
0.505763
0.477585
0.448211
0.418622
0.389551
0.36149
0.586169
0.571028
0.556421
0.534703
0.508664
0.480131
0.450449
0.420599
0.391288
0.362945
0.586169
0.571028
0.556421
0.534703
0.508664
0.480131
0.450449
0.420599
0.391288
0.362945
0.581577
0.566792
0.552662
0.5314
0.505763
0.477585
0.448211
0.418622
0.389551
0.36149
0.572433
0.558354
0.545172
0.524818
0.499982
0.47251
0.443751
0.414682
0.386087
0.358584
0.558814
0.545781
0.53401
0.515005
0.491362
0.464941
0.437097
0.408804
0.380915
0.354236
0.540834
0.529172
0.519259
0.502036
0.479965
0.454931
0.428295
0.401026
0.374065
0.348461
0.518646
0.50866
0.501035
0.486006
0.465873
0.442549
0.417403
0.391399
0.365574
0.341279
0.49244
0.48441
0.479478
0.467034
0.449189
0.427881
0.404495
0.379986
0.355493
0.332719
0.462439
0.456615
0.454755
0.445264
0.430031
0.411029
0.389659
0.366862
0.343881
0.322815
0.428901
0.425501
0.427059
0.420859
0.408541
0.392113
0.372995
0.352112
0.330806
0.311613
0.392117
0.391321
0.396607
0.394002
0.384875
0.371264
0.354615
0.335835
0.316346
0.299165
0.352406
0.354353
0.363639
0.364898
0.359206
0.34863
0.334647
0.318136
0.300589
0.28553
0.310115
0.314904
0.328416
0.333768
0.331722
0.324371
0.313225
0.299133
0.283629
0.270777
0.265617
0.273302
0.29122
0.300848
0.302625
0.298659
0.290499
0.278954
0.26557
0.254978
0.219301
0.229901
0.25235
0.266391
0.272129
0.271677
0.266625
0.257732
0.246518
0.238208
0.171571
0.185079
0.212119
0.230659
0.240456
0.243614
0.241772
0.235619
0.226594
0.22055
0.12285
0.139218
0.170851
0.193926
0.207839
0.214666
0.216113
0.212775
0.20591
0.202051
0.0735822
0.0927076
0.128877
0.156471
0.174513
0.185029
0.189819
0.189383
0.184631
0.182773
0.024219
0.0459433
0.0865364
0.118581
0.140721
0.154902
0.163062
0.165649
0.162958
0.162622
-0.0247837
-0.000676242
0.0441728
0.0805398
0.106707
0.124481
0.135968
0.141727
0.141233
0.141583
-0.0729709
-0.0467582
0.00213086
0.0426306
0.0727129
0.0939768
0.108678
0.117766
0.120021
0.119396
-0.11989
-0.0919234
-0.0392469
0.00512441
0.0389739
0.063609
0.0813087
0.0935841
0.0994393
0.0969568
-0.165098
-0.135835
-0.0796308
-0.0317266
0.00571161
0.0335941
0.0540774
0.0691255
0.0786672
0.079475
-0.208035
-0.178153
-0.118727
-0.0676974
-0.0268593
0.00413422
0.0272558
0.044734
0.057634
0.0629256
-0.248467
-0.218187
-0.156366
-0.102575
-0.0585193
-0.024594
0.00105414
0.0207233
0.0362788
0.0453602
-0.286092
-0.255233
-0.192603
-0.136095
-0.0890469
-0.0524401
-0.0244062
-0.00272178
0.0149168
0.0268438
-0.320643
-0.289212
-0.227002
-0.167878
-0.118242
-0.079266
-0.0490353
-0.0254934
-0.00609833
0.0081355
-0.35192
-0.320341
-0.258753
-0.19767
-0.145941
-0.104931
-0.0727308
-0.0475056
-0.0265718
-0.0102815
-0.37972
-0.348422
-0.287554
-0.225364
-0.171996
-0.129295
-0.0953775
-0.068671
-0.0464206
-0.0282696
-0.403859
-0.373171
-0.313465
-0.250806
-0.196281
-0.152227
-0.116867
-0.0888991
-0.0655971
-0.0457855
-0.424224
-0.394389
-0.336446
-0.273893
-0.218747
-0.173605
-0.137116
-0.108094
-0.0840587
-0.0627655
-0.440774
-0.411968
-0.356383
-0.29453
-0.239252
-0.193451
-0.156082
-0.126166
-0.101738
-0.0791572
-0.453529
-0.425867
-0.373185
-0.312646
-0.257695
-0.211695
-0.173828
-0.143093
-0.118477
-0.0949866
-0.462569
-0.436108
-0.386815
-0.328209
-0.274048
-0.228241
-0.190254
-0.159135
-0.133948
-0.1104
-0.468035
-0.44278
-0.397293
-0.341227
-0.28832
-0.243059
-0.205248
-0.173994
-0.14841
-0.125446
-0.470126
-0.446047
-0.404696
-0.351737
-0.300544
-0.256168
-0.218792
-0.187642
-0.162017
-0.139517
-0.469099
-0.446152
-0.409156
-0.359807
-0.310765
-0.267613
-0.230935
-0.200125
-0.174668
-0.152346
-0.46527
-0.443415
-0.410868
-0.365537
-0.319052
-0.277453
-0.241733
-0.21147
-0.186302
-0.164066
-0.459005
-0.438232
-0.410082
-0.369057
-0.325495
-0.285761
-0.251239
-0.221706
-0.196956
-0.174908
-0.450718
-0.431068
-0.407076
-0.370518
-0.330206
-0.292619
-0.259515
-0.230884
-0.206706
-0.185029
-0.44086
-0.422435
-0.402144
-0.370103
-0.333318
-0.298129
-0.266639
-0.239072
-0.215619
-0.194497
-0.429889
-0.412833
-0.395619
-0.368029
-0.334983
-0.302402
-0.272699
-0.246344
-0.223749
-0.203345
-0.418254
-0.402702
-0.387883
-0.364557
-0.335365
-0.305557
-0.27779
-0.252775
-0.231142
-0.211598
-0.406369
-0.392396
-0.379364
-0.359971
-0.334638
-0.307713
-0.282001
-0.258438
-0.237846
-0.21928
-0.394592
-0.382182
-0.370511
-0.354564
-0.332971
-0.308988
-0.285425
-0.263407
-0.243918
-0.226412
-0.383211
-0.372264
-0.361755
-0.348621
-0.330531
-0.309497
-0.288148
-0.267752
-0.249414
-0.233024
-0.372438
-0.362812
-0.353438
-0.342409
-0.327488
-0.309352
-0.29025
-0.271541
-0.254393
-0.239152
-0.362412
-0.353972
-0.345758
-0.336193
-0.324018
-0.308656
-0.2918
-0.274829
-0.25891
-0.244835
-0.35321
-0.345859
-0.338766
-0.33025
-0.320303
-0.307508
-0.292861
-0.277665
-0.263013
-0.250116
-0.344862
-0.338541
-0.33243
-0.324822
-0.316516
-0.305996
-0.29348
-0.280084
-0.26674
-0.255032
-0.337358
-0.332026
-0.326715
-0.320031
-0.312825
-0.304214
-0.293702
-0.282112
-0.270122
-0.259618
-0.330666
-0.326273
-0.321608
-0.315843
-0.309395
-0.302261
-0.293563
-0.283762
-0.273177
-0.263899
-0.324739
-0.321214
-0.317103
-0.312132
-0.306347
-0.300248
-0.293105
-0.285048
-0.275918
-0.267903
-0.319526
-0.316777
-0.313163
-0.308801
-0.30369
-0.298289
-0.292384
-0.285983
-0.278351
-0.27165
-0.314977
-0.312899
-0.30973
-0.305817
-0.301328
-0.296484
-0.291483
-0.286599
-0.280494
-0.275163
-0.311031
-0.309546
-0.306747
-0.303178
-0.299165
-0.294862
-0.29051
-0.286967
-0.282361
-0.278483
-0.307699
-0.30666
-0.30417
-0.300879
-0.297189
-0.29339
-0.289567
-0.287207
-0.283997
-0.281643
-0.304943
-0.304224
-0.301982
-0.298921
-0.295453
-0.292065
-0.288704
-0.287532
-0.285326
-0.28493
-0.302728
-0.302202
-0.300183
-0.29731
-0.294026
-0.290974
-0.28794
-0.288133
-0.286302
-0.288581
-0.301013
-0.300579
-0.298744
-0.296053
-0.292966
-0.290224
-0.287328
-0.289236
-0.286531
-0.293921
-0.299735
-0.299309
-0.297631
-0.295144
-0.292296
-0.289863
-0.287115
-0.290627
-0.286398
-0.300361
-0.298815
-0.29833
-0.296794
-0.294547
-0.291998
-0.289894
-0.287609
-0.291398
-0.288367
-0.295338
-0.298154
-0.297554
-0.296188
-0.294206
-0.292018
-0.290297
-0.288776
-0.29175
-0.291349
-0.293967
-0.297654
-0.296926
-0.295724
-0.294048
-0.292285
-0.29102
-0.290306
-0.292507
-0.294724
-0.295628
-0.297214
-0.296373
-0.295339
-0.294001
-0.292715
-0.291984
-0.292045
-0.294023
-0.298009
-0.298429
-0.296745
-0.295826
-0.294974
-0.293998
-0.293225
-0.293086
-0.293885
-0.296082
-0.301107
-0.30197
-0.296171
-0.295229
-0.294575
-0.293975
-0.293732
-0.294215
-0.295726
-0.298416
-0.304132
-0.306071
-0.295428
-0.294537
-0.294095
-0.293876
-0.29416
-0.295265
-0.297458
-0.300787
-0.307087
-0.310301
-0.294471
-0.29371
-0.293494
-0.293649
-0.294439
-0.29614
-0.298979
-0.303
-0.309852
-0.314369
-0.293271
-0.29272
-0.292738
-0.29325
-0.294509
-0.296759
-0.300195
-0.3049
-0.312286
-0.318046
-0.291819
-0.291552
-0.291807
-0.292649
-0.294329
-0.297068
-0.301043
-0.30637
-0.314302
-0.321147
-0.290126
-0.290207
-0.290692
-0.291832
-0.29388
-0.297042
-0.301487
-0.307354
-0.315832
-0.323552
-0.288227
-0.288702
-0.289405
-0.290809
-0.293168
-0.296681
-0.301518
-0.307925
-0.316673
-0.325373
-0.286178
-0.287073
-0.28798
-0.28961
-0.292225
-0.296024
-0.301188
-0.308018
-0.316922
-0.326779
-0.284057
-0.285377
-0.286468
-0.288288
-0.29111
-0.295135
-0.300561
-0.307694
-0.316759
-0.327538
-0.281957
-0.283688
-0.284941
-0.286915
-0.289899
-0.294098
-0.299723
-0.307064
-0.316294
-0.327715
-0.279982
-0.282091
-0.28348
-0.285578
-0.288686
-0.293012
-0.29878
-0.306257
-0.315634
-0.327465
-0.27824
-0.280673
-0.282174
-0.284367
-0.287565
-0.291982
-0.297845
-0.305408
-0.3149
-0.326967
-0.27683
-0.279521
-0.281106
-0.283368
-0.286629
-0.291107
-0.297029
-0.304641
-0.314214
-0.3264
-0.275838
-0.278708
-0.28035
-0.282656
-0.285957
-0.290472
-0.296427
-0.304064
-0.313686
-0.325924
-0.275326
-0.278288
-0.279957
-0.282286
-0.285606
-0.290138
-0.296108
-0.303755
-0.313399
-0.325655
-0.34113
-0.359267
-0.380442
-0.403827
-0.429157
-0.455374
-0.48146
-0.506012
-0.527653
-0.544955
-0.55672
-0.561898
-0.55936
-0.548104
-0.526937
-0.494
-0.446947
-0.384697
-0.306685
-0.218643
-0.126141
-0.0444438
0.0171429
0.0576883
0.0735998
0.0765724
0.0669643
0.0538711
0.0343301
0.0146022
-0.341547
-0.359662
-0.380869
-0.404293
-0.429668
-0.455938
-0.48207
-0.506662
-0.52833
-0.54565
-0.557425
-0.56261
-0.560101
-0.548916
-0.527854
-0.495072
-0.44817
-0.386059
-0.308102
-0.220023
-0.127339
-0.0453634
0.0164192
0.0571773
0.0732055
0.0762812
0.0667379
0.0537143
0.0342238
0.0145542
-0.342306
-0.360375
-0.38164
-0.405137
-0.430601
-0.456971
-0.483195
-0.507867
-0.529593
-0.546951
-0.55875
-0.563955
-0.561502
-0.550459
-0.529603
-0.497124
-0.45052
-0.38868
-0.31084
-0.2227
-0.129683
-0.047182
0.0149779
0.0561449
0.0724083
0.075689
0.0662802
0.0533966
0.0340107
0.0144579
-0.343268
-0.361258
-0.382601
-0.406198
-0.431788
-0.458303
-0.484662
-0.509455
-0.531272
-0.548697
-0.560542
-0.56579
-0.563444
-0.552593
-0.532035
-0.499992
-0.453824
-0.392386
-0.314732
-0.226528
-0.133077
-0.049859
0.0128318
0.0545758
0.0711946
0.0747798
0.065583
0.0529115
0.0336902
0.0143131
-0.344244
-0.362123
-0.383549
-0.407266
-0.433012
-0.459709
-0.486246
-0.511204
-0.533155
-0.550684
-0.56261
-0.567938
-0.565703
-0.555144
-0.534966
-0.503475
-0.457872
-0.396957
-0.319571
-0.231328
-0.137415
-0.0533303
0.0100036
0.0524564
0.0695507
0.0735369
0.0646378
0.052252
0.0332621
0.0141198
-0.345019
-0.362757
-0.384259
-0.408111
-0.434032
-0.460944
-0.4877
-0.512871
-0.535008
-0.552693
-0.564749
-0.570209
-0.568129
-0.557938
-0.538206
-0.507364
-0.462441
-0.402167
-0.32514
-0.236917
-0.142588
-0.0575075
0.00652449
0.0497815
0.0674684
0.0719488
0.0634388
0.051413
0.032727
0.0138787
-0.345383
-0.362951
-0.384514
-0.408505
-0.434616
-0.461767
-0.488784
-0.514221
-0.536608
-0.554517
-0.566771
-0.572434
-0.57068
-0.5608
-0.541578
-0.511463
-0.46732
-0.407796
-0.331229
-0.243147
-0.148378
-0.0623562
0.00243761
0.0465587
0.0649476
0.070012
0.061985
0.0503931
0.0320871
0.0135915
-0.345154
-0.362525
-0.384128
-0.408253
-0.434556
-0.461966
-0.489283
-0.515045
-0.537756
-0.555969
-0.568504
-0.574456
-0.573035
-0.563582
-0.544928
-0.515603
-0.47232
-0.413644
-0.337671
-0.249853
-0.1546
-0.0678044
-0.00220694
0.0428087
0.0619987
0.0677323
0.0602817
0.0491954
0.0313462
0.0132607
-0.344229
-0.361341
-0.382973
-0.407204
-0.433686
-0.461368
-0.489021
-0.515168
-0.538282
-0.556893
-0.569808
-0.576141
-0.575125
-0.566167
-0.548129
-0.519636
-0.477287
-0.419559
-0.344321
-0.256568
-0.161365
-0.073746
-0.00735225
0.0385645
0.0586411
0.0651241
0.0583397
0.0478274
0.0305101
0.0128897
-0.342127
-0.359413
-0.380956
-0.40526
-0.431921
-0.459858
-0.487868
-0.514451
-0.53805
-0.557163
-0.570565
-0.577384
-0.57686
-0.568461
-0.551082
-0.523457
-0.482092
-0.425427
-0.350776
-0.263499
-0.168394
-0.0800943
-0.0129359
0.0338688
0.0549033
0.062209
0.0561754
0.0463002
0.029586
0.0124825
-0.339278
-0.3567
-0.378056
-0.402394
-0.429145
-0.457345
-0.485739
-0.512813
-0.536986
-0.556678
-0.570682
-0.578098
-0.57816
-0.570393
-0.553715
-0.527033
-0.486512
-0.43087
-0.357285
-0.270418
-0.175587
-0.0867624
-0.0188918
0.0287719
0.0508207
0.0590144
0.0538091
0.0446281
0.0285825
0.0120436
-0.335765
-0.353226
-0.374341
-0.398644
-0.425443
-0.45385
-0.48261
-0.510194
-0.534965
-0.555375
-0.570084
-0.578204
-0.578957
-0.571885
-0.55594
-0.530077
-0.490688
-0.436052
-0.36352
-0.277229
-0.182836
-0.0936638
-0.0251521
0.0233288
0.0464342
0.0555715
0.0512639
0.0428275
0.0275092
0.0115776
-0.331713
-0.349152
-0.36992
-0.39409
-0.42085
-0.449393
-0.478485
-0.506584
-0.532022
-0.553201
-0.568724
-0.57766
-0.579191
-0.572891
-0.557735
-0.532741
-0.494382
-0.440805
-0.369418
-0.283835
-0.190045
-0.100718
-0.0316514
0.0175967
0.041787
0.0519135
0.0485646
0.0409158
0.026376
0.0110893
-0.327411
-0.34463
-0.364935
-0.388872
-0.41548
-0.44407
-0.473435
-0.502026
-0.528144
-0.55015
-0.566571
-0.576422
-0.578837
-0.573373
-0.559033
-0.534905
-0.497577
-0.44507
-0.3749
-0.290162
-0.197135
-0.107855
-0.0383283
0.0116327
0.0369243
0.0480756
0.0457364
0.0389111
0.0251931
0.0105833
-0.323153
-0.339838
-0.359562
-0.383159
-0.40949
-0.438014
-0.467567
-0.496595
-0.523379
-0.546239
-0.56362
-0.574468
-0.577848
-0.573292
-0.5598
-0.536533
-0.500224
-0.448799
-0.379909
-0.296147
-0.204038
-0.114999
-0.0451121
0.00550218
0.031897
0.0440954
0.0428054
0.0368309
0.0239704
0.0100639
-0.319177
-0.33496
-0.35398
-0.377132
-0.403055
-0.431388
-0.46102
-0.490404
-0.517808
-0.541518
-0.55989
-0.571791
-0.576204
-0.57261
-0.560001
-0.537596
-0.502283
-0.451942
-0.384374
-0.301705
-0.210646
-0.122041
-0.0519082
-0.000717447
0.0267602
0.0400117
0.0397977
0.034693
0.022717
0.00953507
-0.315666
-0.330151
-0.348354
-0.370952
-0.396342
-0.424359
-0.45395
-0.483585
-0.511533
-0.536051
-0.555415
-0.568398
-0.573956
-0.571303
-0.559602
-0.538047
-0.503709
-0.454429
-0.388207
-0.306746
-0.216889
-0.128926
-0.0586846
-0.00699381
0.0215405
0.0358496
0.0367338
0.0325142
0.0214425
0.00900076
-0.312671
-0.325465
-0.342821
-0.364771
-0.389512
-0.417089
-0.446513
-0.476287
-0.504687
-0.529954
-0.550285
-0.564351
-0.570908
-0.569352
-0.558591
-0.537884
-0.504527
-0.456351
-0.391577
-0.311537
-0.223104
-0.135947
-0.0656563
-0.013438
0.0161926
0.0316031
0.0336205
0.0303072
0.0201568
0.00846551
-0.31038
-0.320803
-0.337374
-0.358671
-0.382722
-0.409781
-0.43893
-0.468714
-0.497428
-0.523311
-0.544506
-0.559583
-0.567277
-0.566735
-0.556962
-0.537197
-0.504956
-0.458065
-0.39492
-0.316511
-0.229613
-0.143299
-0.0728873
-0.020055
0.0107407
0.0272921
0.0304696
0.0280772
0.0188642
0.007932
-0.309984
-0.316471
-0.332007
-0.352167
-0.375275
-0.401602
-0.430285
-0.459924
-0.488845
-0.515306
-0.537405
-0.553594
-0.562344
-0.563092
-0.554364
-0.535494
-0.504204
-0.458326
-0.39642
-0.31931
-0.233798
-0.148731
-0.0786955
-0.0258406
0.00572613
0.0231407
0.0273603
0.025826
0.0175524
0.00739232
-0.298185
-0.310114
-0.328825
-0.348925
-0.371461
-0.397197
-0.425397
-0.454708
-0.483476
-0.509962
-0.532239
-0.548726
-0.557958
-0.558761
-0.550159
-0.531202
-0.499822
-0.453944
-0.3925
-0.316592
-0.233107
-0.150728
-0.0825593
-0.0310275
0.000570263
0.0184505
0.0236882
0.023071
0.0159266
0.00672151
-0.299546
-0.31145
-0.329613
-0.348872
-0.370356
-0.395024
-0.422171
-0.450398
-0.478084
-0.50359
-0.525074
-0.540954
-0.549539
-0.550135
-0.541285
-0.52196
-0.490442
-0.444848
-0.384623
-0.311127
-0.231081
-0.152592
-0.0870709
-0.0372076
-0.00564762
0.0127818
0.0192358
0.0197288
0.0139455
0.00591259
-0.301064
-0.312618
-0.329336
-0.34791
-0.368607
-0.392175
-0.418078
-0.444999
-0.471359
-0.495602
-0.515993
-0.530948
-0.538917
-0.538901
-0.529672
-0.510024
-0.478536
-0.433617
-0.375146
-0.304719
-0.228632
-0.154302
-0.0915647
-0.0433489
-0.0118724
0.00708341
0.014722
0.0163279
0.0119188
0.0051009
-0.300283
-0.311838
-0.326925
-0.344509
-0.364365
-0.386763
-0.41126
-0.436711
-0.461633
-0.484536
-0.503788
-0.517824
-0.525117
-0.524543
-0.514978
-0.49517
-0.463963
-0.420141
-0.363929
-0.29712
-0.225412
-0.155493
-0.0957532
-0.0492749
-0.0180035
0.00141512
0.0101864
0.0129011
0.00986795
0.00429426
-0.296484
-0.308784
-0.322632
-0.338905
-0.357641
-0.378714
-0.401619
-0.42538
-0.448669
-0.470078
-0.488078
-0.501139
-0.507764
-0.506758
-0.497016
-0.477357
-0.446869
-0.404717
-0.351361
-0.28868
-0.221673
-0.156281
-0.0996514
-0.0549523
-0.0239885
-0.00417419
0.00566391
0.00947267
0.00780417
0.00349547
-0.290403
-0.303664
-0.316752
-0.331675
-0.349048
-0.368633
-0.389803
-0.411673
-0.433091
-0.452774
-0.469318
-0.48128
-0.487262
-0.485981
-0.476303
-0.457186
-0.427922
-0.387993
-0.337974
-0.279722
-0.217534
-0.156653
-0.103184
-0.0603088
-0.0297641
-0.00963562
0.0011886
0.00606575
0.00573954
0.00270844
-0.282932
-0.296833
-0.30951
-0.323257
-0.33919
-0.357196
-0.376585
-0.396494
-0.415919
-0.433732
-0.448684
-0.45946
-0.464764
-0.463298
-0.453899
-0.43566
-0.408023
-0.370695
-0.324283
-0.27054
-0.213127
-0.156646
-0.106334
-0.0653116
-0.0352892
-0.0149309
-0.00320932
0.0027019
0.00368647
0.0019368
-0.27446
-0.288701
-0.301139
-0.31394
-0.328506
-0.344942
-0.36259
-0.380601
-0.39807
-0.414018
-0.427363
-0.436922
-0.441509
-0.439886
-0.430904
-0.413757
-0.387978
-0.353422
-0.310674
-0.261344
-0.208538
-0.156278
-0.109075
-0.0699275
-0.0405255
-0.0200251
-0.00750077
-0.000598133
0.00165742
0.00118365
-0.265356
-0.279668
-0.291883
-0.303926
-0.31728
-0.332234
-0.348241
-0.364487
-0.380136
-0.394335
-0.406148
-0.414531
-0.418404
-0.41663
-0.408132
-0.392171
-0.368333
-0.336556
-0.29738
-0.252256
-0.203816
-0.155566
-0.111396
-0.0741373
-0.0454447
-0.0248887
-0.0116587
-0.00381466
-0.000335243
0.000451793
-0.255904
-0.270019
-0.281964
-0.293378
-0.305687
-0.319297
-0.333794
-0.348432
-0.362432
-0.37504
-0.385444
-0.392736
-0.395942
-0.394036
-0.386048
-0.371293
-0.34938
-0.320289
-0.284508
-0.24333
-0.19899
-0.154527
-0.113296
-0.0779266
-0.0500231
-0.0294953
-0.015657
-0.00692857
-0.00227911
-0.000255999
-0.246215
-0.259962
-0.27158
-0.28244
-0.293848
-0.306265
-0.319396
-0.332585
-0.345113
-0.356305
-0.365444
-0.371752
-0.374357
-0.372355
-0.364883
-0.351308
-0.331245
-0.304696
-0.272097
-0.234592
-0.194078
-0.153178
-0.114776
-0.0812869
-0.0542414
-0.0338218
-0.0194714
-0.00992153
-0.00416198
-0.000937003
-0.236409
-0.24968
-0.260909
-0.271249
-0.281868
-0.293232
-0.305141
-0.317033
-0.328257
-0.338198
-0.346224
-0.351666
-0.35375
-0.351688
-0.344722
-0.332268
-0.313955
-0.28979
-0.260155
-0.226057
-0.189098
-0.151538
-0.115844
-0.084214
-0.0580845
-0.0378482
-0.023079
-0.012776
-0.00597199
-0.00158848
-0.226627
-0.239321
-0.250102
-0.259934
-0.269843
-0.280278
-0.2911
-0.301836
-0.311903
-0.320745
-0.3278
-0.332487
-0.334132
-0.33205
-0.325574
-0.314179
-0.29751
-0.275569
-0.248685
-0.217734
-0.184069
-0.149628
-0.116515
-0.0867085
-0.061541
-0.0415576
-0.0264594
-0.0154758
-0.00769789
-0.00220774
-0.216954
-0.228999
-0.239286
-0.248614
-0.257874
-0.267479
-0.277335
-0.287041
-0.296083
-0.303961
-0.310172
-0.314214
-0.315498
-0.313434
-0.307434
-0.297034
-0.281901
-0.262028
-0.237687
-0.209636
-0.179012
-0.147474
-0.116806
-0.0887755
-0.0646037
-0.0449369
-0.029595
-0.0180061
-0.00932932
-0.00279216
-0.207465
-0.218817
-0.228576
-0.2374
-0.246056
-0.254914
-0.263908
-0.272699
-0.280833
-0.287865
-0.293348
-0.296844
-0.29784
-0.295827
-0.290292
-0.280825
-0.267119
-0.249159
-0.22716
-0.201773
-0.173948
-0.145102
-0.116737
-0.0904251
-0.0672701
-0.047977
-0.0324717
-0.0203541
-0.010857
-0.00333932
-0.198233
-0.208866
-0.218073
-0.226395
-0.234482
-0.242662
-0.250884
-0.258861
-0.266194
-0.272487
-0.277342
-0.280379
-0.281151
-0.27922
-0.274137
-0.265543
-0.253159
-0.236959
-0.217108
-0.19416
-0.168902
-0.14254
-0.116334
-0.0916721
-0.0695426
-0.050673
-0.0350793
-0.0225094
-0.012273
-0.00384708
-0.18932
-0.199221
-0.207864
-0.215688
-0.223239
-0.230799
-0.238329
-0.245582
-0.252207
-0.257855
-0.262171
-0.264822
-0.265429
-0.263607
-0.258961
-0.251182
-0.240014
-0.225425
-0.207536
-0.186813
-0.163899
-0.139819
-0.115626
-0.0925368
-0.0714289
-0.0530249
-0.0374116
-0.0244645
-0.013571
-0.00431363
-0.180774
-0.189948
-0.198026
-0.205361
-0.212405
-0.219398
-0.226305
-0.232913
-0.238915
-0.244002
-0.247855
-0.250177
-0.250676
-0.248983
-0.244758
-0.237734
-0.227679
-0.214559
-0.198452
-0.179747
-0.158965
-0.136973
-0.114644
-0.0930445
-0.0729423
-0.0550372
-0.039467
-0.0262151
-0.0147466
-0.00473765
-0.172639
-0.181103
-0.188624
-0.195484
-0.202051
-0.208525
-0.21487
-0.220906
-0.22636
-0.230962
-0.23442
-0.236433
-0.236898
-0.235348
-0.231521
-0.225193
-0.216152
-0.204361
-0.189864
-0.172981
-0.154129
-0.134037
-0.113426
-0.0932254
-0.0741021
-0.0567199
-0.0412486
-0.0277604
-0.0157972
-0.00511832
-0.164952
-0.172733
-0.179716
-0.18612
-0.192241
-0.198239
-0.20408
-0.209606
-0.21458
-0.218768
-0.221921
-0.223838
-0.224134
-0.222703
-0.219246
-0.213554
-0.205431
-0.194835
-0.181783
-0.166536
-0.14942
-0.131048
-0.112011
-0.0931148
-0.0749335
-0.0580879
-0.0427637
-0.0291029
-0.0167226
-0.00545545
-0.157749
-0.164881
-0.171352
-0.177325
-0.183031
-0.188595
-0.193982
-0.199055
-0.203607
-0.207431
-0.210303
-0.212023
-0.212322
-0.211037
-0.207927
-0.202812
-0.195513
-0.185986
-0.174223
-0.160434
-0.144871
-0.128047
-0.110442
-0.0927522
-0.0754671
-0.0591612
-0.0440239
-0.0302488
-0.0175248
-0.00574949
-0.15106
-0.157587
-0.163576
-0.169146
-0.174471
-0.179643
-0.184624
-0.189295
-0.193474
-0.196981
-0.199613
-0.20119
-0.20149
-0.20035
-0.197562
-0.192968
-0.186404
-0.177824
-0.167202
-0.154705
-0.140522
-0.12508
-0.108767
-0.0921816
-0.0757386
-0.0599651
-0.045045
-0.0312077
-0.018208
-0.00600158
-0.144918
-0.150887
-0.156431
-0.161631
-0.166608
-0.171428
-0.176049
-0.180366
-0.184219
-0.187451
-0.18988
-0.191345
-0.191653
-0.190653
-0.188157
-0.184028
-0.178112
-0.170365
-0.160743
-0.149379
-0.136411
-0.122193
-0.107034
-0.0914506
-0.0757883
-0.0605293
-0.0458468
-0.0319918
-0.0187786
-0.0062136
-0.139355
-0.144818
-0.149959
-0.154823
-0.15949
-0.163998
-0.168301
-0.172309
-0.17588
-0.178876
-0.181134
-0.182511
-0.182831
-0.18196
-0.179725
-0.176005
-0.170655
-0.16363
-0.154877
-0.144497
-0.132587
-0.11944
-0.105299
-0.0906105
-0.0756604
-0.0608879
-0.0464525
-0.0326164
-0.0192447
-0.00638808
-0.134406
-0.139421
-0.144202
-0.148769
-0.153163
-0.157399
-0.161428
-0.165169
-0.168498
-0.171294
-0.173409
-0.174715
-0.175051
-0.174295
-0.172289
-0.168922
-0.164059
-0.157652
-0.14964
-0.140102
-0.129099
-0.116875
-0.103619
-0.0897155
-0.0754022
-0.0610782
-0.0468882
-0.0330986
-0.0196159
-0.00652808
-0.130114
-0.134741
-0.139211
-0.143521
-0.147681
-0.151685
-0.155482
-0.158998
-0.162124
-0.164752
-0.16675
-0.167999
-0.168352
-0.167696
-0.165885
-0.162816
-0.158361
-0.152472
-0.145081
-0.136247