/*--------------------------------*- C++ -*----------------------------------*\
  =========                 |
  \\      /  F ield         | OpenFOAM: The Open Source CFD Toolbox
   \\    /   O peration     | Website:  https://openfoam.org
    \\  /    A nd           | Version:  7
     \\/     M anipulation  |
\*---------------------------------------------------------------------------*/
FoamFile
{
    version     2.0;
    format      ascii;
    class       volVectorField;
    location    "15";
    object      U;
}
// * * * * * * * * * * * * * * * * * * * * * * * * * * * * * * * * * * * * * //

dimensions      [0 1 -1 0 0 0 0];

internalField   nonuniform List<vector> 
8500
(
(-0.00401475 0.00325276 -6.83826e-20)
(-0.020063 0.00671399 -1.58544e-19)
(-0.0478745 0.00844035 -2.64845e-19)
(-0.079123 0.00922962 2.62183e-19)
(-0.112214 0.00960157 -2.41026e-19)
(-0.146506 0.00988768 -1.29415e-19)
(-0.182087 0.0102494 2.23975e-19)
(-0.219347 0.0107379 2.81659e-19)
(-0.258686 0.0113526 -4.79495e-20)
(-0.301084 0.0121461 1.43475e-19)
(-0.00434238 0.00961861 3.6028e-20)
(-0.0203775 0.0199159 2.23069e-19)
(-0.0476685 0.0250957 -6.34359e-19)
(-0.0782537 0.027484 5.72434e-19)
(-0.110586 0.0286129 2.48487e-20)
(-0.144006 0.029469 4.2251e-19)
(-0.178557 0.0305389 -7.42792e-19)
(-0.214581 0.0319813 -1.10721e-18)
(-0.252371 0.0337961 -2.23126e-19)
(-0.292829 0.0361329 5.15436e-19)
(-0.00497053 0.0155835 8.30854e-20)
(-0.0209838 0.0324684 5.9864e-19)
(-0.0472629 0.041105 1.39692e-18)
(-0.0765502 0.0451536 -1.26034e-18)
(-0.107393 0.0470788 -2.86206e-19)
(-0.139101 0.0484995 -2.6166e-19)
(-0.171633 0.0502333 1.33921e-18)
(-0.205241 0.0525626 8.45005e-19)
(-0.240015 0.0554927 2.15674e-19)
(-0.276676 0.0592414 -1.59813e-18)
(-0.00584773 0.0209096 2.94789e-19)
(-0.0218379 0.0439721 -3.50826e-19)
(-0.0466709 0.0560587 -2.608e-18)
(-0.0740812 0.061861 2.28345e-19)
(-0.102758 0.0646464 7.1139e-19)
(-0.131976 0.0666255 -5.58075e-19)
(-0.161575 0.068953 -3.05771e-20)
(-0.191689 0.0720607 -2.33229e-19)
(-0.222142 0.0759738 5.38573e-19)
(-0.253298 0.080916 1.60438e-18)
(-0.00690308 0.025401 2.05813e-19)
(-0.0228783 0.0540761 -1.13384e-18)
(-0.0459119 0.0695787 2.69888e-18)
(-0.0709469 0.0772473 -1.22126e-18)
(-0.0968587 0.080978 -4.60607e-21)
(-0.122896 0.0835111 1.69477e-18)
(-0.148755 0.0863421 -7.85199e-19)
(-0.174438 0.0900829 9.97348e-20)
(-0.199497 0.0948105 -3.262e-19)
(-0.223624 0.100645 1.16439e-19)
(-0.0080531 0.0289159 2.46139e-18)
(-0.0240308 0.0624953 2.91825e-18)
(-0.0450118 0.081331 -7.38395e-19)
(-0.0672754 0.0909795 1.40274e-18)
(-0.0899228 0.0957553 4.40944e-19)
(-0.112196 0.0988434 -6.2818e-19)
(-0.133638 0.102074 -2.40498e-19)
(-0.154112 0.10627 -1.09253e-18)
(-0.172995 0.111621 2.33385e-19)
(-0.188764 0.117976 -1.49813e-18)
(-0.00920991 0.0313746 -2.3729e-18)
(-0.0252153 0.0690248 -1.52211e-18)
(-0.0440029 0.0910379 1.23112e-18)
(-0.0632182 0.102758 -2.11878e-18)
(-0.0822168 0.108683 2.44909e-19)
(-0.100267 0.112334 2.49596e-18)
(-0.116762 0.115856 -4.46442e-19)
(-0.131408 0.120298 -2.00948e-19)
(-0.143671 0.126065 1.41583e-18)
(-0.149949 0.132541 -3.29998e-19)
(-0.0102899 0.0327626 1.99756e-18)
(-0.0263522 0.0735503 -3.52495e-18)
(-0.0429245 0.0984904 -1.38859e-18)
(-0.0589463 0.112323 1.61676e-18)
(-0.0740396 0.119492 5.55748e-20)
(-0.0875406 0.123719 -4.68024e-18)
(-0.0987235 0.127429 1.50428e-18)
(-0.107064 0.131884 1.00779e-18)
(-0.112607 0.13781 -2.79345e-18)
(-0.108539 0.144151 1.53286e-18)
(-0.0112225 0.033129 -1.11732e-18)
(-0.0273717 0.0760541 5.23986e-19)
(-0.041823 0.10356 1.28052e-18)
(-0.0546439 0.119466 -1.13903e-18)
(-0.0657126 0.127941 -3.99415e-18)
(-0.0744749 0.132757 1.38292e-18)
(-0.080157 0.13656 -6.96739e-19)
(-0.0818744 0.140811 5.81731e-19)
(-0.0807844 0.146451 4.8117e-18)
(-0.0661111 0.152947 -2.21681e-18)
(-0.0119567 0.0325776 1.76208e-18)
(-0.0282227 0.076619 1.56395e-18)
(-0.0407518 0.106204 -2.23357e-19)
(-0.0505029 0.124042 5.67169e-18)
(-0.0575697 0.133827 2.39881e-18)
(-0.0615413 0.139232 1.80684e-18)
(-0.0616941 0.143034 1.21606e-18)
(-0.0567504 0.146987 -3.40405e-18)
(-0.0489856 0.151664 -1.60729e-18)
(-0.024163 0.158547 -2.72015e-18)
(-0.0124655 0.0312598 -1.6371e-19)
(-0.0288807 0.0754206 -2.46351e-18)
(-0.0397759 0.106481 -1.75677e-18)
(-0.0467131 0.125977 -2.7991e-18)
(-0.049945 0.136988 -2.21956e-18)
(-0.0492187 0.142949 2.22726e-18)
(-0.043913 0.146678 -1.70761e-18)
(-0.0325436 0.15021 1.52288e-18)
(-0.0183779 0.153482 1.9789e-19)
(0.0166951 0.160146 7.13251e-19)
(-0.0127524 0.0293598 -4.84293e-18)
(-0.029353 0.0727121 2.25605e-18)
(-0.0389727 0.104548 1.62858e-18)
(-0.0434577 0.125283 2.01187e-18)
(-0.043151 0.137323 -2.8332e-18)
(-0.037958 0.143756 -1.66888e-18)
(-0.0274256 0.14733 2.42346e-18)
(-0.00989946 0.150297 6.93572e-19)
(0.00988048 0.151955 1.60926e-18)
(0.0555155 0.157236 -2.17833e-18)
(-0.0128514 0.027078 4.04351e-18)
(-0.0296854 0.0688091 1.59866e-18)
(-0.0384287 0.100653 9.53376e-20)
(-0.0409019 0.122071 -9.62374e-19)
(-0.0374598 0.134813 -6.69663e-19)
(-0.0281531 0.141546 1.30918e-18)
(-0.0127388 0.144852 -1.43144e-18)
(0.010535 0.147259 -2.27655e-18)
(0.0350476 0.146903 -4.51235e-18)
(0.0916647 0.149664 3.31386e-18)
(-0.0128257 0.0246169 2.71068e-18)
(-0.0299631 0.0640659 -4.30773e-18)
(-0.0382378 0.0951245 -3.28054e-18)
(-0.0391759 0.116561 1.40453e-18)
(-0.0330685 0.129543 2.85604e-18)
(-0.0200846 0.136301 3.19573e-18)
(-0.00016403 0.139187 -1.71629e-18)
(0.0283064 0.141178 5.09041e-18)
(0.0569159 0.138276 -1.51899e-18)
(0.126013 0.137743 -3.89957e-18)
(-0.0127633 0.0221683 -1.95218e-19)
(-0.0303039 0.0588486 2.40287e-18)
(-0.0384918 0.0883525 -1.12382e-18)
(-0.0383527 0.109072 1.15045e-19)
(-0.0300504 0.121728 1.18077e-18)
(-0.0138308 0.12814 -3.80509e-18)
(0.0103428 0.13043 3.40544e-18)
(0.0434239 0.132277 -3.32428e-18)
(0.0764564 0.126119 5.46541e-18)
(0.161999 0.122943 2.05633e-18)
(-0.0127697 0.0199009 -1.24917e-18)
(-0.0308435 0.0535079 4.62523e-18)
(-0.0392592 0.0807628 -1.13876e-18)
(-0.0384116 0.100025 1.15226e-18)
(-0.0282843 0.111737 1.31602e-18)
(-0.00913207 0.117371 -3.85137e-19)
(0.0194312 0.118932 2.86305e-18)
(0.0567302 0.121001 1.27294e-19)
(0.0970711 0.110709 -3.53305e-18)
(0.205613 0.108401 4.84541e-18)
(-0.0129565 0.0179506 -2.2918e-18)
(-0.0317117 0.0483555 -4.36523e-18)
(-0.0405523 0.0727894 3.74932e-18)
(-0.0391872 0.0899213 1.85122e-18)
(-0.0273604 0.100098 -8.57634e-18)
(-0.00521036 0.104538 6.94918e-18)
(0.0286709 0.105415 -6.30294e-18)
(0.0704053 0.107989 7.55123e-20)
(0.126034 0.0934817 -1.47151e-18)
(0.262806 0.0980938 -4.52534e-18)
(-0.0134258 0.0164121 1.95444e-18)
(-0.0330007 0.0436441 -2.47007e-19)
(-0.0422835 0.0648466 -9.219e-19)
(-0.0403064 0.0793193 -1.15944e-19)
(-0.0264746 0.0874961 -5.11692e-19)
(-0.000578864 0.0904478 -2.23174e-18)
(0.040791 0.0910634 9.76639e-19)
(0.0885814 0.0938848 -1.49876e-18)
(0.174453 0.0783854 4.3076e-19)
(0.334054 0.0952138 1.06101e-19)
(-0.014252 0.0153315 -3.98107e-18)
(-0.0347273 0.0395474 -2.64017e-19)
(-0.0442243 0.057304 4.13206e-19)
(-0.0411326 0.0688014 1.62446e-19)
(-0.024349 0.0747327 2.79107e-18)
(0.00707448 0.0761469 -8.05239e-18)
(0.0595708 0.0774703 5.43416e-18)
(0.117946 0.0791158 -4.09482e-18)
(0.253287 0.0717473 3.52985e-18)
(0.411512 0.0997515 4.099e-18)
(-0.015465 0.0146999 -4.6832e-19)
(-0.0367956 0.0361425 2.16928e-18)
(-0.045979 0.0504662 -2.6877e-18)
(-0.040743 0.0589234 -8.34287e-19)
(-0.019234 0.0626579 1.59098e-18)
(0.0208069 0.0628667 7.62909e-18)
(0.0891566 0.0662793 -1.54196e-18)
(0.16731 0.0651645 7.50633e-19)
(0.36351 0.0782502 -4.02447e-18)
(0.484975 0.10488 1.91662e-18)
(-0.0170435 0.0144537 -1.4212e-18)
(-0.0390047 0.0334332 -1.08148e-18)
(-0.0469591 0.0445262 2.60517e-19)
(-0.0379621 0.0501447 1.04936e-18)
(-0.00902646 0.0520716 -3.06648e-18)
(0.0441291 0.0518973 -1.23829e-18)
(0.133707 0.0585794 -3.85704e-18)
(0.245194 0.0571734 4.06505e-18)
(0.488407 0.0944046 4.32597e-18)
(0.553771 0.0970726 -1.93181e-18)
(-0.0188997 0.0144887 -6.61225e-19)
(-0.0410542 0.0313228 2.71804e-18)
(-0.0464463 0.0395347 -3.01588e-18)
(-0.0314461 0.0427802 -3.41399e-19)
(0.00850275 0.0436042 -1.39202e-18)
(0.0803911 0.0443139 3.03414e-18)
(0.197245 0.0550209 3.91801e-18)
(0.353672 0.0616882 -3.78684e-18)
(0.604977 0.107091 4.09329e-18)
(0.726754 0.108615 5.6756e-19)
(-0.020893 0.0146622 -1.92543e-18)
(-0.0425379 0.029616 -5.46569e-18)
(-0.0436618 0.0354288 5.29663e-18)
(-0.019826 0.0369568 7.62345e-19)
(0.0354718 0.0376425 1.11342e-18)
(0.132263 0.0408821 6.50279e-19)
(0.282681 0.0569357 2.98804e-18)
(0.482104 0.0769901 2.22277e-18)
(0.7318 0.122578 -7.9535e-18)
(0.892089 0.139896 -4.00068e-18)
(-0.0228498 0.0148163 2.65557e-18)
(-0.042994 0.0280662 -6.44402e-19)
(-0.037808 0.0320363 -2.97376e-18)
(-0.00180856 0.0326289 5.78283e-19)
(0.0737445 0.0343602 9.27008e-19)
(0.201495 0.0421812 -6.59367e-18)
(0.389252 0.0659267 2.89652e-18)
(0.61934 0.0981253 -1.9957e-18)
(0.858699 0.144388 2.09853e-18)
(1.01214 0.165464 -7.4459e-19)
(-0.0245892 0.0148039 2.64618e-18)
(-0.041954 0.0264303 5.89856e-18)
(-0.0280805 0.0291242 1.759e-19)
(0.023801 0.0296607 -8.10786e-19)
(0.124885 0.0338882 3.86298e-20)
(0.288578 0.048777 7.46417e-20)
(0.511254 0.0821036 -4.41655e-18)
(0.7543 0.122476 5.40247e-19)
(0.969018 0.166693 5.63038e-18)
(1.10509 0.185872 2.64136e-18)
(-0.025929 0.0145114 -4.46237e-21)
(-0.0389555 0.0244946 -1.18972e-18)
(-0.0136855 0.0264771 4.85192e-18)
(0.0581527 0.0279768 1.27705e-19)
(0.190094 0.0365941 -2.07586e-18)
(0.39184 0.0611267 5.6025e-18)
(0.639345 0.103665 1.23618e-18)
(0.876279 0.147453 8.80824e-20)
(1.05962 0.187003 -2.44686e-18)
(1.16847 0.202486 -3.31015e-18)
(-0.0266696 0.0138527 3.34083e-18)
(-0.0335255 0.022126 -9.28322e-19)
(0.00617581 0.0240045 -2.91963e-18)
(0.102398 0.0277161 1.90652e-19)
(0.269863 0.0432305 3.40407e-18)
(0.506551 0.0790084 -3.38692e-18)
(0.763318 0.127943 -1.90912e-18)
(0.979826 0.17107 -4.324e-19)
(1.12866 0.204522 -1.40595e-18)
(1.21106 0.214945 1.62151e-18)
(-0.0266297 0.0128282 -1.23183e-18)
(-0.0251377 0.019312 -7.19787e-18)
(0.0323573 0.0217778 7.49163e-19)
(0.157636 0.029377 1.93808e-18)
(0.363174 0.0546344 1.26011e-18)
(0.625385 0.10112 -4.45137e-18)
(0.875464 0.152617 4.04136e-18)
(1.06315 0.192335 -4.57409e-18)
(1.17911 0.219001 -6.89815e-19)
(1.23806 0.224909 8.17163e-19)
(-0.0256592 0.0114653 -1.34236e-18)
(-0.0132332 0.0161341 2.55725e-18)
(0.0657795 0.0200879 3.30392e-18)
(0.224625 0.0338688 -4.04997e-18)
(0.466729 0.0710409 2.30742e-18)
(0.740627 0.125561 3.47954e-18)
(0.971622 0.176197 1.03574e-18)
(1.12749 0.210917 2.85567e-18)
(1.21417 0.230978 2.04364e-18)
(1.25388 0.232783 -2.25837e-18)
(-0.0235652 0.00981483 -1.73021e-18)
(0.00275554 0.0128015 -5.74846e-19)
(0.107351 0.0194669 -5.97659e-18)
(0.303193 0.0422748 -9.33074e-19)
(0.575154 0.0916995 -1.14934e-19)
(0.846332 0.150625 3.09894e-19)
(1.05068 0.197935 -6.30683e-18)
(1.17531 0.226973 1.15502e-18)
(1.23736 0.240874 4.64344e-20)
(1.26234 0.239449 1.54263e-18)
(-0.0201351 0.00796116 -4.5153e-19)
(0.0234122 0.00962135 2.08215e-18)
(0.157818 0.0207017 2.91626e-18)
(0.391647 0.0553186 1.81296e-18)
(0.682457 0.115239 -5.39918e-19)
(0.939093 0.175162 -4.46397e-19)
(1.11345 0.217602 4.81121e-18)
(1.20956 0.240824 4.5888e-19)
(1.25174 0.249288 7.06393e-19)
(1.26568 0.245376 -9.45004e-19)
(-0.0151406 0.00601231 4.29956e-18)
(0.0493023 0.00698525 2.75165e-18)
(0.21749 0.02477 -2.76627e-18)
(0.486665 0.0729401 -5.48501e-19)
(0.783621 0.140302 2.8846e-19)
(1.01767 0.198542 -1.05325e-18)
(1.16176 0.235268 -8.3764e-19)
(1.23307 0.252911 -1.84074e-18)
(1.25973 0.256674 -3.04039e-18)
(1.26578 0.250957 1.51536e-18)
(-0.00834557 0.00409199 5.35192e-19)
(0.0809185 0.00537433 -1.49783e-18)
(0.285915 0.032622 3.52107e-18)
(0.583958 0.0943855 2.28744e-18)
(0.875344 0.165877 7.1728e-20)
(1.08229 0.220501 1.63407e-18)
(1.19779 0.251175 -3.96347e-19)
(1.24833 0.263658 -1.49463e-18)
(1.26322 0.263451 3.80182e-18)
(1.26366 0.256466 1.02393e-18)
(0.000479694 0.00233786 -3.54987e-18)
(0.118602 0.00536818 -1.03236e-18)
(0.361684 0.0448698 -9.24397e-19)
(0.679305 0.11865 -1.60934e-18)
(0.955938 0.191328 3.78347e-19)
(1.13404 0.241017 1.14094e-20)
(1.22374 0.265634 1.28053e-18)
(1.25739 0.273464 -1.51806e-18)
(1.26353 0.269926 -2.28117e-18)
(1.26007 0.26205 -1.55997e-18)
(0.0115415 0.000906477 2.90044e-19)
(0.16244 0.0076307 1.67732e-18)
(0.4425 0.0616074 8.09114e-19)
(0.769346 0.144829 -2.52011e-18)
(1.02491 0.216297 -1.30986e-19)
(1.17441 0.260203 -1.09008e-18)
(1.2416 0.278977 2.90848e-20)
(1.26182 0.282662 5.24876e-19)
(1.26161 0.276332 -6.05274e-19)
(1.25542 0.267815 1.7292e-18)
(0.0250052 -1.47789e-05 6.86807e-19)
(0.212156 0.0128483 -1.65065e-18)
(0.525545 0.0824851 -3.86558e-18)
(0.851839 0.172242 3.5461e-18)
(1.08257 0.240613 -2.65964e-19)
(1.205 0.278249 7.83405e-19)
(1.25306 0.291513 -1.15093e-19)
(1.26282 0.291522 7.80746e-19)
(1.25806 0.282827 -5.13445e-20)
(1.24993 0.273788 -1.3444e-18)
(0.0409788 -0.000195629 -1.41138e-18)
(0.267048 0.0216244 2.15947e-18)
(0.607957 0.106926 1.76173e-18)
(0.925533 0.200417 -2.53945e-18)
(1.12965 0.264225 -4.21983e-19)
(1.22733 0.29537 1.59347e-19)
(1.25948 0.303513 1.63847e-18)
(1.26124 0.300247 8.90532e-20)
(1.25325 0.289509 3.36476e-19)
(1.24373 0.279976 -7.28208e-19)
(0.0594939 0.000641551 1.07197e-18)
(0.325988 0.0343787 -9.47563e-19)
(0.687232 0.134305 -8.08294e-19)
(0.989904 0.229034 1.36963e-18)
(1.16714 0.287159 4.69375e-19)
(1.24276 0.31178 3.57863e-19)
(1.26193 0.315198 -1.6686e-18)
(1.25767 0.308976 -5.85524e-19)
(1.24743 0.296428 -5.35943e-19)
(1.23686 0.286351 2.39138e-19)
(0.0804854 0.00280857 -3.22585e-19)
(0.387518 0.0512957 -2.99536e-19)
(0.761432 0.164043 1.53198e-18)
(1.04492 0.257865 -5.53946e-19)
(1.19608 0.30948 -2.4509e-19)
(1.25246 0.32767 -1.60455e-19)
(1.26121 0.326731 4.05559e-19)
(1.2525 0.3178 7.12015e-19)
(1.24069 0.303592 -2.15951e-20)
(1.22935 0.292871 2.72366e-19)
(0.103776 0.0066185 -9.96145e-20)
(0.449988 0.0723287 3.92832e-19)
(0.829211 0.195638 -3.3771e-19)
(1.09084 0.286738 -2.07455e-19)
(1.21747 0.331264 1.61866e-19)
(1.25738 0.343197 1.13107e-19)
(1.25792 0.338224 -6.39691e-20)
(1.24597 0.326759 1.1101e-19)
(1.23311 0.310979 2.89229e-20)
(1.2212 0.299478 -8.75719e-20)
(0.129071 0.0123441 4.35993e-20)
(0.51172 0.0972389 3.278e-19)
(0.889727 0.228662 -2.55797e-19)
(1.12813 0.315508 -2.45363e-19)
(1.23223 0.352573 1.63392e-19)
(1.25828 0.358477 1.06253e-19)
(1.25247 0.349739 -1.69442e-19)
(1.23823 0.335856 1.72447e-19)
(1.22468 0.318537 1.56377e-20)
(1.21241 0.306109 -8.43227e-20)
(0.155964 0.0201832 1.70213e-19)
(0.571138 0.12564 -1.49874e-19)
(0.942531 0.262741 1.0859e-18)
(1.15734 0.344046 -4.74871e-19)
(1.24116 0.37345 -2.27789e-19)
(1.25576 0.373578 -2.57626e-19)
(1.24514 0.361293 5.28971e-19)
(1.22935 0.34506 3.58162e-19)
(1.21543 0.326195 2.91548e-19)
(1.20297 0.312705 1.63877e-19)
(0.183951 0.030243 1.75246e-18)
(0.626876 0.157043 -9.38752e-19)
(0.987465 0.297528 -1.03567e-18)
(1.17907 0.372231 1.38346e-18)
(1.24496 0.393907 7.19282e-19)
(1.25026 0.388527 -4.84595e-20)
(1.23611 0.372865 -8.86444e-19)
(1.21934 0.354313 -6.43758e-19)
(1.20531 0.333867 -6.87751e-19)
(1.19286 0.319202 4.17039e-19)
(0.212451 0.0425428 -2.38303e-18)
(0.677824 0.190884 2.19037e-18)
(1.02457 0.332686 2.46697e-18)
(1.19391 0.399945 -2.3632e-18)
(1.2442 0.413931 -8.02445e-19)
(1.24213 0.403309 5.1408e-19)
(1.22548 0.384405 9.35254e-19)
(1.20822 0.363536 1.48889e-19)
(1.1943 0.341454 -2.94291e-20)
(1.18205 0.325525 -5.76201e-19)
(0.240831 0.0570258 -3.54402e-19)
(0.723164 0.22657 -3.112e-18)
(1.05401 0.367871 -3.23922e-18)
(1.20243 0.427069 3.52859e-18)
(1.23938 0.433482 -3.95666e-19)
(1.2316 0.417877 7.21518e-19)
(1.21334 0.395838 1.43896e-19)
(1.19597 0.372644 -4.04586e-19)
(1.18234 0.348855 2.15613e-19)
(1.17041 0.331588 -2.70418e-20)
(0.268443 0.0735651 7.1605e-19)
(0.762362 0.263514 1.95121e-18)
(1.07604 0.402744 1.064e-18)
(1.20516 0.45347 -8.17664e-19)
(1.2309 0.452488 -1.25249e-18)
(1.21887 0.43215 -1.15054e-18)
(1.19973 0.407071 -2.33103e-19)
(1.18258 0.381555 6.22226e-19)
(1.1694 0.356004 -1.29729e-19)
(1.15776 0.337321 3.15232e-19)
(0.294664 0.091966 -2.76342e-18)
(0.79511 0.301159 -2.47761e-18)
(1.09096 0.436978 -3.79067e-19)
(1.20256 0.478996 -4.18519e-19)
(1.21908 0.470855 -9.27471e-19)
(1.20408 0.446022 5.59584e-19)
(1.18467 0.417987 -1.01788e-19)
(1.16804 0.390177 -9.96509e-19)
(1.15549 0.362901 -1.7154e-19)
(1.14396 0.342695 -1.36976e-18)
(0.318916 0.111974 6.26738e-19)
(0.821263 0.338971 2.09837e-18)
(1.09914 0.470246 1.75116e-18)
(1.19508 0.503478 1.85864e-18)
(1.20422 0.488465 3.41963e-20)
(1.18732 0.459373 1.57434e-18)
(1.16815 0.428457 -9.602e-19)
(1.15234 0.398368 5.25051e-19)
(1.14068 0.369577 1.15241e-18)
(1.12911 0.347714 6.70831e-19)
(0.340692 0.133285 1.81532e-18)
(0.840814 0.376444 3.95172e-18)
(1.10097 0.502235 -4.88177e-19)
(1.18311 0.526738 -2.35551e-18)
(1.18654 0.505184 1.03677e-18)
(1.16868 0.472072 -1.06476e-18)
(1.15021 0.438355 -8.40907e-19)
(1.1355 0.405959 -6.30999e-19)
(1.1249 0.375903 -1.10989e-18)
(1.11371 0.352277 4.37108e-19)
(0.359574 0.155556 8.68716e-19)
(0.853864 0.413099 6.40099e-19)
(1.09686 0.532643 4.70409e-18)
(1.16703 0.548589 8.36447e-19)
(1.16623 0.52086 -7.21513e-19)
(1.14825 0.483971 -3.65206e-19)
(1.13095 0.447563 2.26083e-18)
(1.11773 0.41293 -7.41715e-20)
(1.10797 0.38158 8.8965e-19)
(1.09784 0.356385 -1.18971e-19)
(0.375235 0.178416 1.77409e-19)
(0.860604 0.448485 -4.05078e-18)
(1.08722 0.561186 -5.53186e-18)
(1.14717 0.568844 1.60067e-19)
(1.14349 0.535323 1.01137e-18)
(1.12618 0.494899 -1.38899e-18)
(1.11052 0.455885 -3.33139e-18)
(1.09893 0.419215 9.87913e-19)
(1.09001 0.386561 -5.50645e-20)
(1.08142 0.359778 4.46797e-19)
(0.387446 0.201479 -1.52475e-18)
(0.861293 0.482177 3.73222e-18)
(1.07249 0.587596 3.33566e-18)
(1.12388 0.587317 -1.10692e-18)
(1.11854 0.548396 -1.07195e-18)
(1.1026 0.504676 3.31791e-18)
(1.08888 0.463227 -7.10226e-19)
(1.07903 0.424662 1.20865e-18)
(1.07127 0.390746 5.26636e-19)
(1.06442 0.362425 -3.89937e-19)
(0.396071 0.224352 -3.49815e-18)
(0.856258 0.513773 -5.86492e-18)
(1.05309 0.61162 -1.09099e-18)
(1.09745 0.603819 2.108e-18)
(1.09159 0.559914 1.16052e-18)
(1.07756 0.51313 -2.94074e-18)
(1.06607 0.469439 2.02545e-18)
(1.05813 0.429161 -1.32837e-18)
(1.05176 0.394024 -2.40365e-19)
(1.04688 0.364215 2.68733e-20)
(0.401077 0.246657 2.67474e-18)
(0.845898 0.542924 1.71568e-19)
(1.02938 0.632991 -5.48739e-19)
(1.06819 0.618137 -2.10397e-18)
(1.06281 0.569708 1.29129e-18)
(1.05115 0.520114 -4.47382e-19)
(1.04219 0.474394 -8.78149e-19)
(1.03633 0.432584 1.9705e-19)
(1.0316 0.396278 -1.75503e-19)
(1.02887 0.365087 6.76437e-20)
(0.402549 0.268026 2.11674e-19)
(0.830677 0.569384 -9.94664e-19)
(1.00159 0.651406 2.32714e-18)
(1.03642 0.630063 1.03792e-18)
(1.03237 0.577595 -1.35142e-18)
(1.02353 0.525496 1.78963e-18)
(1.01734 0.477973 1.52077e-19)
(1.01372 0.434828 1.94333e-19)
(1.01081 0.397394 1.04129e-19)
(1.01042 0.364942 1.87942e-20)
(0.400675 0.288077 2.14507e-18)
(0.811003 0.593012 3.5073e-18)
(0.970057 0.66667 -2.46608e-19)
(1.00246 0.639318 -4.6632e-19)
(1.00049 0.58342 -5.41596e-19)
(0.994846 0.529144 -2.58769e-19)
(0.991631 0.480068 1.92139e-19)
(0.99039 0.435796 1.20809e-19)
(0.989494 0.397283 -6.97111e-20)
(0.991621 0.363754 -2.7482e-19)
(0.39566 0.306382 4.73627e-19)
(0.78705 0.613457 6.4599e-19)
(0.935461 0.678868 -2.94904e-18)
(0.966687 0.645698 1.2433e-18)
(0.967377 0.587006 2.42357e-19)
(0.965246 0.530932 -5.12048e-19)
(0.965173 0.480576 2.0733e-19)
(0.966425 0.435395 1.05744e-19)
(0.967827 0.395878 -3.18406e-19)
(0.972883 0.361531 3.55184e-19)
(0.387599 0.322644 -1.86023e-18)
(0.758913 0.630087 -1.31569e-18)
(0.898432 0.687902 8.75671e-19)
(0.929429 0.649212 1.79587e-19)
(0.933262 0.588223 -4.88519e-19)
(0.934881 0.530742 3.85548e-19)
(0.938059 0.47939 2.10624e-19)
(0.941944 0.433503 -7.63263e-19)
(0.946169 0.393091 1.86198e-18)
(0.954923 0.358286 7.27409e-19)
(0.376586 0.336751 -1.45011e-18)
(0.727177 0.642624 3.37492e-18)
(0.859346 0.693423 -1.90108e-18)
(0.890958 0.64987 -2.8521e-19)
(0.898357 0.586996 -2.16514e-19)
(0.903901 0.528483 -1.24225e-19)
(0.910398 0.476418 -7.13086e-19)
(0.91714 0.429976 3.70299e-19)
(0.924963 0.388702 -6.06982e-20)
(0.937991 0.354054 -3.20604e-19)
(0.362801 0.348503 -9.48778e-20)
(0.692692 0.651149 -1.02353e-18)
(0.818581 0.695207 4.26671e-19)
(0.851558 0.647564 -1.76275e-19)
(0.862877 0.583263 4.83972e-19)
(0.872464 0.524089 4.46734e-19)
(0.88236 0.471613 1.36268e-18)
(0.8923 0.424757 -1.01903e-18)
(0.904395 0.382375 -1.89397e-18)
(0.920729 0.348224 8.09356e-19)
(0.346494 0.357489 5.57745e-20)
(0.655946 0.655441 -1.94476e-19)
(0.7765 0.69317 8.52252e-20)
(0.811507 0.642205 6.29862e-19)
(0.827036 0.576964 -1.10336e-18)
(0.84076 0.517504 -1.79101e-18)
(0.854192 0.464945 -5.24167e-19)
(0.867699 0.418021 -1.37074e-19)
(0.884234 0.374489 2.55436e-18)
(0.900766 0.336467 -5.34919e-19)
(0.328146 0.363622 -3.22023e-19)
(0.617462 0.655444 -4.31329e-19)
(0.733514 0.68726 4.64913e-20)
(0.771099 0.633719 7.09457e-20)
(0.791058 0.568044 -7.8734e-19)
(0.809002 0.508668 3.41625e-18)
(0.826161 0.456313 -2.36193e-18)
(0.843433 0.409699 2.77547e-18)
(0.86319 0.367032 -1.92215e-18)
(0.878371 0.331371 -2.54015e-18)
(0.30813 0.36678 6.07254e-20)
(0.577704 0.651081 -1.35488e-19)
(0.690023 0.677458 5.33881e-20)
(0.730635 0.62207 1.25484e-18)
(0.755178 0.55647 -5.13332e-19)
(0.777406 0.497548 7.74801e-19)
(0.798412 0.445656 1.38108e-18)
(0.819399 0.399354 -7.2083e-19)
(0.842 0.356665 -1.85537e-18)
(0.858159 0.320401 2.55106e-18)
(0.286814 0.366886 8.87042e-19)
(0.537151 0.642341 1.27e-18)
(0.646428 0.663774 -1.3018e-18)
(0.690413 0.607249 -1.16034e-18)
(0.719636 0.542229 4.04761e-18)
(0.746177 0.484146 -4.05859e-18)
(0.771039 0.433067 4.8131e-18)
(0.795485 0.387579 -1.18671e-18)
(0.820407 0.346005 1.25979e-18)
(0.837953 0.310935 2.35818e-18)
(0.264563 0.363901 2.13052e-18)
(0.496269 0.629247 -1.23472e-18)
(0.603115 0.646246 -7.97276e-19)
(0.650734 0.589275 -4.45148e-19)
(0.684675 0.525328 4.95126e-19)
(0.715521 0.468452 -1.06196e-18)
(0.744211 0.418453 -1.43916e-18)
(0.771996 0.37389 -3.09293e-18)
(0.799292 0.33326 3.04469e-18)
(0.818801 0.299145 -9.80189e-19)
(0.241733 0.357825 7.41391e-19)
(0.455511 0.611863 -3.33991e-19)
(0.560464 0.624942 -1.13822e-18)
(0.611892 0.568192 1.45037e-18)
(0.650534 0.505802 -2.57168e-18)
(0.68562 0.450518 6.80469e-18)
(0.718034 0.401951 -3.59102e-18)
(0.748974 0.358731 3.21067e-18)
(0.778571 0.319557 -5.8439e-18)
(0.80025 0.286685 -1.54872e-18)
(0.218671 0.348699 -6.83352e-19)
(0.415309 0.590285 2.61176e-18)
(0.518839 0.599952 6.1933e-19)
(0.574173 0.544068 -1.34826e-18)
(0.617448 0.483703 -2.29691e-18)
(0.656676 0.430371 -1.71989e-18)
(0.692703 0.38353 1.13908e-18)
(0.726683 0.341878 -2.89815e-18)
(0.758576 0.304295 1.40938e-18)
(0.782525 0.272781 1.9202e-19)
(0.19571 0.336596 -4.2382e-18)
(0.376079 0.564647 -1.04481e-18)
(0.478594 0.571396 -2.92296e-19)
(0.537855 0.516998 3.6771e-18)
(0.585643 0.45911 -3.43454e-18)
(0.628869 0.408095 7.93337e-19)
(0.668363 0.363307 -4.13832e-19)
(0.705238 0.323542 2.83131e-18)
(0.739373 0.28781 8.57968e-19)
(0.765632 0.257772 -1.7685e-18)
(0.17316 0.321614 3.81208e-18)
(0.338221 0.535123 -2.20223e-18)
(0.440067 0.539422 1.05078e-19)
(0.503207 0.487097 -3.34609e-18)
(0.55534 0.432116 4.03414e-18)
(0.602391 0.383762 -1.77119e-18)
(0.645189 0.341323 1.05131e-18)
(0.684814 0.303696 7.28298e-20)
(0.721114 0.269998 -3.48588e-19)
(0.749673 0.24159 -1.06979e-18)
(0.151321 0.303868 -1.56362e-18)
(0.302112 0.501911 4.54319e-18)
(0.403575 0.504205 2.57065e-18)
(0.470481 0.454504 4.16931e-18)
(0.526749 0.402839 -9.51693e-19)
(0.577419 0.357479 3.82258e-19)
(0.623334 0.317683 2.89274e-18)
(0.665542 0.28245 -2.90532e-18)
(0.703909 0.250978 6.43619e-20)
(0.734724 0.224341 -1.27987e-18)
(0.13048 0.2835 -3.64426e-18)
(0.268107 0.465238 -2.73157e-19)
(0.369413 0.465944 -1.51107e-18)
(0.439919 0.419378 -6.71274e-18)
(0.50007 0.371412 -6.41139e-18)
(0.554125 0.329359 1.06114e-18)
(0.602949 0.292476 -3.51253e-18)
(0.647558 0.259867 6.13739e-18)
(0.687872 0.230795 8.81046e-19)
(0.720868 0.206084 1.84016e-18)
(0.110906 0.260682 5.39655e-18)
(0.236531 0.425352 -4.3829e-18)
(0.337856 0.424863 -2.21867e-18)
(0.411742 0.3819 3.88194e-18)
(0.47549 0.337987 4.36564e-18)
(0.532671 0.299532 -1.43352e-18)
(0.584174 0.265817 1.71878e-18)
(0.630986 0.236045 -2.23456e-18)
(0.673109 0.209537 -2.85617e-18)
(0.708178 0.186906 1.08891e-18)
(0.0928503 0.235608 -3.06765e-18)
(0.207685 0.382527 1.28845e-18)
(0.309153 0.381201 4.70254e-18)
(0.386157 0.342267 -2.08689e-18)
(0.453184 0.30273 1.63116e-19)
(0.513204 0.268141 5.77364e-18)
(0.567137 0.237824 -5.54014e-19)
(0.615941 0.211084 -4.41025e-18)
(0.659718 0.187295 5.01454e-18)
(0.696724 0.166894 -1.83914e-18)
(0.0765389 0.208493 4.28578e-18)
(0.181838 0.337055 4.70913e-19)
(0.28353 0.335219 3.05111e-19)
(0.363349 0.300693 4.24608e-18)
(0.433307 0.265823 -5.60119e-19)
(0.495861 0.23534 -3.62414e-18)
(0.551958 0.208631 1.75726e-18)
(0.602529 0.185095 3.19376e-19)
(0.647789 0.164166 -2.08497e-18)
(0.686567 0.146141 3.62169e-19)
(0.0621734 0.179572 -2.67215e-18)
(0.15923 0.28925 -5.09799e-18)
(0.261188 0.287193 1.16782e-18)
(0.343483 0.257407 -2.25731e-18)
(0.416 0.227459 -1.34681e-18)
(0.480762 0.201296 3.23228e-18)
(0.538742 0.178377 -7.75916e-19)
(0.590845 0.158198 7.08667e-19)
(0.637404 0.140257 -8.56567e-19)
(0.677761 0.124743 1.70279e-18)
(0.0499292 0.149094 9.71482e-19)
(0.140069 0.239442 3.43515e-18)
(0.242299 0.237412 -4.72902e-18)
(0.326704 0.212651 2.20536e-18)
(0.401386 0.187844 -9.94605e-19)
(0.468014 0.166183 -2.76942e-18)
(0.527582 0.147212 2.24109e-18)
(0.580973 0.130521 4.64844e-19)
(0.628634 0.11568 -7.17477e-20)
(0.670354 0.102801 -1.97773e-18)
(0.039954 0.117324 3.20837e-19)
(0.124527 0.187976 1.111e-18)
(0.227011 0.18618 4.28145e-18)
(0.313132 0.166676 -8.10765e-19)
(0.389569 0.147191 -6.3187e-19)
(0.457706 0.130185 2.31318e-19)
(0.518557 0.115293 1.02536e-19)
(0.572986 0.102197 8.2997e-19)
(0.621541 0.0905513 -1.0829e-18)
(0.664383 0.0804145 -6.891e-19)
(0.0323673 0.0845365 -7.9833e-19)
(0.112748 0.135207 -1.351e-18)
(0.215441 0.133807 -3.33097e-18)
(0.302867 0.119744 1.65623e-18)
(0.380632 0.105724 1.33493e-18)
(0.449911 0.0934905 5.64058e-20)
(0.511732 0.0827797 -2.18767e-18)
(0.566943 0.0733647 -9.63806e-19)
(0.616176 0.06499 7.58044e-19)
(0.659879 0.0576835 8.1161e-19)
(0.0272591 0.0510169 -1.5114e-19)
(0.104835 0.0815011 -1.63176e-19)
(0.207678 0.0806138 6.32699e-19)
(0.295982 0.0721236 -4.22542e-19)
(0.374639 0.0636704 -3.69115e-19)
(0.444684 0.0562958 -2.47813e-19)
(0.507154 0.0498397 4.50433e-19)
(0.562888 0.0441661 1.70261e-18)
(0.612578 0.0391186 2.44837e-19)
(0.656864 0.0347077 -4.33696e-19)
(0.0246898 0.0170551 -1.78964e-20)
(0.100861 0.0272304 4.36776e-19)
(0.203781 0.0269267 3.31748e-19)
(0.292527 0.0240878 -2.55236e-19)
(0.371631 0.0212632 3.27519e-19)
(0.442061 0.0187992 1.25902e-19)
(0.504857 0.0166422 7.16557e-21)
(0.560853 0.0147469 -5.58097e-19)
(0.610772 0.0130606 1.44417e-19)
(0.655353 0.0115857 -3.35555e-19)
(0.0246898 -0.0170544 9.94646e-20)
(0.100861 -0.0272291 3.28281e-19)
(0.203781 -0.0269255 3.51697e-19)
(0.292527 -0.0240866 -2.06137e-19)
(0.371631 -0.0212621 3.35502e-19)
(0.442061 -0.0187982 -4.83757e-21)
(0.504857 -0.0166413 1.34771e-19)
(0.560853 -0.014746 -6.21356e-19)
(0.610772 -0.0130597 1.26855e-19)
(0.655353 -0.0115849 -2.90713e-19)
(0.027259 -0.0510161 -7.76694e-20)
(0.104835 -0.0814999 -4.56715e-19)
(0.207678 -0.0806125 1.23376e-18)
(0.295982 -0.0721223 -1.06957e-18)
(0.374638 -0.0636693 -4.99384e-20)
(0.444684 -0.0562947 -6.95578e-19)
(0.507154 -0.0498387 1.12013e-18)
(0.562888 -0.0441652 1.51062e-18)
(0.612578 -0.0391177 2.6805e-19)
(0.656864 -0.0347069 -5.77195e-19)
(0.0323672 -0.0845358 -1.62359e-19)
(0.112747 -0.135206 -1.17901e-18)
(0.215441 -0.133805 -2.70937e-18)
(0.302867 -0.119743 2.31222e-18)
(0.380632 -0.105723 4.70905e-19)
(0.449911 -0.0934894 4.12555e-19)
(0.511732 -0.0827787 -2.01622e-18)
(0.566942 -0.0733637 -1.17883e-18)
(0.616176 -0.0649891 -2.59925e-19)
(0.659879 -0.0576827 1.78305e-18)
(0.0399539 -0.117323 -5.70979e-19)
(0.124527 -0.187975 7.08756e-19)
(0.227011 -0.186178 4.91323e-18)
(0.313132 -0.166675 -4.35418e-19)
(0.389569 -0.14719 -1.23042e-18)
(0.457706 -0.130184 8.74048e-19)
(0.518557 -0.115292 5.83741e-20)
(0.572986 -0.102196 3.02774e-19)
(0.621541 -0.0905504 -6.5791e-19)
(0.664383 -0.0804138 -1.73832e-18)
(0.0499291 -0.149093 -3.82822e-19)
(0.140068 -0.239441 2.075e-18)
(0.242299 -0.237411 -4.94727e-18)
(0.326703 -0.21265 2.11837e-18)
(0.401386 -0.187842 1.98381e-20)
(0.468014 -0.166182 -2.62508e-18)
(0.527582 -0.147211 1.14832e-18)
(0.580973 -0.13052 -1.04866e-19)
(0.628634 -0.115679 4.29846e-19)
(0.670354 -0.102801 -1.30654e-19)
(0.0621733 -0.179571 -4.40495e-18)
(0.15923 -0.289249 -5.21677e-18)
(0.261187 -0.287192 1.352e-18)
(0.343483 -0.257406 -2.4248e-18)
(0.416 -0.227458 -6.79344e-19)
(0.480762 -0.201295 1.00041e-18)
(0.538742 -0.178376 3.6909e-19)
(0.590845 -0.158197 1.35498e-18)
(0.637403 -0.140257 -2.90193e-19)
(0.677761 -0.124743 1.55693e-18)
(0.0765387 -0.208493 4.2137e-18)
(0.181838 -0.337054 2.68425e-18)
(0.28353 -0.335218 -2.01263e-18)
(0.363348 -0.300692 3.34599e-18)
(0.433306 -0.265821 -2.83146e-19)
(0.49586 -0.235339 -3.53396e-18)
(0.551958 -0.20863 6.15418e-19)
(0.602529 -0.185094 2.43521e-19)
(0.647789 -0.164165 -1.49794e-18)
(0.686566 -0.14614 3.63678e-19)
(0.0928501 -0.235607 -3.12479e-18)
(0.207685 -0.382525 5.55562e-18)
(0.309153 -0.3812 2.16231e-18)
(0.386157 -0.342266 -2.63482e-18)
(0.453183 -0.302729 2.03583e-20)
(0.513203 -0.26814 6.51723e-18)
(0.567137 -0.237823 -1.95939e-18)
(0.615941 -0.211083 -1.25655e-18)
(0.659718 -0.187294 3.00021e-18)
(0.696723 -0.166893 -1.52234e-18)
(0.110906 -0.260681 1.73928e-18)
(0.236531 -0.425351 -8.41346e-19)
(0.337856 -0.424861 -1.96008e-18)
(0.411742 -0.381899 1.46302e-18)
(0.47549 -0.337985 5.53351e-18)
(0.53267 -0.299531 -1.92052e-18)
(0.584173 -0.265816 8.58303e-19)
(0.630986 -0.236044 -6.08104e-19)
(0.673109 -0.209537 -5.03137e-18)
(0.708178 -0.186906 2.20087e-18)
(0.130479 -0.283499 -2.30305e-18)