/*--------------------------------*- C++ -*----------------------------------*\
  =========                 |
  \\      /  F ield         | OpenFOAM: The Open Source CFD Toolbox
   \\    /   O peration     | Website:  https://openfoam.org
    \\  /    A nd           | Version:  7
     \\/     M anipulation  |
\*---------------------------------------------------------------------------*/
FoamFile
{
    version     2.0;
    format      ascii;
    class       volScalarField;
    location    "20";
    object      p;
}
// * * * * * * * * * * * * * * * * * * * * * * * * * * * * * * * * * * * * * //

dimensions      [0 2 -2 0 0 0 0];

internalField   nonuniform List<scalar> 
18750
(
-0.270044
-0.271353
-0.272082
-0.272684
-0.273196
-0.273629
-0.274011
-0.274357
-0.274677
-0.274977
-0.275262
-0.275541
-0.275826
-0.276101
-0.276385
-0.270123
-0.271425
-0.27215
-0.272749
-0.273257
-0.273686
-0.274065
-0.274407
-0.274722
-0.275018
-0.275299
-0.275573
-0.275854
-0.276125
-0.276401
-0.270279
-0.271569
-0.272286
-0.272877
-0.273378
-0.273801
-0.274171
-0.274506
-0.274813
-0.275101
-0.275373
-0.275637
-0.275909
-0.276171
-0.276434
-0.270512
-0.271783
-0.272489
-0.273069
-0.273559
-0.273971
-0.27433
-0.274653
-0.274948
-0.275222
-0.27548
-0.27573
-0.27599
-0.276237
-0.27648
-0.27082
-0.272066
-0.272757
-0.273323
-0.273799
-0.274195
-0.27454
-0.274847
-0.275125
-0.275382
-0.275621
-0.275851
-0.276092
-0.27632
-0.276535
-0.271201
-0.272417
-0.27309
-0.273638
-0.274095
-0.274473
-0.274798
-0.275085
-0.275342
-0.275576
-0.27579
-0.275994
-0.276212
-0.276416
-0.276593
-0.271653
-0.272835
-0.273485
-0.274012
-0.274447
-0.274802
-0.275104
-0.275366
-0.275596
-0.275801
-0.275986
-0.276158
-0.276346
-0.276518
-0.276649
-0.272174
-0.273315
-0.27394
-0.274442
-0.274851
-0.27518
-0.275454
-0.275686
-0.275885
-0.276056
-0.276203
-0.276336
-0.276487
-0.276623
-0.276695
-0.272759
-0.273858
-0.274455
-0.274928
-0.275307
-0.275605
-0.275846
-0.276043
-0.276205
-0.276335
-0.276438
-0.276524
-0.27663
-0.276722
-0.276719
-0.273408
-0.27446
-0.275025
-0.275466
-0.275812
-0.276074
-0.276278
-0.276435
-0.276553
-0.276636
-0.276687
-0.276716
-0.276768
-0.276809
-0.276713
-0.274116
-0.275118
-0.275649
-0.276055
-0.276363
-0.276585
-0.276746
-0.276858
-0.276927
-0.276955
-0.276947
-0.276909
-0.276895
-0.276878
-0.276661
-0.274882
-0.275832
-0.276326
-0.276693
-0.276958
-0.277136
-0.27725
-0.27731
-0.277323
-0.27729
-0.277213
-0.277098
-0.277006
-0.276922
-0.276551
-0.275702
-0.276599
-0.277053
-0.277377
-0.277597
-0.277725
-0.277785
-0.277789
-0.27774
-0.277638
-0.277483
-0.277279
-0.277094
-0.276938
-0.276355
-0.276576
-0.277417
-0.277829
-0.278107
-0.278276
-0.27835
-0.278352
-0.278293
-0.278176
-0.277998
-0.277756
-0.27745
-0.277156
-0.276925
-0.276027
-0.277502
-0.278286
-0.278653
-0.27888
-0.278994
-0.279009
-0.278948
-0.278821
-0.278629
-0.278368
-0.278031
-0.277612
-0.277191
-0.276885
-0.275564
-0.278478
-0.279204
-0.279523
-0.279696
-0.27975
-0.279701
-0.279572
-0.279371
-0.2791
-0.278749
-0.278309
-0.277765
-0.277198
-0.276771
-0.275224
-0.279506
-0.280172
-0.28044
-0.280555
-0.280544
-0.280426
-0.280223
-0.279944
-0.279588
-0.279142
-0.278591
-0.277913
-0.277184
-0.276557
-0.274779
-0.280584
-0.281189
-0.281403
-0.281455
-0.281375
-0.281182
-0.2809
-0.280538
-0.280093
-0.279549
-0.278881
-0.278058
-0.277154
-0.276313
-0.274165
-0.281716
-0.282258
-0.282414
-0.282399
-0.282243
-0.28197
-0.281603
-0.281154
-0.280617
-0.27997
-0.279182
-0.278207
-0.27711
-0.276049
-0.273396
-0.282902
-0.283379
-0.283473
-0.283385
-0.283148
-0.282789
-0.282333
-0.281792
-0.281158
-0.280407
-0.279497
-0.278366
-0.27706
-0.275771
-0.272476
-0.284147
-0.284556
-0.284583
-0.284416
-0.284092
-0.283639
-0.283088
-0.28245
-0.281718
-0.280861
-0.27983
-0.278541
-0.277014
-0.275491
-0.271411
-0.285453
-0.285792
-0.285747
-0.285495
-0.285075
-0.284522
-0.283869
-0.28313
-0.282295
-0.281332
-0.280182
-0.278736
-0.276982
-0.275224
-0.270211
-0.286826
-0.28709
-0.286967
-0.286623
-0.2861
-0.28544
-0.284678
-0.283831
-0.282891
-0.28182
-0.280552
-0.278954
-0.27697
-0.274982
-0.2689
-0.288272
-0.288457
-0.28825
-0.287804
-0.28717
-0.286393
-0.285514
-0.284553
-0.283503
-0.282323
-0.28094
-0.279195
-0.276986
-0.274767
-0.267517
-0.289799
-0.289898
-0.289599
-0.289043
-0.288288
-0.287385
-0.28638
-0.285297
-0.284131
-0.28284
-0.281343
-0.279455
-0.277037
-0.274574
-0.266135
-0.291415
-0.291421
-0.291022
-0.290346
-0.289459
-0.288419
-0.287279
-0.286066
-0.284777
-0.283369
-0.281758
-0.27973
-0.277132
-0.274389
-0.264871
-0.29313
-0.293034
-0.292524
-0.291719
-0.290689
-0.289502
-0.288216
-0.286864
-0.285444
-0.283915
-0.282189
-0.280021
-0.277286
-0.274159
-0.263787
-0.294954
-0.294746
-0.294117
-0.29317
-0.291985
-0.290639
-0.289197
-0.287695
-0.286136
-0.284481
-0.282642
-0.280339
-0.277544
-0.273772
-0.262645
-0.296901
-0.296568
-0.295808
-0.294707
-0.293356
-0.29184
-0.29023
-0.288569
-0.286863
-0.285077
-0.283132
-0.280726
-0.278037
-0.273332
-0.261638
-0.298983
-0.298511
-0.297608
-0.29634
-0.29481
-0.293113
-0.291325
-0.289496
-0.287635
-0.285714
-0.28367
-0.281211
-0.278869
-0.27364
-0.265329
-0.301216
-0.300588
-0.299529
-0.298082
-0.29636
-0.29447
-0.292495
-0.290488
-0.288465
-0.286401
-0.284261
-0.281764
-0.279811
-0.275088
-0.282424
-0.303613
-0.302812
-0.301582
-0.299942
-0.298018
-0.295925
-0.293752
-0.291559
-0.289366
-0.287151
-0.284901
-0.282347
-0.280655
-0.276153
-0.285037
-0.306191
-0.305197
-0.303782
-0.301936
-0.299796
-0.29749
-0.295112
-0.292725
-0.290352
-0.287975
-0.285592
-0.282943
-0.281265
-0.276766
-0.284498
-0.308967
-0.307756
-0.30614
-0.304074
-0.301708
-0.29918
-0.29659
-0.294002
-0.29144
-0.288884
-0.286338
-0.283545
-0.281683
-0.277133
-0.28321
-0.311956
-0.310504
-0.308672
-0.306373
-0.30377
-0.301011
-0.2982
-0.295404
-0.292641
-0.289887
-0.287141
-0.284149
-0.281947
-0.277263
-0.281327
-0.315175
-0.313454
-0.31139
-0.308845
-0.305995
-0.302998
-0.29996
-0.296945
-0.293967
-0.29099
-0.287998
-0.284741
-0.282076
-0.277156
-0.27912
-0.318639
-0.316621
-0.314308
-0.311505
-0.308398
-0.305155
-0.301882
-0.298638
-0.295425
-0.292193
-0.288903
-0.28531
-0.282084
-0.276829
-0.276796
-0.322361
-0.320018
-0.31744
-0.314366
-0.310993
-0.307497
-0.30398
-0.300491
-0.297019
-0.293493
-0.289848
-0.285843
-0.281982
-0.276302
-0.274469
-0.326354
-0.323656
-0.320798
-0.317442
-0.313794
-0.310036
-0.306264
-0.302512
-0.298749
-0.294881
-0.290818
-0.286327
-0.281776
-0.275596
-0.272188
-0.330631
-0.327546
-0.324393
-0.320744
-0.316813
-0.312785
-0.308743
-0.304703
-0.30061
-0.296346
-0.291798
-0.286746
-0.281465
-0.274725
-0.269964
-0.335198
-0.331698
-0.328236
-0.324284
-0.320062
-0.315752
-0.311422
-0.307062
-0.302591
-0.297869
-0.292766
-0.287085
-0.281043
-0.273702
-0.267784
-0.340064
-0.336119
-0.332335
-0.328071
-0.323548
-0.318943
-0.314301
-0.309583
-0.304678
-0.299429
-0.293699
-0.287326
-0.280503
-0.272535
-0.265624
-0.345231
-0.340813
-0.336696
-0.332113
-0.327279
-0.322362
-0.317377
-0.312253
-0.30685
-0.301
-0.294572
-0.287451
-0.279834
-0.271226
-0.263454
-0.3507
-0.345784
-0.341324
-0.336413
-0.331256
-0.326006
-0.32064
-0.315052
-0.30908
-0.30255
-0.295357
-0.287442
-0.279025
-0.269773
-0.261245
-0.356468
-0.35103
-0.346219
-0.340973
-0.33548
-0.329868
-0.324074
-0.317958
-0.311336
-0.304048
-0.296026
-0.287281
-0.278063
-0.268174
-0.258969
-0.362525
-0.356546
-0.351378
-0.34579
-0.339943
-0.333935
-0.327658
-0.320938
-0.313582
-0.305458
-0.296551
-0.286949
-0.276936
-0.266421
-0.256599
-0.368861
-0.362323
-0.356795
-0.350856
-0.344634
-0.338188
-0.331362
-0.323954
-0.315778
-0.306743
-0.296906
-0.286428
-0.275632
-0.264505
-0.254113
-0.375456
-0.368348
-0.362457
-0.356157
-0.349534
-0.342598
-0.335149
-0.326964
-0.317879
-0.307868
-0.297062
-0.285702
-0.274136
-0.262416
-0.251488
-0.382287
-0.374602
-0.368346
-0.361675
-0.354616
-0.347132
-0.338976
-0.32992
-0.319842
-0.308794
-0.296995
-0.284754
-0.272437
-0.260143
-0.248707
-0.389324
-0.381059
-0.37444
-0.367381
-0.359847
-0.351745
-0.342792
-0.332769
-0.32162
-0.309488
-0.296679
-0.283565
-0.27052
-0.257674
-0.245751
-0.396531
-0.387688
-0.380705
-0.373242
-0.365185
-0.356388
-0.346541
-0.335458
-0.323166
-0.309914
-0.296092
-0.28212
-0.268371
-0.254994
-0.242605
-0.403864
-0.394451
-0.387106
-0.379215
-0.37058
-0.361002
-0.350162
-0.337929
-0.324435
-0.310039
-0.295208
-0.280401
-0.265974
-0.252091
-0.239252
-0.411272
-0.401303
-0.393595
-0.385249
-0.375973
-0.365524
-0.353591
-0.340126
-0.325383
-0.309831
-0.294007
-0.27839
-0.263315
-0.248949
-0.235678
-0.418698
-0.408191
-0.40012
-0.391286
-0.381298
-0.369882
-0.35676
-0.341992
-0.325966
-0.309259
-0.292465
-0.276069
-0.260377
-0.245554
-0.231869
-0.426077
-0.415055
-0.40662
-0.397259
-0.386484
-0.374003
-0.359602
-0.343472
-0.326143
-0.308294
-0.29056
-0.27342
-0.257145
-0.24189
-0.22781
-0.433338
-0.421831
-0.413026
-0.403094
-0.391451
-0.37781
-0.362048
-0.344511
-0.325875
-0.306908
-0.288271
-0.270425
-0.253601
-0.237942
-0.223487
-0.440403
-0.428443
-0.419262
-0.40871
-0.396116
-0.381222
-0.36403
-0.345057
-0.325124
-0.305073
-0.285575
-0.267064
-0.249729
-0.233696
-0.218889
-0.447189
-0.434812
-0.425246
-0.414021
-0.400392
-0.384161
-0.365484
-0.345063
-0.323855
-0.302763
-0.282452
-0.26332
-0.245513
-0.229135
-0.214002
-0.453607
-0.440855
-0.430891
-0.418937
-0.404191
-0.386547
-0.366346
-0.344481
-0.322035
-0.299952
-0.278881
-0.259175
-0.240936
-0.224246
-0.208815
-0.459565
-0.44648
-0.436105
-0.423364
-0.407422
-0.388304
-0.366557
-0.343268
-0.319632
-0.296616
-0.274842
-0.254611
-0.235983
-0.219016
-0.203317
-0.464967
-0.451595
-0.440792
-0.427206
-0.409999
-0.389358
-0.36606
-0.341384
-0.316616
-0.292732
-0.270314
-0.24961
-0.230639
-0.21343
-0.197498
-0.469717
-0.456104
-0.444855
-0.430367
-0.411834
-0.389639
-0.364806
-0.338792
-0.312961
-0.288279
-0.26528
-0.244156
-0.22489
-0.207477
-0.191349
-0.473714
-0.459909
-0.448195
-0.432753
-0.412844
-0.389082
-0.362745
-0.335459
-0.308642
-0.283237
-0.259722
-0.238235
-0.218723
-0.201146
-0.184861
-0.476863
-0.462914
-0.450714
-0.434273
-0.412952
-0.387629
-0.359837
-0.331355
-0.303636
-0.277586
-0.253624
-0.231833
-0.212126
-0.194427
-0.178028
-0.479066
-0.465022
-0.452319
-0.434837
-0.412085
-0.385224
-0.356043
-0.326453
-0.297922
-0.27131
-0.246973
-0.224937
-0.205088
-0.187312
-0.170842
-0.480231
-0.466139
-0.452916
-0.434364
-0.410177
-0.381821
-0.351331
-0.32073
-0.291485
-0.264395
-0.239754
-0.217537
-0.1976
-0.179792
-0.1633
-0.480268
-0.466176
-0.45242
-0.432777
-0.407169
-0.377377
-0.345673
-0.314168
-0.284307
-0.256829
-0.231959
-0.209623
-0.189654
-0.171865
-0.155407
-0.479095
-0.465049
-0.450748
-0.430007
-0.40301
-0.37186
-0.339048
-0.306751
-0.276379
-0.248601
-0.223578
-0.201188
-0.181242
-0.163527
-0.147167
-0.476633
-0.462679
-0.447829
-0.425995
-0.397656
-0.36524
-0.331437
-0.298467
-0.267692
-0.239705
-0.214605
-0.192224
-0.172357
-0.154769
-0.138557
-0.472815
-0.458995
-0.443597
-0.420689
-0.391072
-0.357498
-0.32283
-0.289311
-0.258241
-0.230138
-0.205038
-0.182733
-0.163002
-0.14558
-0.129483
-0.467577
-0.453936
-0.437996
-0.414045
-0.383233
-0.348619
-0.31322
-0.279277
-0.248023
-0.219898
-0.194877
-0.172715
-0.153186
-0.135967
-0.119861
-0.460868
-0.447446
-0.430978
-0.406032
-0.374119
-0.338597
-0.302605
-0.268369
-0.237042
-0.208988
-0.184126
-0.162177
-0.142917
-0.125958
-0.109852
-0.452646
-0.439483
-0.422509
-0.396625
-0.363722
-0.32743
-0.29099
-0.256591
-0.225303
-0.197413
-0.172788
-0.151123
-0.132184
-0.115503
-0.0997173
-0.442879
-0.430014
-0.412562
-0.385814
-0.35204
-0.315126
-0.278383
-0.243952
-0.212814
-0.185182
-0.160875
-0.139565
-0.121021
-0.104638
-0.0893098
-0.431544
-0.419014
-0.401123
-0.373593
-0.339081
-0.301696
-0.2648
-0.230467
-0.199588
-0.172307
-0.148399
-0.127516
-0.109417
-0.0934067
-0.0785758
-0.41863
-0.406473
-0.388186
-0.35997
-0.324858
-0.28716
-0.250258
-0.216153
-0.185642
-0.158806
-0.135374
-0.114986
-0.0973905
-0.0818184
-0.0675117
-0.404139
-0.392389
-0.373758
-0.34496
-0.309394
-0.271541
-0.234783
-0.201033
-0.170997
-0.144694
-0.121815
-0.101991
-0.0849578
-0.0698805
-0.0561315
-0.388079
-0.376772
-0.357856
-0.328588
-0.292719
-0.254872
-0.218404
-0.185132
-0.155676
-0.129994
-0.107745
-0.0885498
-0.0721368
-0.0576048
-0.0444535
-0.370474
-0.359642
-0.340505
-0.310888
-0.274875
-0.237195
-0.201146
-0.16848
-0.139706
-0.11473
-0.0931845
-0.074684
-0.0589471
-0.0450079
-0.0324982
-0.351356
-0.34103
-0.321741
-0.291899
-0.25591
-0.21856
-0.183042
-0.151107
-0.123117
-0.0989314
-0.0781608
-0.0604177
-0.0454104
-0.0321096
-0.0202882
-0.330766
-0.320976
-0.30161
-0.271677
-0.235867
-0.198963
-0.164173
-0.133057
-0.105943
-0.0826279
-0.0627019
-0.0457776
-0.0315506
-0.0189328
-0.00784797
-0.308754
-0.299531
-0.280177
-0.250312
-0.214752
-0.178494
-0.144551
-0.11437
-0.0882211
-0.0658533
-0.046839
-0.0307923
-0.017394
-0.00550315
0.00479351
-0.285378
-0.276758
-0.257516
-0.227888
-0.192601
-0.157195
-0.124231
-0.0950906
-0.0699914
-0.0486438
-0.0306052
-0.0154929
-0.00296875
0.00814977
0.0175986
-0.260703
-0.25273
-0.233681
-0.204227
-0.169705
-0.135149
-0.103266
-0.0752655
-0.0512967
-0.0310378
-0.0140355
8.83095e-05
0.011695
0.0219926
0.0305211
-0.234803
-0.227528
-0.208713
-0.179638
-0.14596
-0.112412
-0.0817156
-0.054945
-0.0321819
-0.0130756
0.0028332
0.0159169
0.0265668
0.0359948
0.0435221
-0.207755
-0.201247
-0.182667
-0.154213
-0.121451
-0.0890507
-0.0596404
-0.0341823
-0.0126941
0.00520061
0.019962
0.0319572
0.0416199
0.0501393
0.0565725
-0.179628
-0.173953
-0.155737
-0.127993
-0.0962655
-0.0651328
-0.0371027
-0.0130328
0.00711738
0.0237466
0.0373102
0.0481744
0.0568375
0.0644116
0.0695719
-0.150537
-0.14578
-0.128003
-0.101062
-0.0704882
-0.040731
-0.0141671
0.00844565
0.0272014
0.0425163
0.0548366
0.0645414
0.0722141
0.0787421
0.082227
-0.120737
-0.11671
-0.099541
-0.0735141
-0.0442049
-0.0159207
0.00909928
0.0301934
0.0475045
0.0614616
0.0725016
0.0810412
0.0877392
0.0929763
0.0941684
-0.0902138
-0.086923
-0.0704512
-0.0454456
-0.0175035
0.00922008
0.0326273
0.0521487
0.0679711
0.0805324
0.0902669
0.0976507
0.103344
0.10695
0.105692
-0.0590606
-0.0565496
-0.0408396
-0.0169548
0.00952603
0.0346117
0.056346
0.0742481
0.0885437
0.0996777
0.108091
0.114314
0.118867
0.120506
0.119527
-0.0274031
-0.0257031
-0.0108161
0.0118571
0.0367925
0.0601728
0.0801832
0.0964266
0.109164
0.118846
0.125924
0.130946
0.134272
0.134579
0.134031
0.00463525
0.00550174
0.0195072
0.0408874
0.0642035
0.0858211
0.104065
0.118618
0.129772
0.137984
0.143712
0.147498
0.149583
0.148807
0.14805
0.0369317
0.0369474
0.0500168
0.070032
0.0916657
0.111474
0.127918
0.140757
0.150309
0.157038
0.161404
0.163931
0.1648
0.163047
0.161772
0.0693622
0.0685147
0.0805986
0.0991865
0.119085
0.137047
0.151667
0.162775
0.170715
0.175952
0.178948
0.180207
0.179878
0.177167
0.175206
0.101802
0.100083
0.111138
0.128246
0.146369
0.162457
0.175239
0.184607
0.190928
0.194671
0.196295
0.196283
0.19477
0.191097
0.18835
0.134127
0.131532
0.141521
0.157108
0.173424
0.187622
0.198557
0.206185
0.21089
0.213142
0.213395
0.212116
0.20943
0.204789
0.201194
0.166212
0.162741
0.171634
0.185667
0.200157
0.212458
0.22155
0.227443
0.23054
0.231309
0.2302
0.227662
0.223814
0.218203
0.213721
0.197934
0.193591
0.201365
0.213822
0.226477
0.236885
0.244143
0.248316
0.249819
0.249121
0.246663
0.242879
0.237883
0.231305
0.225911
0.229172
0.223963
0.230603
0.241473
0.252294
0.260822
0.266266
0.26874
0.268671
0.266526
0.262738
0.257725
0.251599
0.244063
0.237742
0.259804
0.253741
0.259239
0.268521
0.277521
0.284191
0.287848
0.288651
0.287039
0.283472
0.278378
0.272158
0.264925
0.256446
0.249191
0.289715
0.282812
0.287168
0.294871
0.302072
0.306914
0.30882
0.307989
0.304866
0.29991
0.293539
0.28614
0.277825
0.268423
0.260236
0.318789
0.311064
0.314286
0.320428
0.325862
0.328919
0.329116
0.326692
0.3221
0.315792
0.308179
0.299633
0.290267
0.279965
0.270854
0.346915
0.338391
0.340494
0.345103
0.348812
0.350131
0.348671
0.344704
0.338688
0.331072
0.322256
0.312599
0.302217
0.291043
0.281023
0.373986
0.364688
0.365694
0.368809
0.370843
0.370483
0.367423
0.361968
0.354581
0.345704
0.335729
0.325003
0.313645
0.301629
0.290721
0.399899
0.389856
0.389796
0.391462
0.391882
0.389906
0.385312
0.378431
0.36973
0.359645
0.348561
0.33681
0.324518
0.311697
0.299927
0.424556
0.4138
0.412709
0.412982
0.411856
0.408338
0.402281
0.394041
0.384088
0.372854
0.360714
0.347988
0.334808
0.32122
0.30862
0.447862
0.43643
0.434352
0.433296
0.430699
0.425718
0.418275
0.40875
0.397614
0.385292
0.372153
0.358505
0.344488
0.330173
0.31678
0.469731
0.45766
0.454645
0.45233
0.448346
0.441989
0.433244
0.422512
0.410264
0.396923
0.382846
0.368333
0.35353
0.338534
0.324389
0.490078
0.477411
0.473515
0.47002
0.464739
0.457098
0.44714
0.435284
0.422002
0.40771
0.392761
0.377443
0.361911
0.34628
0.331429
0.508827
0.495609
0.490893
0.486303
0.479823
0.470996
0.459918
0.447026
0.43279
0.417623
0.40187
0.38581
0.369606
0.353391
0.337884
0.525908
0.512186
0.506716
0.501122
0.493546
0.483637
0.471538
0.457701
0.442596
0.426632
0.410146
0.39341
0.376594
0.359846
0.343737
0.541256
0.52708
0.520928
0.514428
0.505863
0.494979
0.481962
0.467276
0.45139
0.434709
0.417564
0.400221
0.382857
0.36563
0.348977
0.554814
0.540235
0.533477
0.526172
0.516731
0.504986
0.491158
0.475721
0.459145
0.44183
0.424104
0.406225
0.388376
0.370725
0.353589
0.566531
0.551603
0.544318
0.536315
0.526116
0.513625
0.499095
0.483009
0.465837
0.447974
0.429745
0.411403
0.393136
0.375119
0.357563
0.576363
0.561142
0.553412
0.544822
0.533985
0.520868
0.505749
0.489118
0.471445
0.453123
0.434472
0.415741
0.397123
0.378799
0.360889
0.584273
0.568816
0.560727
0.551663
0.540312
0.526691
0.511097
0.494028
0.475952
0.457261
0.438271
0.419226
0.400327
0.381755
0.36356
0.590231
0.574596
0.566236
0.556814
0.545076
0.531074
0.515124
0.497725
0.479345
0.460376
0.441129
0.421849
0.402737
0.38398
0.365569
0.594216
0.578462
0.56992
0.560258
0.548261
0.534005
0.517815
0.500195
0.481613
0.462457
0.44304
0.423602
0.404348
0.385466
0.366911
0.596212
0.580398
0.571765
0.561984
0.549856
0.535472
0.519163
0.501433
0.482748
0.463499
0.443996
0.42448
0.405155
0.38621
0.367583
0.596212
0.580398
0.571765
0.561984
0.549856
0.535472
0.519163
0.501433
0.482748
0.463499
0.443996
0.42448
0.405155
0.38621
0.367583
0.594216
0.578462
0.56992
0.560258
0.548261
0.534005
0.517815
0.500195
0.481613
0.462457
0.44304
0.423602
0.404348
0.385466
0.366911
0.590231
0.574596
0.566236
0.556814
0.545076
0.531074
0.515124
0.497725
0.479345
0.460375
0.441129
0.421849
0.402737
0.38398
0.365569
0.584273
0.568816
0.560727
0.551663
0.540312
0.526691
0.511097
0.494028
0.475952
0.457261
0.438271
0.419226
0.400327
0.381755
0.36356
0.576363
0.561142
0.553412
0.544822
0.533985
0.520868
0.505749
0.489118
0.471445
0.453123
0.434472
0.415741
0.397123
0.378799
0.360889
0.566531
0.551603
0.544318
0.536315
0.526116
0.513625
0.499095
0.483009
0.465837
0.447974
0.429745
0.411403
0.393136
0.375119
0.357563
0.554814
0.540235
0.533477
0.526172
0.516731
0.504986
0.491158
0.475721
0.459145
0.44183
0.424104
0.406225
0.388376
0.370725
0.353589
0.541256
0.52708
0.520928
0.514428
0.505862
0.494979
0.481962
0.467276
0.45139
0.434708
0.417564
0.400221
0.382857
0.365629
0.348977
0.525908
0.512186
0.506716
0.501122
0.493546
0.483637
0.471538
0.457701
0.442596
0.426631
0.410146
0.39341
0.376594
0.359846
0.343737
0.508827
0.495609
0.490892
0.486302
0.479823
0.470996
0.459918
0.447026
0.43279
0.417623
0.40187
0.38581
0.369606
0.35339
0.337883
0.490078
0.477411
0.473515
0.470019
0.464739
0.457098
0.44714
0.435284
0.422002
0.40771
0.392761
0.377443
0.36191
0.34628
0.331429
0.46973
0.45766
0.454645
0.45233
0.448346
0.441989
0.433244
0.422512
0.410264
0.396922
0.382846
0.368333
0.35353
0.338534
0.324389
0.447862
0.43643
0.434352
0.433295
0.430699
0.425718
0.418275
0.40875
0.397614
0.385292
0.372153
0.358505
0.344488
0.330173
0.31678
0.424556
0.4138
0.412709
0.412982
0.411856
0.408338
0.40228
0.394041
0.384088
0.372854
0.360714
0.347988
0.334808
0.321219
0.30862
0.399899
0.389856
0.389795
0.391462
0.391882
0.389906
0.385312
0.378431
0.369729
0.359645
0.348561
0.33681
0.324518
0.311696
0.299927
0.373986
0.364688
0.365694
0.368809
0.370843
0.370483
0.367423
0.361968
0.354581
0.345703
0.335729
0.325003
0.313644
0.301629
0.290721
0.346915
0.338391
0.340494
0.345103
0.348812
0.350131
0.348671
0.344704
0.338688
0.331071
0.322256
0.312599
0.302217
0.291042
0.281023
0.318789
0.311064
0.314286
0.320428
0.325862
0.328918
0.329116
0.326692
0.3221
0.315792
0.308179
0.299633
0.290267
0.279964
0.270854
0.289715
0.282812
0.287168
0.29487
0.302071
0.306914
0.30882
0.307988
0.304866
0.29991
0.293539
0.28614
0.277825
0.268423
0.260236
0.259804
0.253741
0.259239
0.268521
0.277521
0.28419
0.287847
0.288651
0.287038
0.283471
0.278377
0.272158
0.264924
0.256446
0.249191
0.229171
0.223963
0.230602
0.241473
0.252294
0.260822
0.266266
0.268739
0.268671
0.266525
0.262737
0.257724
0.251599
0.244063
0.237741
0.197934
0.193591
0.201365
0.213822
0.226476
0.236884
0.244143
0.248316
0.249819
0.249121
0.246663
0.242879
0.237883
0.231305
0.22591
0.166211
0.162741
0.171634
0.185666
0.200156
0.212458
0.221549
0.227442
0.230539
0.231309
0.2302
0.227662
0.223814
0.218203
0.213721
0.134126
0.131532
0.141521
0.157107
0.173423
0.187621
0.198557
0.206184
0.210889
0.213141
0.213394
0.212115
0.20943
0.204788
0.201193
0.101802
0.100083
0.111138
0.128246
0.146369
0.162457
0.175238
0.184606
0.190928
0.194671
0.196294
0.196283
0.19477
0.191097
0.188349
0.0693616
0.0685141
0.080598
0.0991859
0.119085
0.137046
0.151667
0.162775
0.170714
0.175951
0.178948
0.180207
0.179878
0.177167
0.175205
0.036931
0.0369468
0.0500162
0.0700313
0.0916651
0.111473
0.127918
0.140756
0.150309
0.157037
0.161404
0.163931
0.1648
0.163047
0.161772
0.00463453
0.00550102
0.0195065
0.0408867
0.0642029
0.0858205
0.104065
0.118618
0.129772
0.137984
0.143712
0.147497
0.149582
0.148806
0.14805
-0.0274039
-0.0257039
-0.0108169
0.0118564
0.0367918
0.0601721
0.0801825
0.0964259
0.109163
0.118845
0.125923
0.130946
0.134272
0.134579
0.134031
-0.0590614
-0.0565504
-0.0408405
-0.0169556
0.00952528
0.0346109
0.0563453
0.0742474
0.0885431
0.0996771
0.10809
0.114314
0.118866
0.120505
0.119527
-0.0902147
-0.0869239
-0.0704521
-0.0454465
-0.0175044
0.0092193
0.0326265
0.052148
0.0679704
0.0805317
0.0902663
0.0976501
0.103343
0.106949
0.105692
-0.120738
-0.116711
-0.0995419
-0.073515
-0.0442057
-0.0159215
0.00909848
0.0301927
0.0475038
0.0614609
0.072501
0.0810405
0.0877385
0.0929757
0.0941678
-0.150538
-0.145781
-0.128004
-0.101063
-0.0704891
-0.0407318
-0.014168
0.00844483
0.0272006
0.0425156
0.0548359
0.0645407
0.0722134
0.0787415
0.0822264
-0.179629
-0.173954
-0.155738
-0.127994
-0.0962665
-0.0651337
-0.0371036
-0.0130337
0.00711656
0.0237458
0.0373094
0.0481736
0.0568368
0.0644109
0.0695712
-0.207757
-0.201248
-0.182668
-0.154214
-0.121452
-0.0890517
-0.0596414
-0.0341832
-0.012695
0.00519977
0.0199612
0.0319564
0.0416192
0.0501387
0.0565718
-0.234805
-0.22753
-0.208715
-0.179639
-0.145961
-0.112413
-0.0817166
-0.054946
-0.0321828
-0.0130764
0.00283237
0.0159161
0.026566
0.0359941
0.0435215
-0.260704
-0.252732
-0.233683
-0.204228
-0.169706
-0.13515
-0.103267
-0.0752665
-0.0512977
-0.0310387
-0.0140363
8.74753e-05
0.0116942
0.0219919
0.0305204
-0.28538
-0.27676
-0.257518
-0.227889
-0.192602
-0.157197
-0.124232
-0.0950917
-0.0699924
-0.0486448
-0.0306061
-0.0154937
-0.00296958
0.00814899
0.0175978
-0.308756
-0.299533
-0.280178
-0.250313
-0.214753
-0.178495
-0.144553
-0.114371
-0.0882222
-0.0658544
-0.04684
-0.0307933
-0.0173948
-0.00550396
0.00479274
-0.330767
-0.320978
-0.301612
-0.271679
-0.235868
-0.198965
-0.164174
-0.133059
-0.105944
-0.082629
-0.0627029
-0.0457785
-0.0315515
-0.0189336
-0.00784876
-0.351358
-0.341032
-0.321743
-0.2919
-0.255912
-0.218562
-0.183043
-0.151109
-0.123118
-0.0989325
-0.0781618
-0.0604187
-0.0454113
-0.0321105
-0.020289
-0.370476
-0.359644
-0.340507
-0.310889
-0.274876
-0.237197
-0.201148
-0.168481
-0.139708
-0.114731
-0.0931856
-0.074685
-0.0589481
-0.0450088
-0.0324991
-0.388081
-0.376773
-0.357857
-0.32859
-0.292721
-0.254873
-0.218405
-0.185134
-0.155678
-0.129995
-0.107746
-0.0885509
-0.0721379
-0.0576058
-0.0444544
-0.40414
-0.392391
-0.37376
-0.344961
-0.309396
-0.271543
-0.234785
-0.201034
-0.170998
-0.144695
-0.121817
-0.101992
-0.0849589
-0.0698815
-0.0561324
-0.418632
-0.406475
-0.388188
-0.359971
-0.32486
-0.287162
-0.25026
-0.216154
-0.185643
-0.158807
-0.135375
-0.114987
-0.0973916
-0.0818194
-0.0675127
-0.431546
-0.419016
-0.401125
-0.373595
-0.339082
-0.301698
-0.264801
-0.230468
-0.199589
-0.172309
-0.148401
-0.127518
-0.109418
-0.0934077
-0.0785768
-0.442881
-0.430016
-0.412565
-0.385816
-0.352042
-0.315128
-0.278385
-0.243954
-0.212815
-0.185184
-0.160877
-0.139566
-0.121022
-0.104639
-0.0893108
-0.452649
-0.439486
-0.422512
-0.396628
-0.363724
-0.327432
-0.290992
-0.256592
-0.225304
-0.197414
-0.17279
-0.151124
-0.132185
-0.115504
-0.0997183
-0.460871
-0.447449
-0.430981
-0.406034
-0.374121
-0.338599
-0.302607
-0.268371
-0.237044
-0.208989
-0.184127
-0.162178
-0.142918
-0.125959
-0.109853
-0.467579
-0.453938
-0.437998
-0.414047
-0.383235
-0.348622
-0.313222
-0.279279
-0.248025
-0.219899
-0.194879
-0.172717
-0.153188
-0.135969
-0.119862
-0.472817
-0.458998
-0.4436
-0.420691
-0.391074
-0.3575
-0.322832
-0.289313
-0.258242
-0.230139
-0.20504
-0.182734
-0.163003
-0.145581
-0.129484
-0.476636
-0.462681
-0.447832
-0.425998
-0.397658
-0.365242
-0.331439
-0.298469
-0.267694
-0.239707
-0.214606
-0.192226
-0.172359
-0.15477
-0.138558
-0.479097
-0.465052
-0.450751
-0.43001
-0.403012
-0.371862
-0.33905
-0.306753
-0.276381
-0.248603
-0.223579
-0.201189
-0.181243
-0.163529
-0.147169
-0.480271
-0.466179
-0.452422
-0.432779
-0.407171
-0.37738
-0.345675
-0.31417
-0.284309
-0.25683
-0.23196
-0.209625
-0.189655
-0.171867
-0.155408
-0.480234
-0.466142
-0.452919
-0.434366
-0.41018
-0.381823
-0.351333
-0.320732
-0.291487
-0.264397
-0.239756
-0.217539
-0.197601
-0.179794
-0.163301
-0.479069
-0.465024
-0.452322
-0.43484
-0.412088
-0.385227
-0.356045
-0.326455
-0.297925
-0.271312
-0.246974
-0.224939
-0.205089
-0.187313
-0.170843
-0.476866
-0.462917
-0.450717
-0.434275
-0.412955
-0.387631
-0.359839
-0.331357
-0.303638
-0.277588
-0.253626
-0.231835
-0.212127
-0.194429
-0.178029
-0.473717
-0.459912
-0.448198
-0.432756
-0.412847
-0.389085
-0.362748
-0.335462
-0.308644
-0.283239
-0.259724
-0.238237
-0.218725
-0.201148
-0.184862
-0.46972
-0.456107
-0.444858
-0.43037
-0.411836
-0.389642
-0.364808
-0.338795
-0.312964
-0.288281
-0.265282
-0.244158
-0.224892
-0.207479
-0.19135
-0.464971
-0.451598
-0.440795
-0.427209
-0.410002
-0.38936
-0.366063
-0.341386
-0.316618
-0.292735
-0.270316
-0.249612
-0.230641
-0.213431
-0.197499
-0.459568
-0.446483
-0.436108
-0.423367
-0.407425
-0.388306
-0.366559
-0.34327
-0.319634
-0.296618
-0.274844
-0.254612
-0.235985
-0.219017
-0.203319
-0.45361
-0.440858
-0.430895
-0.41894
-0.404194
-0.38655
-0.366349
-0.344483
-0.322037
-0.299954
-0.278883
-0.259177
-0.240938
-0.224248
-0.208817
-0.447192
-0.434816
-0.425249
-0.414025
-0.400395
-0.384164
-0.365487
-0.345066
-0.323858
-0.302765
-0.282454
-0.263322
-0.245514
-0.229137
-0.214004
-0.440407
-0.428446
-0.419265
-0.408713
-0.396119
-0.381225
-0.364033
-0.34506
-0.325127
-0.305075
-0.285577
-0.267066
-0.249731
-0.233697
-0.218891
-0.433341
-0.421834
-0.413029
-0.403097
-0.391454
-0.377813
-0.362051
-0.344514
-0.325877
-0.306911
-0.288273
-0.270427
-0.253603
-0.237944
-0.223489
-0.42608
-0.415059
-0.406623
-0.397262
-0.386487
-0.374006
-0.359605
-0.343475
-0.326146
-0.308297
-0.290562
-0.273422
-0.257147
-0.241892
-0.227811
-0.418701
-0.408194
-0.400124
-0.39129
-0.381302
-0.369885
-0.356763
-0.341995
-0.325969
-0.309262
-0.292467
-0.276071
-0.260379
-0.245556
-0.23187
-0.411275
-0.401306
-0.393599
-0.385253
-0.375976
-0.365527
-0.353594
-0.340129
-0.325386
-0.309833
-0.294009
-0.278392
-0.263317
-0.248951
-0.23568
-0.403867
-0.394454
-0.387109
-0.379219
-0.370583
-0.361006
-0.350165
-0.337932
-0.324438
-0.310041
-0.295211
-0.280403
-0.265976
-0.252093
-0.239254
-0.396534
-0.387691
-0.380709
-0.373246
-0.365188
-0.356391
-0.346544
-0.335461
-0.323169
-0.309917
-0.296094
-0.282123
-0.268373
-0.254996
-0.242607
-0.389327
-0.381062
-0.374443
-0.367385
-0.35985
-0.351749
-0.342795
-0.332772
-0.321623
-0.309491
-0.296682
-0.283568
-0.270522
-0.257676
-0.245753
-0.38229
-0.374605
-0.36835
-0.361678
-0.354619
-0.347135
-0.338979
-0.329923
-0.319845
-0.308797
-0.296998
-0.284756
-0.27244
-0.260146
-0.248709
-0.375459
-0.368352
-0.36246
-0.356161
-0.349537
-0.342602
-0.335153
-0.326967
-0.317883
-0.307871
-0.297065
-0.285705
-0.274139
-0.262419
-0.25149
-0.368864
-0.362327
-0.356798
-0.350859
-0.344638
-0.338191
-0.331366
-0.323957
-0.315781
-0.306746
-0.296909
-0.286431
-0.275634
-0.264507
-0.254115
-0.362529
-0.356549
-0.351381
-0.345793
-0.339947
-0.333938
-0.327662
-0.320941
-0.313585
-0.305461
-0.296554
-0.286951
-0.276939
-0.266423
-0.256601
-0.356471
-0.351033
-0.346222
-0.340976
-0.335483
-0.329871
-0.324078
-0.317961
-0.311339
-0.304051
-0.296029
-0.287284
-0.278066
-0.268177
-0.258971
-0.350704
-0.345787
-0.341327
-0.336416
-0.33126
-0.326009
-0.320643
-0.315056
-0.309083
-0.302553
-0.29536
-0.287445
-0.279028
-0.269776
-0.261248
-0.345235
-0.340817
-0.336699
-0.332116
-0.327282
-0.322365
-0.31738
-0.312256
-0.306853
-0.301003
-0.294575
-0.287454
-0.279837
-0.271228
-0.263457
-0.340068
-0.336122
-0.332338
-0.328075
-0.323551
-0.318947
-0.314304
-0.309586
-0.304682
-0.299432
-0.293703
-0.287329
-0.280506
-0.272538
-0.265627
-0.335202
-0.331701
-0.328239
-0.324288
-0.320065
-0.315755
-0.311425
-0.307066
-0.302595
-0.297873
-0.292769
-0.287088
-0.281046
-0.273705
-0.267787
-0.330634
-0.32755
-0.324396
-0.320748
-0.316817
-0.312788
-0.308747
-0.304707
-0.300613
-0.296349
-0.291801
-0.286749
-0.281468
-0.274728
-0.269967
-0.326358
-0.323659
-0.320801
-0.317445
-0.313798
-0.31004
-0.306268
-0.302516
-0.298752
-0.294885
-0.290822
-0.28633
-0.281779