/*--------------------------------*- C++ -*----------------------------------*\
  =========                 |
  \\      /  F ield         | OpenFOAM: The Open Source CFD Toolbox
   \\    /   O peration     | Website:  https://openfoam.org
    \\  /    A nd           | Version:  7
     \\/     M anipulation  |
\*---------------------------------------------------------------------------*/
FoamFile
{
    version     2.0;
    format      ascii;
    class       surfaceScalarField;
    location    "20";
    object      phi;
}
// * * * * * * * * * * * * * * * * * * * * * * * * * * * * * * * * * * * * * //

dimensions      [0 3 -1 0 0 0 0];

internalField   nonuniform List<scalar> 
37105
(
-1.99969e-07
1.99959e-07
9.67028e-12
-7.3985e-07
5.39898e-07
-1.72815e-11
-1.58276e-06
8.42999e-07
-8.5326e-11
-2.69209e-06
1.10951e-06
-1.87883e-10
-4.0325e-06
1.34073e-06
-3.18165e-10
-5.57127e-06
1.53924e-06
-4.70003e-10
-7.27964e-06
1.70901e-06
-6.38632e-10
-9.13444e-06
1.85562e-06
-8.21394e-10
-1.11198e-05
1.98641e-06
-1.01809e-09
-1.32293e-05
2.11069e-06
-1.23106e-09
-1.54675e-05
2.23963e-06
-1.46509e-09
-1.78517e-05
2.38593e-06
-1.72713e-09
-2.04124e-05
2.56279e-06
-2.0261e-09
-2.3191e-05
2.78098e-06
-2.37267e-09
3.05036e-06
-2.77979e-09
-2.62386e-05
-1.98933e-07
3.98892e-07
-7.36115e-07
1.07708e-06
-1.5748e-06
1.68168e-06
-2.67839e-06
2.2131e-06
-4.01148e-06
2.67382e-06
-5.54114e-06
3.0689e-06
-7.23831e-06
3.40618e-06
-9.07932e-06
3.69663e-06
-1.10478e-05
3.95486e-06
-1.31364e-05
4.19931e-06
-1.53491e-05
4.45232e-06
-1.77025e-05
4.73938e-06
-2.02269e-05
5.08714e-06
-2.29635e-05
5.51755e-06
6.05068e-06
-2.59638e-05
-1.96884e-07
5.95776e-07
-7.28721e-07
1.60892e-06
-1.55902e-06
2.51199e-06
-2.65124e-06
3.30531e-06
-3.96979e-06
3.99237e-06
-5.48137e-06
4.58048e-06
-7.15624e-06
5.08105e-06
-8.96986e-06
5.51025e-06
-1.09046e-05
5.88958e-06
-1.29517e-05
6.24648e-06
-1.51137e-05
6.61429e-06
-1.74058e-05
7.03149e-06
-1.98575e-05
7.53878e-06
-2.25101e-05
8.17015e-06
8.95659e-06
-2.5416e-05
-1.93867e-07
7.89643e-07
-7.17812e-07
2.13286e-06
-1.53571e-06
3.32989e-06
-2.61107e-06
4.38067e-06
-3.90807e-06
5.28937e-06
-5.39281e-06
6.06522e-06
-7.03461e-06
6.72285e-06
-8.80753e-06
7.28317e-06
-1.06922e-05
7.7742e-06
-1.26776e-05
8.23194e-06
-1.4764e-05
8.70065e-06
-1.69645e-05
9.23201e-06
-1.93073e-05
9.88159e-06
-2.1834e-05
1.06969e-05
1.1721e-05
-2.45984e-05
-1.89947e-07
9.7959e-07
-7.03597e-07
2.64651e-06
-1.50528e-06
4.13157e-06
-2.55855e-06
5.43395e-06
-3.82726e-06
6.55808e-06
-5.27674e-06
7.5147e-06
-6.87506e-06
8.32117e-06
-8.59446e-06
9.00257e-06
-1.04131e-05
9.59286e-06
-1.23172e-05
1.01361e-05
-1.43037e-05
1.06871e-05
-1.63828e-05
1.13111e-05
-1.8581e-05
1.20797e-05
-2.09399e-05
1.30558e-05
1.42967e-05
-2.35157e-05
-1.85205e-07
1.1648e-06
-6.8634e-07
3.14765e-06
-1.46824e-06
4.91346e-06
-2.49449e-06
6.4602e-06
-3.72853e-06
7.79212e-06
-5.13476e-06
8.92092e-06
-6.67969e-06
9.8661e-06
-8.33333e-06
1.06562e-05
-1.00709e-05
1.13304e-05
-1.18748e-05
1.194e-05
-1.37378e-05
1.25501e-05
-1.56663e-05
1.32397e-05
-1.76843e-05
1.40977e-05
-1.98337e-05
1.52053e-05
1.66365e-05
-2.21735e-05
-1.79739e-07
1.34453e-06
-6.66351e-07
3.63426e-06
-1.42519e-06
5.6723e-06
-2.41985e-06
7.45487e-06
-3.61326e-06
8.98553e-06
-4.96871e-06
1.02764e-05
-6.45092e-06
1.13483e-05
-8.02726e-06
1.22326e-05
-9.6693e-06
1.29724e-05
-1.1355e-05
1.36257e-05
-1.3072e-05
1.42671e-05
-1.48216e-05
1.49893e-05
-1.66242e-05
1.59004e-05
-1.85222e-05
1.71032e-05
1.86924e-05
-2.0578e-05
-1.73653e-07
1.51819e-06
-6.43971e-07
4.10458e-06
-1.37679e-06
6.40512e-06
-2.33568e-06
8.41376e-06
-3.48294e-06
1.01328e-05
-4.78061e-06
1.1574e-05
-6.19138e-06
1.27591e-05
-7.67961e-06
1.37208e-05
-9.21273e-06
1.45055e-05
-1.07634e-05
1.51763e-05
-1.23128e-05
1.58165e-05
-1.38559e-05
1.65324e-05
-1.54087e-05
1.74531e-05
-1.70129e-05
1.87074e-05
2.04153e-05
-1.87358e-05
-1.67062e-07
1.68525e-06
-6.19558e-07
4.55707e-06
-1.32375e-06
7.10931e-06
-2.24306e-06
9.33307e-06
-3.33909e-06
1.12288e-05
-4.5725e-06
1.28075e-05
-5.90374e-06
1.40903e-05
-7.29383e-06
1.51109e-05
-8.70551e-06
1.59172e-05
-1.01052e-05
1.65761e-05
-1.14668e-05
1.7178e-05
-1.27771e-05
1.78428e-05
-1.40459e-05
1.87219e-05
-1.53141e-05
1.99755e-05
2.17543e-05
-1.66531e-05
-1.60078e-07
1.84533e-06
-5.93474e-07
4.99047e-06
-1.26674e-06
7.78258e-06
-2.14306e-06
1.02094e-05
-3.18322e-06
1.2269e-05
-4.34636e-06
1.39706e-05
-5.59054e-06
1.53345e-05
-6.87315e-06
1.63935e-05
-8.15179e-06
1.71959e-05
-9.38593e-06
1.78102e-05
-1.05406e-05
1.83327e-05
-1.1593e-05
1.88952e-05
-1.25443e-05
1.96733e-05
-1.34335e-05
2.08647e-05
2.26561e-05
-1.43353e-05
-1.52812e-07
1.99814e-06
-5.66065e-07
5.40372e-06
-1.20643e-06
8.42294e-06
-2.03668e-06
1.10396e-05
-3.01668e-06
1.3249e-05
-4.10396e-06
1.50579e-05
-5.25398e-06
1.64845e-05
-6.42036e-06
1.75599e-05
-7.55511e-06
1.83306e-05
-8.60999e-06
1.88651e-05
-9.53994e-06
1.92626e-05
-1.03104e-05
1.96656e-05
-1.09116e-05
2.02746e-05
-1.13786e-05
2.13316e-05
2.30645e-05
-1.1787e-05
-1.45367e-07
2.14351e-06
-5.37651e-07
5.79601e-06
-1.14339e-06
9.02868e-06
-1.9248e-06
1.1821e-05
-2.84064e-06
1.41648e-05
-3.84669e-06
1.60639e-05
-4.89577e-06
1.75336e-05
-5.93749e-06
1.86016e-05
-6.918e-06
1.93111e-05
-7.78069e-06
1.97278e-05
-8.46915e-06
1.99511e-05
-8.9348e-06
2.01313e-05
-9.15403e-06
2.04938e-05
-9.1552e-06
2.13328e-05
2.29213e-05
-9.01192e-06
-1.37834e-07
2.28134e-06
-5.08507e-07
6.16668e-06
-1.07814e-06
9.59832e-06
-1.80811e-06
1.2551e-05
-2.65592e-06
1.50126e-05
-3.57547e-06
1.69835e-05
-4.51683e-06
1.8475e-05
-5.42548e-06
1.95102e-05
-6.2415e-06
2.01271e-05
-6.89936e-06
2.03856e-05
-7.33013e-06
2.03818e-05
-7.469e-06
2.02701e-05
-7.2748e-06
2.02996e-05
-6.7668e-06
2.08248e-05
2.21687e-05
-6.01429e-06
-1.30291e-07
2.41163e-06
-4.78858e-07
6.51525e-06
-1.01103e-06
1.01305e-05
-1.68708e-06
1.32271e-05
-2.46299e-06
1.57885e-05
-3.29062e-06
1.78111e-05
-4.11717e-06
1.93015e-05
-4.88392e-06
2.0277e-05
-5.52473e-06
2.07679e-05
-5.96474e-06
2.08256e-05
-6.12147e-06
2.05386e-05
-5.91158e-06
2.00603e-05
-5.27154e-06
1.96596e-05
-4.20985e-06
1.97631e-05
2.07686e-05
-2.80974e-06
-1.22798e-07
2.53443e-06
-4.48866e-07
6.84132e-06
-9.42314e-07
1.06239e-05
-1.56191e-06
1.38467e-05
-2.26186e-06
1.64885e-05
-2.99173e-06
1.8541e-05
-3.69567e-06
2.00055e-05
-4.31071e-06
2.0892e-05
-4.76436e-06
2.12216e-05
-4.97225e-06
2.10335e-05
-4.83747e-06
2.04038e-05
-4.25587e-06
1.94787e-05
-3.13394e-06
1.85376e-05
-1.44226e-06
1.80714e-05
1.87679e-05
5.5848e-07
-1.15398e-07
2.64983e-06
-4.18626e-07
7.14454e-06
-8.7206e-07
1.10774e-05
-1.43254e-06
1.44071e-05
-2.05205e-06
1.7108e-05
-2.67758e-06
1.91665e-05
-3.24999e-06
2.05779e-05
-3.70185e-06
2.13439e-05
-3.95431e-06
2.1474e-05
-3.91338e-06
2.09926e-05
-3.46718e-06
1.99576e-05
-2.48888e-06
1.85004e-05
-8.54698e-07
1.69034e-05
1.52061e-06
1.56961e-05
1.58277e-05
4.46083e-06
-1.08115e-07
2.75794e-06
-3.88164e-07
7.42459e-06
-8.00196e-07
1.14894e-05
-1.29857e-06
1.49055e-05
-1.83258e-06
1.7642e-05
-2.34614e-06
1.96801e-05
-2.77645e-06
2.10082e-05
-3.05133e-06
2.16188e-05
-3.08542e-06
2.15081e-05
-2.77514e-06
2.06823e-05
-1.99362e-06
1.91761e-05
-5.89597e-07
1.70963e-05
1.59638e-06
1.47175e-05
4.67148e-06
1.2621e-05
1.19219e-05
8.57722e-06
-1.00956e-07
2.8589e-06
-3.57434e-07
7.68107e-06
-7.26486e-07
1.18585e-05
-1.15933e-06
1.53384e-05
-1.60194e-06
1.80846e-05
-1.99455e-06
2.00727e-05
-2.27004e-06
2.12837e-05
-2.35103e-06
2.16998e-05
-2.14531e-06
2.13024e-05
-1.5397e-06
2.00767e-05
-3.92666e-07
1.8029e-05
1.47124e-06
1.52324e-05
4.25144e-06
1.19373e-05
8.10562e-06
8.76681e-06
6.98994e-06
1.30376e-05
-9.39084e-08
2.95281e-06
-3.26326e-07
7.91349e-06
-6.50538e-07
1.21827e-05
-1.01387e-06
1.57017e-05
-1.35816e-06
1.84289e-05
-1.61913e-06
2.03337e-05
-1.72452e-06
2.1389e-05
-1.59086e-06
2.15661e-05
-1.11848e-06
2.083e-05
-1.84462e-07
1.91427e-05
1.36691e-06
1.64776e-05
3.73423e-06
1.28651e-05
7.157e-06
8.5145e-06
1.18543e-05
4.06954e-06
9.41819e-07
1.79024e-05
-8.6947e-08
3.03975e-06
-2.94664e-07
8.1212e-06
-5.71814e-07
1.24598e-05
-8.60939e-07
1.59908e-05
-1.0988e-06
1.86668e-05
-1.21552e-06
2.04504e-05
-1.1325e-06
2.1306e-05
-7.58973e-07
2.11926e-05
1.32508e-08
2.00578e-05
1.31764e-06
1.78383e-05
3.32338e-06
1.44719e-05
6.25016e-06
9.93832e-06
1.03753e-05
4.38932e-06
1.59836e-05
-1.53868e-06
-6.31429e-06
2.32397e-05
-8.00289e-08
3.11978e-06
-2.62207e-07
8.30338e-06
-4.89633e-07
1.26872e-05
-6.99051e-07
1.62002e-05
-8.21002e-07
1.87887e-05
-7.78696e-07
2.04081e-05
-4.8567e-07
2.1013e-05
1.57889e-07
2.0549e-05
1.27051e-06
1.89452e-05
2.9971e-06
1.61117e-05
5.52057e-06
1.19484e-05
9.0789e-06
6.37999e-06
1.39818e-05
-5.13557e-07
2.05789e-05
-8.13575e-06
-1.48652e-05
2.91298e-05
-7.30961e-08
3.19288e-06
-2.28654e-07
8.45894e-06
-4.03175e-07
1.28618e-05
-5.26472e-07
1.63235e-05
-5.21557e-07
1.87838e-05
-3.03151e-07
2.01897e-05
2.24986e-07
2.04849e-05
1.17394e-06
1.96001e-05
2.6749e-06
1.74442e-05
4.88652e-06
1.39001e-05
8.00588e-06
8.82908e-06
1.22866e-05
2.09929e-06
1.80621e-05
-6.28905e-06
2.57414e-05
-1.58151e-05
-2.47855e-05
3.56617e-05
-6.60731e-08
3.25895e-06
-1.93634e-07
8.5865e-06
-3.11472e-07
1.29796e-05
-3.41227e-07
1.63533e-05
-1.96904e-07
1.86395e-05
2.17075e-07
1.97757e-05
1.00899e-06
1.9693e-05
2.3039e-06
1.83051e-05
4.24878e-06
1.54994e-05
7.01897e-06
1.11299e-05
1.08274e-05
5.02061e-06
1.59412e-05
-3.01451e-06
2.27065e-05
-1.30543e-05
3.15823e-05
-2.46909e-05
-3.61288e-05
4.29255e-05
-5.88638e-08
3.31782e-06
-1.567e-07
8.68434e-06
-2.13403e-07
1.30363e-05
-1.41088e-07
1.6281e-05
1.56852e-07
1.83415e-05
7.88331e-07
1.91442e-05
1.8762e-06
1.86051e-05
3.56264e-06
1.66187e-05
6.01405e-06
1.3048e-05
9.42623e-06
7.71773e-06
1.40308e-05
4.16011e-07
2.01073e-05
-9.09102e-06
2.80016e-05
-2.09486e-05
3.82129e-05
-3.49021e-05
-4.89182e-05
5.10023e-05
-5.13466e-08
3.36916e-06
-1.17312e-07
8.7503e-06
-1.07666e-07
1.30267e-05
7.64599e-08
1.60968e-05
5.43974e-07
1.7874e-05
1.41736e-06
1.82708e-05
2.83676e-06
1.71857e-05
4.96486e-06
1.44906e-05
7.99148e-06
1.00213e-05
1.21372e-05
3.57199e-06
1.7656e-05
-5.10277e-06
2.484e-05
-1.6275e-05
3.40218e-05
-3.01304e-05
4.57321e-05
-4.66124e-05
-6.31336e-05
5.99476e-05
-4.33712e-08
3.41253e-06
-7.48215e-08
8.78175e-06
7.42357e-09
1.29444e-05
3.14228e-07
1.579e-05
9.69152e-07
1.72191e-05
2.11132e-06
1.71286e-05
3.90104e-06
1.5396e-05
6.52493e-06
1.18667e-05
1.02003e-05
6.34598e-06
1.51768e-05
-1.40456e-06
2.17346e-05
-1.16605e-05
3.01794e-05
-2.47199e-05
4.08196e-05
-4.07706e-05
5.42106e-05
-6.00035e-05
-7.86981e-05
6.97751e-05
-3.47516e-08
3.44729e-06
-2.84584e-08
8.77546e-06
1.33128e-07
1.27828e-05
5.75401e-07
1.53478e-05
1.43754e-06
1.6357e-05
2.87789e-06
1.56883e-05
5.07971e-06
1.31942e-05
8.25686e-06
8.68955e-06
1.26577e-05
1.94511e-06
1.8565e-05
-7.31185e-06
2.62881e-05
-1.93836e-05
3.61469e-05
-3.45787e-05
4.84179e-05
-5.30415e-05
6.36673e-05
-7.52529e-05
-9.54814e-05
8.04506e-05
-2.52703e-08
3.47256e-06
2.26009e-08
8.72759e-06
2.7193e-07
1.25335e-05
8.63606e-07
1.47561e-05
1.95481e-06
1.52657e-05
3.72524e-06
1.39179e-05
6.38371e-06
1.05357e-05
1.01741e-05
4.89915e-06
1.53787e-05
-3.2595e-06
2.23159e-05
-1.4249e-05
3.13266e-05
-2.83943e-05
4.27458e-05
-4.59979e-05
5.68172e-05
-6.71129e-05
7.40433e-05
-9.2479e-05
-0.000113352
9.19143e-05
-1.46677e-08
3.48722e-06
7.93391e-08
8.63358e-06
4.25923e-07
1.21869e-05
1.18284e-06
1.39992e-05
2.52715e-06
1.39214e-05
4.66206e-06
1.1783e-05
7.82418e-06
7.37357e-06
1.22894e-05
4.33946e-07
1.83751e-05
-9.34526e-06
2.64358e-05
-2.23097e-05
3.68449e-05
-3.88034e-05
4.99592e-05
-5.91123e-05
6.60261e-05
-8.31797e-05
8.52656e-05
-0.000111719
-0.000132185
0.000104098
-2.59862e-09
3.48982e-06
1.43097e-07
8.48789e-06
5.97662e-07
1.17324e-05
1.53747e-06
1.30594e-05
3.16121e-06
1.22977e-05
5.69744e-06
9.24672e-06
9.41219e-06
3.65883e-06
1.46141e-05
-4.76793e-06
2.16546e-05
-1.63858e-05
3.09202e-05
-3.15754e-05
4.28116e-05
-5.06947e-05
5.7713e-05
-7.40137e-05
7.598e-05
-0.000101447
9.75567e-05
-0.000133295
-0.000151354
0.000116726
1.13589e-08
3.47846e-06
2.15086e-07
8.28416e-06
7.89889e-07
1.11575e-05
1.9322e-06
1.19171e-05
3.86393e-06
1.0366e-05
6.84058e-06
6.27008e-06
1.11583e-05
-6.58943e-07
1.71576e-05
-1.07672e-05
2.52196e-05
-2.44478e-05
3.57528e-05
-4.21086e-05
4.91668e-05
-6.41086e-05
6.58367e-05
-9.06836e-05
8.61576e-05
-0.000121768
0.000110445
-0.000157583
-0.000187184
0.000146276
2.74239e-08
3.45104e-06
2.96661e-07
8.01492e-06
1.00549e-06
1.04487e-05
2.37187e-06
1.05507e-05
4.64237e-06
8.09546e-06
8.10041e-06
2.81203e-06
1.30722e-05
-5.63071e-06
1.99269e-05
-1.76219e-05
2.90674e-05
-3.35883e-05
4.09077e-05
-5.39489e-05
5.58358e-05
-7.90367e-05
7.41601e-05
-0.000109008
9.61974e-05
-0.000143805
0.000121858
-0.000183244
-0.000219953
0.000154627
4.61166e-08
3.40492e-06
3.89256e-07
7.67178e-06
1.24743e-06
9.59055e-06
2.86131e-06
8.93681e-06
5.50329e-06
5.45347e-06
9.48507e-06
-1.16974e-06
1.51613e-05
-1.13069e-05
2.29247e-05
-2.53854e-05
3.31884e-05
-4.38519e-05
4.63503e-05
-6.71109e-05
6.27416e-05
-9.54279e-05
8.25478e-05
-0.000128814
0.000105856
-0.000167113
0.000132196
-0.000209585
-0.000250946
0.000163189
6.78345e-08
3.33709e-06
4.94295e-07
7.24532e-06
1.51857e-06
8.56627e-06
3.40512e-06
7.05025e-06
6.45283e-06
2.40577e-06
1.10012e-05
-5.71807e-06
1.74301e-05
-1.77359e-05
2.61484e-05
-3.41036e-05
3.7564e-05
-5.52676e-05
5.20344e-05
-8.15813e-05
6.97972e-05
-0.000113191
9.08759e-05
-0.000149893
0.000115082
-0.000191319
0.000141703
-0.000236206
-0.000280474
0.000171232
9.29812e-08
3.24411e-06
6.13139e-07
6.72517e-06
1.82162e-06
7.35779e-06
4.0074e-06
4.86447e-06
7.49597e-06
-1.0828e-06
1.2653e-05
-1.08751e-05
1.98789e-05
-2.49618e-05
2.95878e-05
-4.38125e-05
4.21645e-05
-6.78443e-05
5.78979e-05
-9.73146e-05
7.6898e-05
-0.000132191
9.8999e-05
-0.000171994
0.000123737
-0.000216056
0.000150209
-0.000262679
-0.000308535
0.00017827
1.21938e-07
3.12217e-06
7.47033e-07
6.10007e-06
2.15893e-06
5.9459e-06
4.67147e-06
2.35193e-06
8.63612e-06
-5.04745e-06
1.44419e-05
-1.66809e-05
2.25026e-05
-3.30225e-05
3.3224e-05
-5.45339e-05
4.69463e-05
-8.15666e-05
6.3861e-05
-0.000114229
8.39199e-05
-0.00015225
0.000106752
-0.000194826
0.000131643
-0.000240947
0.000157555
-0.00028859
-0.000334996
0.000184016
1.55047e-07
2.96712e-06
8.97053e-07
5.35806e-06
2.53239e-06
4.31056e-06
5.39963e-06
-5.15312e-07
9.87468e-06
-9.5225e-06
1.63654e-05
-2.31715e-05
2.52893e-05
-4.19465e-05
3.70279e-05
-6.62724e-05
5.1852e-05
-9.63907e-05
6.98275e-05
-0.000132205
9.07245e-05
-0.000173147
0.000113965
-0.000218067
0.000138631
-0.000265613
0.000163614
-0.000313574
-0.000359692
0.00018831
1.92602e-07
2.77452e-06
1.06405e-06
4.48662e-06
2.94333e-06
2.43128e-06
6.19296e-06
-3.76494e-06
1.12106e-05
-1.45402e-05
1.84166e-05
-3.03776e-05
2.82205e-05
-5.17504e-05
4.09597e-05
-7.90116e-05
5.68106e-05
-0.000112242
7.56876e-05
-0.000151082
9.71663e-05
-0.000194625
0.000120477
-0.000241378
0.000144559
-0.000289695
0.000168307
-0.000337321
-0.000382492
0.000191107
2.34835e-07
2.53968e-06
1.24862e-06
3.47283e-06
3.3924e-06
2.87495e-07
7.0511e-06
-7.42364e-06
1.26402e-05
-2.01293e-05
2.05843e-05
-3.83216e-05
3.12701e-05
-6.24363e-05
4.49698e-05
-9.27113e-05
6.17399e-05
-0.000129012
8.13238e-05
-0.000170666
0.000103103
-0.000216404
0.000126147
-0.000264422
0.000149327
-0.000312875
0.000171604
-0.000359598
-0.000403331
0.000192443
2.81914e-07
2.25777e-06
1.45107e-06
2.30368e-06
3.8795e-06
-2.14094e-06
7.97212e-06
-1.15162e-05
1.41568e-05
-2.63139e-05
2.28519e-05
-4.70167e-05
3.44048e-05
-7.39891e-05
4.89993e-05
-0.000107306
6.65496e-05
-0.000146562
8.6617e-05
-0.000190733
0.000108405
-0.000238192
0.000130868
-0.000286886
0.000152881
-0.000334888
0.000173531
-0.000380248
-0.000422212
0.000192412
3.33936e-07
1.92383e-06
1.67139e-06
9.66227e-07
4.40374e-06
-4.87329e-06
8.95242e-06
-1.60649e-05
1.57507e-05
-3.31122e-05
2.51984e-05
-5.64644e-05
3.75844e-05
-8.63751e-05
5.29823e-05
-0.000122704
7.11457e-05
-0.000164725
9.14544e-05
-0.000211042
0.000112963
-0.0002597
0.00013457
-0.000308493
0.000155215
-0.000355533
0.000174158
-0.000399191
-0.000439196
0.000191143
3.90926e-07
1.53291e-06
1.90926e-06
-5.52104e-07
4.96337e-06
-7.92741e-06
9.98668e-06
-2.10882e-05
1.74092e-05
-4.05347e-05
2.75977e-05
-6.6653e-05
4.07632e-05
-9.95405e-05
5.6848e-05
-0.000138789
7.54351e-05
-0.000183312
9.57355e-05
-0.000231342
0.000116697
-0.000280662
0.00013722
-0.000329016
0.000156366
-0.00037468
0.000173587
-0.000416412
-0.000454395
0.000188786
4.52836e-07
1.08007e-06
2.16401e-06
-2.26327e-06
5.5558e-06
-1.13192e-05
1.10679e-05
-2.66003e-05
1.91166e-05
-4.85835e-05
3.002e-05
-7.75564e-05
4.3891e-05
-0.000113411
6.05244e-05
-0.000155422
7.93309e-05
-0.000202119
9.9378e-05
-0.000251389
0.000119557
-0.00030084
0.000138824
-0.000348283
0.000156403
-0.000392258
0.000171943
-0.000431952
-0.000467948
0.000185496
5.19543e-07
5.60529e-07
2.43463e-06
-4.17836e-06
6.17754e-06
-1.50621e-05
1.21872e-05
-3.26099e-05
2.08545e-05
-5.72509e-05
3.24317e-05
-8.91336e-05
4.6915e-05
-0.000127895
6.39407e-05
-0.000172448
8.27565e-05
-0.000220935
0.000102322
-0.000270955
0.000121522
-0.000320041
0.00013942
-0.000366182
0.000155419
-0.000408257
0.000169359
-0.000445892
-0.000480008
0.000181419
5.90844e-07
-3.03147e-08
2.71976e-06
-6.30728e-06
6.82426e-06
-1.91666e-05
1.33342e-05
-3.91198e-05
2.2602e-05
-6.65187e-05
3.47967e-05
-0.000101328
4.9782e-05
-0.00014288
6.70316e-05
-0.000189697
8.56499e-05
-0.000239553
0.00010453
-0.000289835
0.000122603
-0.000338113
0.000139069
-0.000382649
0.000153522
-0.00042271
0.000165969
-0.00045834
-0.000490733
0.000176695
6.66452e-07
-6.96767e-07
3.0177e-06
-8.65852e-06
7.49076e-06
-2.36397e-05
1.4497e-05
-4.6126e-05
2.43362e-05
-7.63579e-05
3.70774e-05
-0.000114069
5.24399e-05
-0.000158243
6.97396e-05
-0.000206997
8.79653e-05
-0.000257779
0.00010599
-0.000307859
0.00012283
-0.000354954
0.000137851
-0.000397669
0.000150823
-0.000435682
0.000161902
-0.000469419
-0.000500275
0.000171443
7.46002e-07
-1.44277e-06
3.32635e-06
-1.12389e-05
8.171e-06
-2.84843e-05
1.56622e-05
-5.36172e-05
2.60325e-05
-8.67283e-05
3.9236e-05
-0.000127273
5.48408e-05
-0.000173847
7.20176e-05
-0.000224174
8.96749e-05
-0.000275436
0.000106709
-0.000324893
0.000122257
-0.000370502
0.000135853
-0.000411265
0.000147436
-0.000447265
0.000157274
-0.000479257
-0.000508771
0.00016577
8.29032e-07
-2.2718e-06
3.64331e-06
-1.40532e-05
8.8582e-06
-3.36992e-05
1.68156e-05
-6.15746e-05
2.76659e-05
-9.75786e-05
4.12358e-05
-0.000140843
5.69421e-05
-0.000189554
7.38308e-05
-0.000241063
9.07682e-05
-0.000292373
0.000106713
-0.000340838
0.000120946
-0.000384735
0.00013317
-0.00042349
0.000143467
-0.000457562
0.00015219
-0.00048798
-0.000516345
0.000159764
9.14989e-07
-3.18679e-06
3.96581e-06
-1.7104e-05
9.54493e-06
-3.92783e-05
1.79418e-05
-6.99714e-05
2.92111e-05
-0.000108848
4.30428e-05
-0.000154675
5.87087e-05
-0.00020522
7.5157e-05
-0.000257511
9.12504e-05
-0.000308467
0.000106043
-0.000355631
0.000118971
-0.000397663
0.000129895
-0.000434413
0.000139014
-0.000466681
0.000146739
-0.000495705
-0.000523103
0.000153497
1.00323e-06
-4.19002e-06
4.29077e-06
-2.03915e-05
1.02232e-05
-4.52108e-05
1.90252e-05
-7.87734e-05
3.06433e-05
-0.000120466
4.46265e-05
-0.000168658
6.01138e-05
-0.000220707
7.59866e-05
-0.000273384
9.11408e-05
-0.000323621
0.00010475
-0.000369241
0.000116407
-0.00040932
0.000126114
-0.00044412
0.000134164
-0.000474731
0.000140998
-0.000502539
-0.000529135
0.000147029
1.09303e-06
-5.28306e-06
4.61484e-06
-2.39133e-05
1.08846e-05
-5.14805e-05
2.00502e-05
-8.7939e-05
3.19396e-05
-0.000132356
4.5961e-05
-0.000182679
6.11393e-05
-0.000235885
7.6322e-05
-0.000288566
9.04694e-05
-0.000337769
0.000102891
-0.000381662
0.00011333
-0.000419759
0.000121911
-0.000452701
0.000128993
-0.000481813
0.000135029
-0.000508575
-0.000534514
0.000140408
1.18357e-06
-6.46663e-06
4.93446e-06
-2.76642e-05
1.15205e-05
-5.80666e-05
2.10014e-05
-9.74199e-05
3.30791e-05
-0.000144433
4.70261e-05
-0.000196626
6.17764e-05
-0.000250636
7.61756e-05
-0.000302965
8.92749e-05
-0.000350868
0.000100525
-0.000392912
0.000109812
-0.000429045
0.000117358
-0.000460247
0.000123567
-0.000488022
0.000128887
-0.000513895
-0.000539299
0.000133672
1.27397e-06
-7.7406e-06
5.24588e-06
-3.16361e-05
1.21223e-05
-6.4943e-05
2.18644e-05
-0.000107162
3.40437e-05
-0.000156612
4.78076e-05
-0.00021039
6.20245e-05
-0.000264852
7.55688e-05
-0.00031651
8.7601e-05
-0.0003629
9.7715e-05
-0.000403026
0.000105921
-0.000437251
0.00011252
-0.000466846
0.000117941
-0.000493443
0.000122612
-0.000518566
-0.000543536
0.000126849
1.36328e-06
-9.10389e-06
5.54528e-06
-3.58181e-05
1.26816e-05
-7.20793e-05
2.26259e-05
-0.000117106
3.48188e-05
-0.000168805
4.82971e-05
-0.000223868
6.18908e-05
-0.000278446
7.45293e-05
-0.000329148
8.54951e-05
-0.000373866
9.45192e-05
-0.00041205
0.00010172
-0.000444452
0.000107456
-0.000472582
0.000112161
-0.000498148
0.000116239
-0.000522644
-0.000547262
0.000119965
1.45052e-06
-1.05544e-05
5.82884e-06
-4.01964e-05
1.31903e-05
-7.94408e-05
2.32743e-05
-0.00012719
3.53936e-05
-0.000180925
4.84921e-05
-0.000236967
6.13888e-05
-0.000291343
7.30897e-05
-0.000340849
8.30052e-05
-0.000383781
9.09941e-05
-0.000420039
9.72643e-05
-0.000450723
0.000102212
-0.000477529
0.000106266
-0.000502202
0.000109796
-0.000526174
-0.000550505
0.000113039
1.53467e-06
-1.20891e-05
6.0928e-06
-4.47546e-05
1.3641e-05
-8.6989e-05
2.37998e-05
-0.000137349
3.57609e-05
-0.000192886
4.83958e-05
-0.000249602
6.05375e-05
-0.000303485
7.12856e-05
-0.000351597
8.01792e-05
-0.000392675
8.71919e-05
-0.000427052
9.26029e-05
-0.000456134
9.68296e-05
-0.000481756
0.000100286
-0.000505658
0.000103304
-0.000529193
-0.000553286
0.000106084
1.61471e-06
-1.37038e-05
6.33356e-06
-4.94734e-05
1.4027e-05
-9.46824e-05
2.41948e-05
-0.000147517
3.59174e-05
-0.000204608
4.80158e-05
-0.0002617
5.93599e-05
-0.000314829
6.91543e-05
-0.000361392
7.70629e-05
-0.000400583
8.316e-05
-0.000433149
8.77788e-05
-0.000460752
9.13443e-05
-0.000485321
9.42468e-05
-0.000508561
9.67822e-05
-0.000531728
-0.000555618
9.9115e-05
1.68965e-06
-1.53934e-05
6.54778e-06
-5.43315e-05
1.43426e-05
-0.000102477
2.44538e-05
-0.000157628
3.58636e-05
-0.000216018
4.73641e-05
-0.0002732
5.78818e-05
-0.000325346
6.6733e-05
-0.000370243
7.36995e-05
-0.00040755
7.89411e-05
-0.00043839
8.28289e-05
-0.00046464
8.57845e-05
-0.000488277
8.81698e-05
-0.000510946
9.02441e-05
-0.000533802
-0.000557515
9.21408e-05
1.7585e-06
-1.71519e-05
6.73241e-06
-5.93054e-05
1.45832e-05
-0.000110328
2.45738e-05
-0.000167619
3.56029e-05
-0.000227047
4.64557e-05
-0.000284053
5.61307e-05
-0.000335021
6.40585e-05
-0.000378171
7.01292e-05
-0.000413621
7.45729e-05
-0.000442834
7.77849e-05
-0.000467852
8.01742e-05
-0.000490666
8.20716e-05
-0.000512844
8.37018e-05
-0.000535432
-0.000558984
8.51705e-05
1.82037e-06
-1.89723e-05
6.88479e-06
-6.43699e-05
1.47453e-05
-0.000118189
2.45536e-05
-0.000177427
3.5142e-05
-0.000237636
4.53082e-05
-0.000294219
5.41349e-05
-0.000343848
6.11659e-05
-0.000385201
6.63884e-05
-0.000418843
7.00885e-05
-0.000446534
7.26734e-05
-0.000470437
7.45331e-05
-0.000492526
7.59663e-05
-0.000514277
7.7165e-05
-0.000536631
-0.000560031
7.82118e-05
1.87441e-06
-2.08467e-05
7.00267e-06
-6.94981e-05
1.48264e-05
-0.000126012
2.43946e-05
-0.000186995
3.44899e-05
-0.000247731
4.39408e-05
-0.00030367
5.19226e-05
-0.00035183
5.80882e-05
-0.000391367
6.25101e-05
-0.000423265
6.55167e-05
-0.000449541
6.75172e-05
-0.000472438
6.88778e-05
-0.000493886
6.98652e-05
-0.000515264
7.06422e-05
-0.000537408
-0.00056066
7.12713e-05
1.91986e-06
-2.27666e-05
7.0843e-06
-7.46626e-05
1.48255e-05
-0.000133754
2.40997e-05
-0.000196269
3.36576e-05
-0.000257289
4.2374e-05
-0.000312387
4.95215e-05
-0.000358977
5.48561e-05
-0.000396702
5.85236e-05
-0.000426933
6.08824e-05
-0.000451899
6.23354e-05
-0.000473891
6.3222e-05
-0.000494773
6.37781e-05
-0.00051582
6.41403e-05
-0.00053777
-0.000560874
6.43549e-05
1.95608e-06
-2.47227e-05
7.12836e-06
-7.98348e-05
1.47425e-05
-0.000141368
2.36735e-05
-0.0002052
3.26576e-05
-0.000266273
4.06282e-05
-0.000320357
4.69579e-05
-0.000365307
5.14978e-05
-0.000401242
5.44549e-05
-0.00042989
5.62069e-05
-0.000453651
5.71438e-05
-0.000474827
5.75768e-05
-0.000495206
5.77129e-05
-0.000515956
5.76655e-05
-0.000537723
-0.000560677
5.74683e-05
1.98252e-06
-2.67052e-05
7.13406e-06
-8.49864e-05
1.45784e-05
-0.000148812
2.31222e-05
-0.000213744
3.15033e-05
-0.000274654
3.87244e-05
-0.000327578
4.42568e-05
-0.00037084
4.80388e-05
-0.000405023
5.03267e-05
-0.000432178
5.15083e-05
-0.000454833
5.19559e-05
-0.000475275
5.1952e-05
-0.000495202
5.16765e-05
-0.000515681
5.12235e-05
-0.00053727
-0.00056007
5.06164e-05
1.99876e-06
-2.8704e-05
7.10108e-06
-9.00887e-05
1.43351e-05
-0.000156046
2.2453e-05
-0.000221862
3.0209e-05
-0.00028241
3.66825e-05
-0.000334052
4.14417e-05
-0.000375599
4.4502e-05
-0.000408084
4.61589e-05
-0.000433835
4.68023e-05
-0.000455476
4.67831e-05
-0.000475256
4.63556e-05
-0.000494775
4.5675e-05
-0.000515
4.4819e-05
-0.000536414
-0.000559055
4.38041e-05
2.0045e-06
-3.07085e-05
7.02956e-06
-9.51137e-05
1.40155e-05
-0.000163032
2.1674e-05
-0.00022952
2.8789e-05
-0.000289525
3.45221e-05
-0.000339785
3.85338e-05
-0.00037961
4.09078e-05
-0.000410458
4.19688e-05
-0.000434896
4.2102e-05
-0.00045561
4.16351e-05
-0.000474789
4.07945e-05
-0.000493934
3.97138e-05
-0.000513919
3.84567e-05
-0.000535157
-0.000557634
3.70355e-05
1.99955e-06
-3.2708e-05
6.92008e-06
-0.000100034
1.36231e-05
-0.000169735
2.07938e-05
-0.000236691
2.72578e-05
-0.000295989
3.22615e-05
-0.000344789
3.5553e-05
-0.000382902
3.72745e-05
-0.000412179
3.77712e-05
-0.000435393
3.74188e-05
-0.000455257
3.65198e-05
-0.00047389
3.52748e-05
-0.000492689
3.37975e-05
-0.000512442
3.21409e-05
-0.0005335
-0.000555807
3.03142e-05
1.98385e-06
-3.46919e-05
6.77362e-06
-0.000104824
1.31622e-05
-0.000176124
1.98218e-05
-0.000243351
2.56294e-05
-0.000301797
2.99181e-05
-0.000349077
3.2517e-05
-0.000385501
3.36178e-05
-0.00041328
3.3579e-05
-0.000435354
3.27622e-05
-0.00045444
3.14445e-05
-0.000472572
2.98017e-05
-0.000491046
2.79302e-05
-0.000510571
2.58751e-05
-0.000531445
-0.000553576
2.36437e-05
1.95744e-06
-3.66493e-05
6.59148e-06
-0.000109458
1.26372e-05
-0.000182169
1.8767e-05
-0.000249481
2.39175e-05
-0.000306947
2.75079e-05
-0.000352668
2.94417e-05
-0.000387435
2.99519e-05
-0.00041379
2.94034e-05
-0.000434805
2.81406e-05
-0.000453178
2.64154e-05
-0.000470847
2.438e-05
-0.000489011
2.21155e-05
-0.000508306
1.96621e-05
-0.000528992
-0.00055094
1.70258e-05
1.92048e-06
-3.85698e-05
6.37529e-06
-0.000113913
1.20531e-05
-0.000187847
1.76388e-05
-0.000255066
2.21351e-05
-0.000311444
2.50456e-05
-0.000355578
2.63415e-05
-0.000388731
2.62889e-05
-0.000413738
2.52537e-05
-0.00043377
2.35612e-05
-0.000451485
2.1438e-05
-0.000468724
1.9015e-05
-0.000486588
1.63593e-05
-0.000505651
1.35048e-05
-0.000526137
-0.000547888
1.04533e-05
1.87323e-06
-4.0443e-05
6.12693e-06
-0.000118167
1.14151e-05
-0.000193135
1.64464e-05
-0.000260098
2.02945e-05
-0.000315292
2.25448e-05
-0.000357828
2.3229e-05
-0.000389415
2.26395e-05
-0.000413148
2.11382e-05
-0.000432269
1.90299e-05
-0.000449377
1.65172e-05
-0.000466211
1.37119e-05
-0.000483782
1.06706e-05
-0.000502609
7.41151e-06
-0.000522878
-0.000544372
3.89513e-06
1.81601e-06
-4.2259e-05
5.84847e-06
-0.000122199
1.07285e-05
-0.000198015
1.51987e-05
-0.000264568
1.84072e-05
-0.0003185
2.00176e-05
-0.000359439
2.01154e-05
-0.000389513
1.90128e-05
-0.000412046
1.70638e-05
-0.00043032
1.45522e-05
-0.000446865
1.16572e-05
-0.000463316
8.47399e-06
-0.000480599
5.05476e-06
-0.00049919
1.42464e-06
-0.000519248
-0.000540399
-2.5483e-06
1.74925e-06
-4.40083e-05
5.54213e-06
-0.000125992
9.9986e-06
-0.000202472
1.39043e-05
-0.000268474
1.64838e-05
-0.00032108
1.74751e-05
-0.00036043
1.70107e-05
-0.000389048
1.54167e-05
-0.000410452
1.30367e-05
-0.00042794
1.01324e-05
-0.000443961
6.86188e-06
-0.000460046
3.30362e-06
-0.000477041
-5.05738e-07
-0.000495381
-4.53717e-06
-0.000515216
-0.000536136
-8.79974e-06
1.67342e-06
-4.56817e-05
5.21024e-06
-0.000129529
9.23064e-06
-0.000206492
1.25711e-05
-0.000271814
1.45341e-05
-0.000323043
1.4927e-05
-0.000360823
1.39234e-05
-0.000388045
1.18581e-05
-0.000408386
9.0618e-06
-0.000425143
5.77477e-06
-0.000440674
2.13444e-06
-0.000456405
-1.79383e-06
-0.000473113
-5.9742e-06
-0.0004912
-1.04032e-05
-0.000510787
-0.000531503
-1.50369e-05
1.58906e-06
-4.72707e-05
4.85521e-06
-0.000132795
8.42978e-06
-0.000210067
1.1207e-05
-0.000274591
1.2567e-05
-0.000324403
1.23823e-05
-0.000360638
1.08611e-05
-0.000386523
8.34292e-06
-0.000405868
5.14362e-06
-0.000421944
1.48219e-06
-0.000437012
-2.52151e-06
-0.000452402
-6.81554e-06
-0.000468819
-1.13749e-05
-0.000486641
-1.61843e-05
-0.000505978
-0.000526478
-2.1209e-05
1.49675e-06
-4.87675e-05
4.47947e-06
-0.000135778
7.60101e-06
-0.000213188
9.819e-06
-0.000276809
1.05907e-05
-0.000325175
9.84864e-06
-0.000359896
7.83041e-06
-0.000384505
4.87611e-06
-0.000402914
1.28571e-06
-0.000418354
-2.74114e-06
-0.000432986
-7.10332e-06
-0.000448039
-1.17607e-05
-0.000464161
-1.66947e-05
-0.000481707
-2.18854e-05
-0.000500787
-0.000521062
-2.73014e-05
1.39712e-06
-5.01646e-05
4.08546e-06
-0.000138466
6.74914e-06
-0.000215852
8.4138e-06
-0.000278474
8.61264e-06
-0.000325373
7.33302e-06
-0.000358617
4.83686e-06
-0.000382009
1.46206e-06
-0.000399539
-2.50781e-06
-0.000414384
-6.89323e-06
-0.0004286
-1.16087e-05
-0.000443324
-1.66253e-05
-0.000459145
-2.19306e-05
-0.000476401
-2.75033e-05
-0.000495215
-0.000515257
-3.33082e-05
1.29081e-06
-5.14554e-05
3.67558e-06
-0.000140851
5.87874e-06
-0.000218055
6.99757e-06
-0.000279593
6.63937e-06
-0.000325015
4.84135e-06
-0.000356819
1.88547e-06
-0.000379053
-1.89537e-06
-0.000395758
-6.23476e-06
-0.000410044
-1.09718e-05
-0.000423863
-1.60351e-05
-0.000438261
-2.14063e-05
-0.000453773
-2.70797e-05
-0.000470728
-3.3034e-05
-0.00048926
-0.000509066
-3.9225e-05
1.17852e-06
-5.26339e-05
3.25219e-06
-0.000142924
4.99411e-06
-0.000219797
5.57606e-06
-0.000280175
4.67715e-06
-0.000324116
2.37848e-06
-0.00035452
-1.01917e-06
-0.000375656
-5.193e-06
-0.000391584
-9.89273e-06
-0.000405345
-1.49744e-05