/*--------------------------------*- C++ -*----------------------------------*\
  =========                 |
  \\      /  F ield         | OpenFOAM: The Open Source CFD Toolbox
   \\    /   O peration     | Website:  https://openfoam.org
    \\  /    A nd           | Version:  7
     \\/     M anipulation  |
\*---------------------------------------------------------------------------*/
FoamFile
{
    version     2.0;
    format      ascii;
    class       volVectorField;
    location    "20";
    object      U;
}
// * * * * * * * * * * * * * * * * * * * * * * * * * * * * * * * * * * * * * //

dimensions      [0 1 -1 0 0 0 0];

internalField   nonuniform List<vector> 
18750
(
(-0.000447881 0.00042866 -8.30721e-20)
(-0.00282996 0.00107958 2.45871e-20)
(-0.007606 0.0015598 1.66672e-19)
(-0.0137456 0.00189869 2.86833e-20)
(-0.0208471 0.00211783 -4.22657e-20)
(-0.0285521 0.00223872 -8.66873e-20)
(-0.0365502 0.00228254 6.539e-20)
(-0.0446072 0.00226975 3.53676e-20)
(-0.0525575 0.00222005 -2.37581e-20)
(-0.0603025 0.00215227 -5.55624e-20)
(-0.0678077 0.00208396 1.89821e-19)
(-0.0750991 0.00203072 -1.40205e-19)
(-0.0822653 0.0020048 7.73641e-20)
(-0.089383 0.002013 -1.35867e-19)
(-0.0965089 0.00205954 3.21167e-20)
(-0.000490595 0.00128301 5.53253e-20)
(-0.00293031 0.00323129 4.37812e-20)
(-0.00773609 0.00466854 -5.41721e-21)
(-0.0138843 0.00568248 1.4625e-19)
(-0.0209759 0.00633761 2.48341e-19)
(-0.0286548 0.00669831 2.6955e-19)
(-0.0366122 0.00682795 -1.83335e-19)
(-0.0446149 0.00678774 2.41962e-19)
(-0.052498 0.00663673 1.98227e-19)
(-0.060163 0.00643136 -4.23741e-20)
(-0.0675756 0.00622437 -1.96799e-19)
(-0.0747623 0.00606276 1.59601e-20)
(-0.0818138 0.0059836 4.20002e-20)
(-0.0888082 0.00600774 9.16881e-20)
(-0.0957978 0.00614827 -1.27175e-19)
(-0.000575564 0.00212826 1.18243e-19)
(-0.00313006 0.00536123 1.10294e-19)
(-0.00799519 0.00774688 -3.48469e-19)
(-0.0141606 0.00942986 -1.44682e-20)
(-0.0212327 0.0105167 -4.8697e-19)
(-0.0288596 0.0111141 1.17604e-19)
(-0.0367359 0.0113268 -2.60339e-19)
(-0.0446304 0.0112565 -4.76434e-20)
(-0.0523792 0.0110012 -1.60642e-19)
(-0.0598845 0.0106548 3.80636e-19)
(-0.067112 0.0103056 4.40613e-19)
(-0.0740892 0.0100327 3.43929e-19)
(-0.0809112 0.00989911 1.86956e-19)
(-0.0876584 0.00994109 1.19592e-19)
(-0.0943748 0.0101821 -2.01468e-19)
(-0.000701882 0.00295855 -4.00227e-19)
(-0.00342732 0.00745531 4.2626e-19)
(-0.00838115 0.0107751 -2.67222e-19)
(-0.0145725 0.0131171 -4.44176e-19)
(-0.0216156 0.0146286 6.10353e-19)
(-0.0291651 0.0154573 -4.98563e-19)
(-0.0369203 0.0157487 5.80286e-19)
(-0.0446532 0.0156437 -4.15047e-19)
(-0.0522014 0.015279 2.36181e-19)
(-0.0594675 0.0147859 -5.36322e-19)
(-0.0664176 0.0142885 -6.7574e-19)
(-0.0730805 0.0138992 2.99772e-20)
(-0.0795573 0.0137089 -1.13279e-19)
(-0.0859328 0.0137717 -2.18211e-19)
(-0.092238 0.0141242 7.45953e-19)
(-0.000868221 0.00376833 -2.03974e-19)
(-0.00381928 0.00950002 4.59072e-19)
(-0.00889072 0.013734 1.48088e-19)
(-0.0151167 0.0167211 3.98012e-19)
(-0.0221219 0.0186475 -3.61435e-19)
(-0.0295691 0.0197001 1.41437e-19)
(-0.037164 0.0200637 1.28487e-18)
(-0.0446825 0.0199178 1.51148e-19)
(-0.0519643 0.0194365 2.35132e-19)
(-0.0589125 0.0187885 -6.31781e-20)
(-0.0654932 0.0181341 8.25881e-20)
(-0.0717366 0.017621 -1.62882e-20)
(-0.0777516 0.0173702 -5.83717e-19)
(-0.0836296 0.0174577 -3.08986e-19)
(-0.0893831 0.0179375 -8.51071e-19)
(-0.00107288 0.00455243 4.85951e-19)
(-0.00430233 0.0114827 1.24487e-20)
(-0.00951967 0.0166057 -2.05233e-19)
(-0.0157892 0.0202201 -1.34532e-19)
(-0.0227478 0.0225485 5.64316e-20)
(-0.0300684 0.0238153 -1.26265e-18)
(-0.0374645 0.0242431 -1.64339e-19)
(-0.0447169 0.0240481 7.50771e-20)
(-0.0516674 0.0234411 -3.77192e-19)
(-0.0582195 0.0226274 -4.5749e-19)
(-0.064339 0.0218045 2.96546e-19)
(-0.0700572 0.0211568 -2.71627e-19)
(-0.0754926 0.0208398 7.60031e-19)
(-0.0807452 0.0209562 -5.47422e-19)
(-0.0858032 0.0215839 1.15782e-18)
(-0.00131381 0.00530617 -3.30819e-19)
(-0.00487208 0.0133917 -6.72426e-19)
(-0.0102628 0.0193733 1.95367e-19)
(-0.0165845 0.0235931 1.3876e-18)
(-0.0234883 0.026308 1.1869e-18)
(-0.0306587 0.0277775 -3.17667e-19)
(-0.0378183 0.0282595 1.4258e-19)
(-0.0447535 0.0280055 6.66589e-20)
(-0.0513087 0.0272615 7.39005e-19)
(-0.0573873 0.0262687 9.36104e-19)
(-0.0629542 0.0252623 -4.37573e-19)
(-0.068041 0.0244661 -7.35227e-19)
(-0.0727768 0.0240742 -1.26585e-18)
(-0.0772734 0.0242233 1.98959e-19)
(-0.0814867 0.0250245 -1.39376e-18)
(-0.0015887 0.00602544 -2.02157e-19)
(-0.00552343 0.0152163 -2.79699e-19)
(-0.0111138 0.0220212 -2.02456e-18)
(-0.0174961 0.0268211 5.89708e-19)
(-0.024337 0.029904 -7.77548e-19)
(-0.031334 0.0315623 4.02412e-19)
(-0.0382202 0.032087 3.17837e-19)
(-0.044788 0.0317625 -1.4592e-18)
(-0.0508845 0.0308683 -8.58188e-19)
(-0.0564129 0.0296804 -1.30339e-18)
(-0.0613358 0.028472 -2.31963e-19)
(-0.065684 0.027509 7.8163e-19)
(-0.0695978 0.0270297 2.82577e-18)
(-0.0732045 0.0272139 -3.95904e-19)
(-0.0764161 0.0282185 6.95979e-19)
(-0.00189503 0.0067067 1.1481e-18)
(-0.00625074 0.0169474 4.98402e-19)
(-0.0120657 0.0245355 2.1435e-18)
(-0.0185163 0.0298863 -1.45628e-18)
(-0.0252861 0.0333162 5.64668e-19)
(-0.0320868 0.0351474 -8.30098e-19)
(-0.0386627 0.0357015 -1.67447e-18)
(-0.0448134 0.0352935 1.40169e-18)
(-0.0503886 0.0342341 1.36332e-19)
(-0.0552902 0.0328327 1.8926e-18)
(-0.0594776 0.0314002 -5.68354e-19)
(-0.0629785 0.0302473 -2.3023e-18)
(-0.0659445 0.0296631 -1.31582e-18)
(-0.0685232 0.0298816 1.26585e-19)
(-0.0705653 0.0311232 -5.6947e-19)
(-0.00223011 0.00734706 -8.64933e-19)
(-0.00704781 0.0185768 -5.55175e-19)
(-0.0131104 0.0269037 5.69602e-19)
(-0.0196362 0.0327729 8.79175e-20)
(-0.0263261 0.0365258 -2.12746e-19)
(-0.0329072 0.0385121 -2.18645e-19)
(-0.039136 0.0390812 7.84123e-19)
(-0.0448196 0.0385756 -7.73825e-19)
(-0.0498105 0.0373346 7.08636e-19)
(-0.0540086 0.0356988 7.69989e-19)
(-0.0573681 0.0340165 -1.30495e-18)
(-0.0599113 0.0326453 2.31628e-18)
(-0.0617997 0.0319324 2.57264e-19)
(-0.0632077 0.0321794 2.96976e-19)
(-0.063898 0.0336931 6.71868e-19)
(-0.00259114 0.00794423 1.4252e-18)
(-0.00790803 0.0200978 -5.01663e-19)
(-0.0142391 0.0291151 -2.25563e-18)
(-0.0208452 0.0354665 7.82281e-19)
(-0.0274453 0.0395162 -4.48268e-19)
(-0.0337825 0.041638 4.99035e-19)
(-0.0396264 0.0422063 3.07826e-18)
(-0.0447922 0.0415882 1.30001e-18)
(-0.0491349 0.0401484 7.88484e-19)
(-0.0525517 0.0382559 -2.49855e-18)
(-0.0549894 0.0362947 2.49627e-18)
(-0.0564615 0.0346712 8.04316e-19)
(-0.0571368 0.0337984 -1.25979e-18)
(-0.0572264 0.0340605 1.476e-18)
(-0.0563639 0.0358797 -3.46852e-20)
(-0.0029753 0.00849652 1.83853e-19)
(-0.00882442 0.0215049 9.8567e-20)
(-0.015442 0.0311606 -7.82372e-20)
(-0.0221315 0.037955 -1.37207e-18)
(-0.02863 0.0422724 2.55545e-18)
(-0.0346972 0.0445085 -1.21715e-18)
(-0.0401164 0.0450595 -3.22387e-18)
(-0.0447114 0.0443139 8.16944e-19)
(-0.0483398 0.042658 -1.2889e-18)
(-0.0508947 0.0404858 1.8399e-18)
(-0.0523138 0.0382141 -3.06173e-18)
(-0.0525971 0.036299 2.12077e-19)
(-0.0519167 0.035227 1.11219e-18)
(-0.0505357 0.0354804 -2.19803e-18)
(-0.0478957 0.0376314 -4.96081e-19)
(-0.00337975 0.0090028 -8.55518e-19)
(-0.00978968 0.0227938 2.69895e-19)
(-0.0167085 0.0330323 7.87392e-19)
(-0.0234815 0.0402274 -1.7407e-20)
(-0.0298636 0.0447814 -3.31152e-18)
(-0.0356316 0.0471092 3.27546e-19)
(-0.0405831 0.0476261 1.03444e-18)
(-0.0445508 0.0467384 -2.56036e-18)
(-0.0473947 0.0448501 1.6713e-18)
(-0.0490029 0.0423756 -1.43614e-18)
(-0.0493013 0.0397607 3.6573e-18)
(-0.0482717 0.0375106 -1.47236e-18)
(-0.0460835 0.0361921 1.59542e-18)
(-0.0430759 0.0364004 3.06688e-18)
(-0.0384072 0.038906 1.24524e-18)
(-0.00380168 0.00946241 -3.05278e-19)
(-0.0107962 0.0239613 1.45588e-20)
(-0.018027 0.034724 -5.39201e-20)
(-0.0248797 0.0422747 -9.01027e-20)
(-0.0311268 0.0470318 -1.47419e-18)
(-0.0365621 0.0494277 -5.86656e-19)
(-0.0409978 0.0498936 9.56426e-19)
(-0.044276 0.0488505 5.02672e-19)
(-0.0462588 0.0467157 -2.92752e-18)
(-0.0468283 0.0439186 -1.67679e-19)
(-0.045896 0.0409289 -7.18178e-19)
(-0.0434196 0.0382978 1.366e-18)
(-0.0395574 0.0366779 -1.76977e-18)
(-0.034759 0.0367911 -2.09079e-19)
(-0.0278041 0.0397233 -1.39993e-18)
(-0.00423833 0.00987514 1.31112e-18)
(-0.0118363 0.025005 -1.23374e-18)
(-0.0193849 0.0362306 -1.7121e-18)
(-0.0263088 0.0440891 2.93094e-18)
(-0.0323969 0.049014 2.49641e-18)
(-0.0374599 0.0514532 2.98844e-18)
(-0.041325 0.0518519 9.69787e-20)
(-0.0438433 0.0506423 1.71115e-18)
(-0.0448791 0.0482505 2.17522e-18)
(-0.0443074 0.045115 2.99338e-18)
(-0.0420224 0.0417222 -1.26055e-18)
(-0.037952 0.0386642 2.50665e-18)
(-0.0322283 0.0366783 -4.45786e-20)
(-0.0254261 0.0366233 -1.15615e-18)
(-0.0159769 0.0401819 -2.66802e-18)
(-0.00468699 0.0102411 -8.01829e-19)
(-0.0129016 0.0259236 1.38073e-18)
(-0.0207688 0.0375481 9.04224e-19)
(-0.0277492 0.045664 -2.71674e-18)
(-0.0336475 0.0507195 -1.21964e-18)
(-0.038291 0.0531767 -2.03491e-19)
(-0.0415211 0.053493 -1.41019e-18)
(-0.0431984 0.0521088 -2.27842e-18)
(-0.0431886 0.0494546 -3.57216e-18)
(-0.0413583 0.0459719 -1.42608e-18)
(-0.037582 0.0421551 1.87556e-18)
(-0.0317533 0.0386273 -3.71744e-18)
(-0.0239648 0.0362047 1.31244e-19)
(-0.0148338 0.0358929 2.08472e-18)
(-0.00264207 0.0401422 2.84387e-18)
(-0.00514504 0.0105607 -1.89711e-18)
(-0.0139839 0.026716 1.59426e-18)
(-0.0221638 0.0386733 -2.77348e-18)
(-0.0291789 0.046994 -1.27096e-18)
(-0.0348484 0.052141 -4.28436e-20)
(-0.0390151 0.0545905 1.60914e-18)
(-0.0415343 0.0548105 2.36353e-18)
(-0.042275 0.0532473 6.84724e-19)
(-0.041104 0.0503323 9.47814e-19)
(-0.0378782 0.0465034 -2.71631e-18)
(-0.0324499 0.0422533 6.33442e-20)
(-0.0246739 0.0382227 -1.77123e-18)
(-0.0146037 0.0352935 -1.24888e-18)
(-0.00283498 0.0346371 -3.37307e-18)
(0.0125507 0.0394301 -4.15758e-20)
(-0.00560989 0.0108346 1.67355e-18)
(-0.0150744 0.0273817 2.75291e-19)
(-0.0235539 0.0396037 4.46447e-19)
(-0.0305736 0.0480742 3.20181e-18)
(-0.0359651 0.0532722 1.30175e-18)
(-0.0395856 0.0556878 -1.44673e-18)
(-0.0413031 0.0557993 1.113e-18)
(-0.040994 0.0540576 -5.83759e-19)
(-0.0385245 0.0508913 -1.07394e-18)
(-0.0337408 0.04673 1.18429e-18)
(-0.0264709 0.0420541 -3.70233e-18)
(-0.0165262 0.0375056 -1.54386e-19)
(-0.00391457 0.034014 -1.83114e-18)
(0.0107728 0.0329254 2.71179e-18)
(0.0298634 0.0381412 2.74941e-19)
(-0.006079 0.0110633 -6.38138e-19)
(-0.016164 0.0279207 -1.91931e-18)
(-0.0249219 0.0403373 4.97804e-19)
(-0.0319058 0.0489006 -3.6518e-18)
(-0.0369583 0.0541073 -2.38707e-18)
(-0.0399489 0.0564628 -1.28801e-18)
(-0.0407565 0.0564555 -2.06113e-18)
(-0.0392626 0.0545403 1.94626e-18)
(-0.0353307 0.0511421 2.48667e-18)
(-0.0287949 0.0466771 4.53983e-18)
(-0.0194575 0.0416049 -1.79971e-19)
(-0.00708298 0.0365509 4.48111e-18)
(0.00837656 0.0324653 1.6308e-18)
(0.0262951 0.0308349 1.20915e-18)
(0.0496252 0.0364155 -2.57286e-18)
(-0.00654983 0.0112476 1.10364e-18)
(-0.0172429 0.028333 2.91786e-18)
(-0.0262488 0.0408722 2.01318e-18)
(-0.0331455 0.0494694 2.53735e-18)
(-0.0377841 0.0546414 -3.30342e-20)
(-0.0400443 0.0569102 8.76606e-19)
(-0.0398129 0.0567756 6.48325e-20)
(-0.0369735 0.0546974 -1.37877e-18)
(-0.0313842 0.0510964 2.14956e-18)
(-0.0228637 0.0463736 -7.02657e-18)
(-0.0111883 0.0409609 1.86793e-18)
(0.00392543 0.0354503 -1.18598e-18)
(0.0225902 0.0307813 2.01657e-19)
(0.0440984 0.0285086 -1.54871e-18)
(0.072255 0.0344154 -1.65821e-18)
(-0.00701982 0.0113884 -1.80305e-18)
(-0.0183009 0.0286186 2.60037e-18)
(-0.027514 0.041207 -6.20144e-19)
(-0.0342591 0.0497775 -1.08629e-18)
(-0.0383933 0.0548699 2.17776e-18)
(-0.0398033 0.0570252 1.58075e-19)
(-0.0383802 0.0567568 -6.02562e-19)
(-0.0340054 0.0545308 -6.89189e-20)
(-0.0265271 0.0507661 -1.35697e-18)
(-0.0157453 0.0458494 3.36584e-18)
(-0.00140924 0.0401816 1.96361e-18)
(0.0168106 0.0343078 1.03229e-18)
(0.0390964 0.0291253 -8.13456e-20)
(0.0646023 0.0261514 2.07365e-18)
(0.0982302 0.0323773 -1.74842e-19)
(-0.00748631 0.0114861 5.31357e-19)
(-0.0193269 0.0287775 -5.80769e-19)
(-0.0286949 0.0413404 5.18597e-19)
(-0.0352096 0.049822 2.0272e-18)
(-0.0387311 0.0547889 -1.26553e-18)
(-0.0391496 0.056804 -8.13225e-19)
(-0.0363555 0.0563969 -1.33344e-18)
(-0.0302226 0.0540431 1.02647e-18)
(-0.0205834 0.0501631 -9.90905e-19)
(-0.00721457 0.0451338 -1.14751e-18)
(0.010163 0.0393264 -1.69089e-18)
(0.0319207 0.0332324 -9.27537e-19)
(0.0583076 0.0276801 3.2266e-18)
(0.0882749 0.0240163 -4.17183e-18)
(0.128056 0.0306357 -8.87845e-20)
(-0.00794653 0.0115415 2.30499e-18)
(-0.020309 0.0288098 -9.37945e-19)
(-0.0297669 0.0412714 -2.52274e-18)
(-0.0359562 0.0496007 -6.33636e-19)
(-0.0387371 0.0543957 3.33821e-18)
(-0.0379987 0.0562442 -1.29725e-19)
(-0.0336253 0.055695 1.44806e-18)
(-0.025476 0.0532376 -7.93675e-19)
(-0.0133603 0.0492993 -2.73271e-18)
(0.00297405 0.0442542 5.95414e-18)
(0.0238355 0.0384511 -4.1634e-18)
(0.0496309 0.0323301 1.14445e-18)
(0.080663 0.0266346 -4.66105e-18)
(0.115619 0.0223877 1.63446e-18)
(0.16222 0.0296256 1.25913e-18)
(-0.00839748 0.011555 -8.06855e-19)
(-0.021234 0.0287153 -2.90768e-18)
(-0.0307026 0.040999 1.37168e-18)
(-0.0364537 0.0491124 2.5255e-19)
(-0.0383442 0.0536888 -3.05794e-18)
(-0.0362576 0.0553451 1.8292e-18)
(-0.030065 0.0546527 9.00199e-20)
(-0.0196028 0.0521197 -4.78617e-19)
(-0.00464955 0.0481871 -3.0636e-18)
(0.0150825 0.0432362 -3.41384e-19)
(0.0399318 0.0376056 3.37473e-18)
(0.0703319 0.0316964 3.08339e-19)
(0.106607 0.0261665 7.22331e-19)
(0.147149 0.0215603 1.94811e-18)
(0.201129 0.0298685 -4.48766e-18)
(-0.00883584 0.0115268 -1.26827e-18)
(-0.0220874 0.0284937 7.43557e-21)
(-0.0314716 0.0405227 -1.7033e-18)
(-0.0366521 0.0483567 1.40095e-18)
(-0.037479 0.0526692 1.76607e-18)
(-0.0338243 0.0541093 -1.28224e-18)
(-0.025539 0.0532755 -1.8662e-19)
(-0.0124278 0.0506991 -9.74655e-19)
(0.00577025 0.0468427 2.2198e-18)
(0.0293849 0.0421061 4.98041e-19)
(0.0587835 0.0368342 -5.10611e-18)
(0.0944153 0.0314125 1.42999e-18)
(0.136567 0.026426 7.35203e-19)
(0.183378 0.0218126 -3.23227e-18)
(0.245034 0.0319225 5.44784e-19)
(-0.00925787 0.011457 3.01792e-19)
(-0.0228527 0.0281446 8.45052e-19)
(-0.0320403 0.0398425 1.70581e-18)
(-0.0364963 0.0473353 -1.37924e-18)
(-0.0360603 0.0513404 8.86733e-21)
(-0.0305876 0.0525436 3.32086e-18)
(-0.0199006 0.0515742 -8.50902e-20)
(-0.00376395 0.0489919 1.82301e-20)
(0.0181316 0.0452886 3.85813e-18)
(0.0461622 0.0408946 -2.13349e-18)
(0.0807201 0.0361794 1.26513e-18)
(0.122257 0.0315469 -3.58585e-18)
(0.170918 0.0275229 2.79983e-19)
(0.224785 0.0233845 -8.63746e-19)
(0.293944 0.0362927 1.30012e-18)
(-0.00965925 0.0113455 -2.0469e-19)
(-0.0235117 0.0276672 1.11962e-18)
(-0.032371 0.0389595 -1.44635e-18)
(-0.0359252 0.0460515 3.19379e-18)
(-0.0339996 0.0497097 -2.5355e-18)
(-0.0264263 0.0506606 -2.18165e-18)
(-0.0129921 0.0495677 -1.38176e-18)
(0.00658705 0.0470241 -2.81462e-18)
(0.0326753 0.0435579 -5.02545e-18)
(0.065697 0.0396415 5.77926e-19)
(0.106059 0.0356876 3.43379e-18)
(0.154199 0.0321617 2.55171e-18)
(0.209956 0.029524 3.14019e-19)
(0.271762 0.026502 -1.84759e-18)
(0.34748 0.0434228 -7.82647e-19)
(-0.0100349 0.0111917 5.65574e-19)
(-0.0240432 0.0270612 1.07352e-18)
(-0.032422 0.0378755 -4.64661e-18)
(-0.0348712 0.0445109 -3.20401e-18)
(-0.0311994 0.0477889 -1.00799e-19)
(-0.0212095 0.0484796 2.44561e-18)
(-0.00464523 0.0472844 -8.42128e-19)
(0.0188327 0.044834 6.25165e-18)
(0.0496468 0.0416983 2.23413e-19)
(0.0882664 0.038401 -3.26276e-18)
(0.135097 0.0354138 -2.72712e-18)
(0.190538 0.0333151 -3.9831e-18)
(0.253895 0.0324492 4.30016e-18)
(0.324537 0.0315049 2.54403e-18)
(0.404488 0.0539508 -8.30238e-20)
(-0.0103789 0.010995 -1.56342e-18)
(-0.0244236 0.0263261 -3.1564e-18)
(-0.032146 0.0365929 2.33565e-18)
(-0.0332602 0.0427224 2.91062e-18)
(-0.027554 0.0455952 1.79812e-18)
(-0.0147964 0.0460285 -1.68384e-18)
(0.00531785 0.0447644 4.39879e-18)
(0.0331869 0.0424748 -5.9033e-18)
(0.0692898 0.0397751 6.24195e-18)
(0.11413 0.0372447 3.72447e-18)
(0.168087 0.035422 -1.18217e-18)
(0.231507 0.0350426 -1.4868e-18)
(0.302959 0.0362333 -1.78325e-18)
(0.383394 0.038917 -3.17862e-18)
(0.463098 0.0684175 3.57343e-18)
(-0.0106841 0.0107541 4.50678e-18)
(-0.024626 0.025461 3.75053e-18)
(-0.0314911 0.0351159 8.88276e-19)
(-0.0310108 0.0406983 -4.22096e-20)
(-0.0229493 0.0431518 -6.06744e-19)
(-0.00703727 0.0433439 -7.5714e-19)
(0.0170826 0.0420607 -3.48146e-18)
(0.0498661 0.040017 5.89072e-18)
(0.0918381 0.0378745 -4.46068e-18)
(0.143513 0.0362654 6.24536e-20)
(0.205207 0.0357852 3.83233e-18)
(0.277192 0.0373324 2.4737e-18)
(0.357338 0.0406871 2.30836e-18)
(0.449077 0.0489447 2.36177e-20)
(0.524058 0.083606 -2.36141e-18)
(-0.0109416 0.0104675 -2.72327e-18)
(-0.0246196 0.0244654 -3.05767e-18)
(-0.0303995 0.0334503 1.01141e-18)
(-0.0280343 0.0384543 -1.64737e-18)
(-0.0172627 0.0404881 -7.4632e-19)
(0.00222547 0.0404727 2.72893e-18)
(0.0308391 0.03924 -7.39906e-19)
(0.069083 0.0375492 -5.84291e-19)
(0.117505 0.0361052 -2.08362e-18)
(0.176586 0.0355826 -4.42531e-18)
(0.246508 0.0366013 1.99287e-18)
(0.32739 0.0401667 -2.19456e-18)
(0.416578 0.0455746 -2.93082e-18)
(0.52077 0.0601729 -1.17907e-18)
(0.596025 0.088383 4.3483e-18)
(-0.0111415 0.0101335 3.13069e-18)
(-0.0243695 0.0233393 -2.67219e-18)
(-0.0288078 0.0316037 -4.50731e-18)
(-0.0242353 0.0360106 4.54309e-19)
(-0.0103647 0.0376408 1.14898e-18)
(0.0131548 0.0374717 -7.49458e-19)
(0.0467778 0.0363832 2.19497e-18)
(0.0910397 0.0351781 5.74475e-19)
(0.146471 0.0345992 -5.78927e-19)
(0.213452 0.0353461 -2.43301e-19)
(0.291921 0.0380204 -2.14396e-18)
(0.38166 0.0436436 1.74772e-19)
(0.479427 0.0508061 9.15131e-19)
(0.591909 0.0682436 -6.59031e-19)
(0.677265 0.0816261 4.91917e-18)
(-0.0112719 0.00975031 6.7504e-19)
(-0.0238371 0.0220828 -1.56915e-18)
(-0.0266468 0.0295859 4.42176e-18)
(-0.0195119 0.0333914 3.50264e-18)
(-0.00212015 0.0346533 -3.55026e-18)
(0.0259161 0.034408 -2.11308e-19)
(0.065084 0.0335841 -1.66697e-18)
(0.115919 0.0330268 -5.43471e-19)
(0.178876 0.0335074 4.54729e-18)
(0.254136 0.0357301 2.1932e-18)
(0.341257 0.0402345 3.17298e-18)
(0.439441 0.0479633 -2.31736e-18)
(0.544811 0.0568601 1.37162e-18)
(0.662172 0.0757479 -7.34753e-19)
(0.753953 0.0830535 -6.28685e-18)
(-0.0113192 0.00931585 5.43609e-19)
(-0.0229794 0.0206973 9.04844e-19)
(-0.023842 0.0274093 -2.44704e-18)
(-0.013757 0.0306256 -2.85247e-18)
(0.00760957 0.0315763 -2.66693e-18)
(0.0406732 0.0313579 2.51241e-19)
(0.0859312 0.0309484 2.03454e-18)
(0.143874 0.0312306 -3.80899e-18)
(0.214801 0.0329924 -2.16602e-18)
(0.298571 0.0369163 1.20825e-18)
(0.394204 0.0434391 -3.05497e-18)
(0.500089 0.0533379 2.25873e-19)
(0.611656 0.0641215 1.78987e-18)
(0.731242 0.0839441 -2.16576e-18)
(0.825816 0.0896027 1.69998e-18)
(-0.0112678 0.00882824 -1.2233e-18)
(-0.0217494 0.0191853 2.99493e-18)
(-0.0203141 0.0250892 2.02355e-18)
(-0.00685934 0.0277475 1.37266e-18)
(0.0189637 0.0284675 2.28076e-18)
(0.057583 0.0284071 -2.37035e-19)
(0.109473 0.0285912 -1.93034e-18)
(0.175014 0.0299329 3.74044e-19)
(0.254252 0.0332188 2.76882e-18)
(0.346579 0.0390771 -4.96556e-18)
(0.450308 0.047798 -2.45902e-18)
(0.562831 0.0599075 3.09668e-20)
(0.678845 0.0726699 -5.88259e-19)
(0.798261 0.0930405 2.84101e-18)
(0.893033 0.0988028 -2.27058e-18)
(-0.0111005 0.00828597 1.36804e-18)
(-0.0200965 0.0175511 1.00584e-18)
(-0.0159799 0.0226446 -1.02537e-19)
(0.00129418 0.0247966 -8.88475e-19)
(0.0320786 0.0253919 2.05966e-19)
(0.0767901 0.025649 -2.75621e-18)
(0.135832 0.0266347 6.70543e-19)
(0.209396 0.0292801 -1.42329e-18)
(0.297148 0.0343449 -1.71908e-18)
(0.397856 0.0423609 3.49526e-18)
(0.508964 0.053423 5.11322e-18)
(0.626756 0.0677251 2.3041e-18)
(0.745211 0.0824134 1.97033e-18)
(0.862205 0.103005 -2.34187e-18)
(0.954686 0.109552 -2.25641e-18)
(-0.010798 0.00768819 1.16978e-18)
(-0.0179665 0.0158015 -2.29041e-18)
(-0.0107534 0.0200986 -1.13666e-18)
(0.0108167 0.0218182 -2.60599e-18)
(0.0470842 0.0224215 1.17712e-18)
(0.0984204 0.0231842 2.9225e-18)
(0.165095 0.025206 -3.58067e-18)
(0.247009 0.0294164 1.29832e-18)
(0.343305 0.0365138 2.70002e-18)
(0.451965 0.0468815 8.58609e-19)
(0.569428 0.0603647 -3.5202e-18)
(0.690845 0.0767603 -1.28965e-18)
(0.809585 0.0931666 1.93335e-20)
(0.92209 0.113672 1.268e-18)
(1.01006 0.121071 4.49997e-18)
(-0.0103396 0.00703497 -1.86203e-18)
(-0.0153028 0.0139462 -2.01232e-18)
(-0.00454694 0.0174792 1.15401e-18)
(0.0218188 0.0188643 4.62425e-18)
(0.0640992 0.0196357 -3.04975e-18)
(0.122574 0.0211194 8.91347e-19)
(0.197299 0.0244336 1.44637e-18)
(0.287762 0.0304786 -9.11676e-20)
(0.39243 0.0398462 3.32395e-19)
(0.508339 0.0527102 1.73714e-18)
(0.630842 0.0686093 -1.64207e-18)
(0.754036 0.0869059 -3.06748e-18)
(0.870892 0.104689 -2.35922e-18)
(0.977104 0.124796 1.92164e-18)
(1.05875 0.132781 4.76827e-19)
(-0.00970302 0.00632763 -4.72833e-19)
(-0.0120465 0.0119985 4.08327e-18)
(0.00272683 0.0148198 8.97029e-19)
(0.0344056 0.0159936 1.25855e-18)
(0.083227 0.0171204 1.14569e-18)
(0.149319 0.019566 1.11247e-18)
(0.232426 0.0244451 -4.3798e-19)
(0.331481 0.0325911 8.39206e-19)
(0.444118 0.0444335 4.80173e-19)
(0.566299 0.0598697 2.21501e-18)
(0.692277 0.0780816 1.29291e-19)
(0.815287 0.0979926 2.13682e-18)
(0.928211 0.116715 -1.45778e-18)
(1.02667 0.136106 -1.221e-18)
(1.10068 0.144272 7.3283e-19)
(-0.008865 0.00556901 1.76045e-18)
(-0.00813793 0.00997597 -1.65677e-18)
(0.0111534 0.0121602 2.20926e-19)
(0.0486737 0.0132718 -2.55718e-18)
(0.104551 0.0149683 -2.16378e-18)
(0.178686 0.0186384 3.83367e-18)
(0.270393 0.0253631 1.19231e-18)
(0.377903 0.0358605 -1.79739e-18)
(0.497861 0.0503325 4.6251e-19)
(0.625079 0.0683335 -5.96548e-18)
(0.752788 0.0886529 2.06162e-18)
(0.873651 0.10981 -2.29047e-18)
(0.980838 0.128986 2.40197e-18)
(1.07048 0.147353 -3.6118e-19)
(1.13605 0.155272 -1.158e-18)
(-0.00780141 0.00476377 -2.76956e-18)
(-0.00351735 0.00790085 -3.00449e-18)
(0.0208145 0.00954661 -3.09321e-18)
(0.0647081 0.0107722 -2.38676e-18)
(0.128129 0.0132779 1.59448e-18)
(0.21066 0.0184519 -6.65245e-18)
(0.311052 0.0273016 6.31221e-19)
(0.426676 0.0403707 6.20734e-19)
(0.553063 0.0575617 3.55703e-19)
(0.683865 0.0780269 2.79036e-18)
(0.811467 0.100154 -2.20609e-18)
(0.928332 0.122127 4.96993e-18)
(1.02831 0.141266 -9.77999e-19)
(1.10848 0.15833 -1.67375e-18)
(1.16529 0.165624 9.05474e-19)
(-0.00648766 0.0039186 4.96601e-19)
(0.00187385 0.00580072 2.4625e-18)
(0.0317857 0.00703254 3.59828e-18)
(0.0825784 0.00857532 5.49794e-19)
(0.153989 0.0121526 2.92225e-18)
(0.245176 0.0191206 1.64114e-18)
(0.354181 0.0303625 5.15171e-19)
(0.477365 0.0461784 -2.87731e-18)
(0.609061 0.0660996 -1.99053e-19)
(0.741832 0.0888337 1.39988e-18)
(0.867495 0.112389 5.37944e-18)
(0.978721 0.134718 -6.89518e-19)
(1.07038 0.153357 1.63333e-18)
(1.14082 0.168888 1.44412e-18)
(1.18895 0.175256 2.11825e-18)
(-0.00489913 0.00304244 9.3059e-19)
(0.0080918 0.00370867 -3.32871e-18)
(0.0441342 0.0046785 -6.93381e-19)
(0.102336 0.0067682 -1.16992e-22)
(0.182127 0.0116989 -5.51775e-18)
(0.282117 0.0207538 1.46078e-18)
(0.39949 0.0346308 -7.44518e-19)
(0.529464 0.0533103 9.22346e-19)
(0.665152 0.0758862 3.29133e-18)
(0.798194 0.100605 -1.22805e-18)
(0.920184 0.125154 -4.03609e-18)
(1.02441 0.147377 -5.16897e-19)
(1.10706 0.165107 -5.55018e-19)
(1.16784 0.178932 -1.20054e-18)
(1.2077 0.184165 -2.30387e-18)
(-0.00301156 0.00214661 1.89404e-19)
(0.0151889 0.00166354 8.91142e-19)
(0.0579167 0.0025521 -2.38286e-18)
(0.12401 0.0054439 9.79169e-19)
(0.2125 0.0120245 2.30173e-18)
(0.321312 0.0234533 -9.85442e-19)
(0.446623 0.0401711 -2.08979e-19)
(0.582414 0.0617606 -2.42296e-18)
(0.72063 0.0868272 5.26163e-19)
(0.85224 0.113173 -1.95505e-18)
(0.969005 0.138251 1.90434e-18)
(1.0652 0.159928 -1.50303e-18)
(1.1385 0.176413 2.49709e-18)
(1.18999 0.188419 -8.71625e-19)
(1.2222 0.192393 -1.6424e-18)
(-0.00080157 0.00124491 1.03691e-18)
(0.0232122 -0.000290084 6.96802e-19)
(0.0731769 0.000727513 6.25898e-19)
(0.147606 0.00470003 1.35581e-19)
(0.245024 0.0132359 1.0852e-18)
(0.362533 0.0273091 -2.59939e-18)
(0.495167 0.0470244 1.44932e-18)
(0.635625 0.071492 3.52466e-18)
(0.774815 0.0988008 -3.89831e-19)
(0.903364 0.126357 2.86383e-18)
(1.0136 0.151497 1.71802e-18)
(1.10107 0.172235 3.10145e-19)
(1.165 0.187215 4.91501e-19)
(1.20779 0.197347 8.90711e-19)
(1.2331 0.200011 1.94976e-18)
(0.00175295 0.000353611 1.60883e-18)
(0.0322022 -0.00210208 2.40044e-18)
(0.089943 -0.000715262 -2.1954e-18)
(0.1731 0.00463706 1.99002e-18)
(0.279575 0.0154354 -4.64059e-18)
(0.405503 0.0323969 1.0978e-18)
(0.544664 0.0552061 -4.13992e-19)
(0.688495 0.082438 -2.19897e-18)
(0.827084 0.111666 -4.08821e-18)
(0.951087 0.139984 -1.61637e-18)
(1.05376 0.164736 -4.01552e-18)
(1.13213 0.184199 2.44654e-18)
(1.18696 0.197489 -3.1147e-18)
(1.22175 0.205743 1.95681e-18)
(1.241 0.207105 1.22753e-18)
(0.0046722 -0.00050847 -3.81764e-18)
(0.0421912 -0.00371711 1.59355e-19)
(0.108226 -0.00169144 2.70742e-19)
(0.200438 0.00535627 5.54064e-19)
(0.315984 0.0187182 2.82654e-19)
(0.449894 0.0387741 2.22591e-18)
(0.594624 0.0647053 1.2619e-18)
(0.740438 0.0945067 -3.64565e-19)
(0.876895 0.125271 1.83518e-18)
(0.995064 0.15389 1.21573e-18)
(1.08943 0.177842 5.58111e-19)
(1.15862 0.195759 -1.36208e-18)
(1.20482 0.207244 4.30907e-18)
(1.23243 0.213657 7.1222e-19)
(1.24643 0.213766 -1.3624e-18)
(0.00797397 -0.00132015 3.55288e-18)
(0.0532021 -0.00507519 -2.66708e-18)
(0.128016 -0.00211282 8.58697e-19)
(0.229537 0.00695742 -8.72361e-20)
(0.354043 0.0231691 4.52954e-18)
(0.495342 0.046478 -3.87921e-19)
(0.644544 0.0754855 -1.50931e-18)
(0.790908 0.107587 3.82837e-18)
(0.923801 0.139464 3.63168e-19)
(1.03508 0.16793 1.58728e-18)
(1.1207 0.190721 -3.18976e-18)
(1.18087 0.206886 9.02357e-20)
(1.21904 0.21651 -1.30969e-18)
(1.24029 0.22115 -2.14151e-19)
(1.24984 0.220081 -7.66959e-19)
(0.0116731 -0.002058 -9.37802e-19)
(0.0652463 -0.00611249 2.8494e-18)
(0.149283 -0.00188938 1.74002e-18)
(0.260279 0.00953622 1.40159e-18)
(0.393505 0.0288601 -7.21185e-19)
(0.541452 0.0555243 -3.15347e-19)
(0.693926 0.0874869 2.06141e-18)
(0.839413 0.121557 -1.61279e-18)
(0.967464 0.154098 5.1734e-19)
(1.07105 0.181984 -2.68991e-18)
(1.14773 0.203307 1.83568e-19)
(1.19924 0.217577 3.9694e-19)
(1.23009 0.225332 -5.40249e-19)
(1.2458 0.228289 -3.15121e-18)
(1.25162 0.226132 1.24438e-18)
(0.0157809 -0.00269657 -1.71466e-18)
(0.0783236 -0.00676216 -2.2494e-18)
(0.171976 -0.000931077 1.23546e-18)
(0.292516 0.0131817 -1.50207e-19)
(0.434089 0.0358474 -1.92012e-18)
(0.587811 0.0659064 -8.89411e-20)
(0.742289 0.10063 -1.43453e-18)
(0.885534 0.136285 -2.90972e-18)
(1.00765 0.169038 -1.18815e-18)
(1.10298 0.195954 1.11236e-18)
(1.17075 0.215562 1.01362e-18)
(1.21411 0.227848 -9.37569e-20)
(1.23838 0.233764 -1.51648e-18)
(1.24933 0.23514 2.64323e-18)
(1.25207 0.23199 7.72061e-19)
(0.0203046 -0.00320864 1.71477e-18)
(0.0924199 -0.00695547 1.34858e-20)
(0.196018 0.000850226 -2.99898e-18)
(0.326068 0.0179739 -5.7589e-20)
(0.475487 0.0441699 4.75585e-19)
(0.634002 0.0775963 8.57217e-19)
(0.789192 0.114821 -1.58129e-18)
(0.928928 0.151641 8.13157e-19)
(1.04421 0.184165 -3.83421e-20)
(1.13097 0.209765 9.12287e-19)
(1.19007 0.227468 -8.09333e-19)
(1.22587 0.23773 -2.22321e-18)
(1.24432 0.241865 -1.10199e-19)
(1.25123 0.241765 -1.28148e-18)
(1.25145 0.237713 -1.03528e-18)
(0.0252469 -0.00356562 7.12644e-19)
(0.107507 -0.00662298 -1.52866e-18)
(0.221311 0.00353873 1.53689e-18)
(0.36073 0.0239813 -5.01239e-19)
(0.51737 0.0538478 -2.72224e-19)
(0.679613 0.0905466 -7.84935e-19)
(0.834238 0.129953 1.2476e-18)
(0.969333 0.167502 8.22365e-19)
(1.07711 0.199378 -4.93618e-19)
(1.15519 0.223367 -1.39819e-18)
(1.20598 0.239026 -4.97528e-19)
(1.23488 0.247261 2.29081e-18)
(1.24824 0.24969 1.36694e-18)
(1.25177 0.24822 1.29521e-18)
(1.24996 0.243351 -3.75973e-19)
(0.0306055 -0.0037379 -4.42129e-19)
(0.123543 -0.00569584 1.61107e-19)
(0.247732 0.0072127 -6.47344e-19)
(0.396269 0.031259 -1.75679e-20)
(0.559397 0.0648821 -5.1281e-19)
(0.724249 0.104692 -7.83324e-19)
(0.877086 0.145916 2.64505e-19)
(1.00657 0.18375 -1.65689e-18)
(1.10637 0.214592 1.46317e-18)
(1.17583 0.236725 1.83741e-18)
(1.21881 0.25025 2.20903e-19)
(1.2415 0.256486 -2.00048e-18)
(1.25046 0.257292 -1.87912e-18)
(1.25118 0.254551 -1.36192e-18)
(1.24774 0.24894 5.09126e-19)
(0.0363726 -0.00369538 -1.46843e-18)
(0.14047 -0.00410722 4.14481e-19)
(0.275139 0.0119425 -3.16908e-19)
(0.432436 0.0398469 -7.85777e-21)
(0.601224 0.0772551 -1.38806e-19)
(0.767543 0.119954 -3.10616e-19)
(0.917454 0.162597 5.56932e-19)
(1.04053 0.200278 -3.39849e-19)
(1.13207 0.229739 -4.16298e-19)
(1.19315 0.249821 -8.20316e-19)
(1.22887 0.261161 -7.25176e-19)
(1.24603 0.265447 -3.32175e-19)
(1.25123 0.26472 1.17144e-18)
(1.24964 0.260798 -4.58504e-20)
(1.2449 0.254508 8.41958e-19)
(0.0425347 -0.00340796 6.0815e-19)
(0.158214 -0.00179369 1.08126e-18)
(0.30337 0.0177888 1.8611e-19)
(0.468963 0.049769 6.98084e-19)
(0.642512 0.0909313 1.53917e-18)
(0.809165 0.136242 5.6945e-19)
(0.955121 0.179882 2.13806e-18)
(1.07116 0.216993 1.11977e-18)
(1.15435 0.244767 7.17275e-19)
(1.20739 0.262648 1.61457e-18)
(1.23645 0.271787 4.89114e-19)
(1.24875 0.274188 8.8023e-19)
(1.25076 0.272014 4.31277e-19)
(1.24729 0.266992 1.8726e-19)
(1.24154 0.260072 5.89927e-19)
(0.0490728 -0.00284608 8.66194e-19)
(0.17669 0.00130333 -1.53666e-18)
(0.332244 0.0248008 -3.13018e-19)
(0.505575 0.0610323 7.27556e-19)
(0.682932 0.105859 -1.5625e-18)
(0.848823 0.153459 -6.45031e-19)
(0.989924 0.197664 -1.32085e-18)
(1.09848 0.23381 -4.16221e-20)
(1.17336 0.259637 -3.47564e-19)
(1.2188 0.275209 -1.36574e-18)
(1.24183 0.282157 1.02838e-18)
(1.24988 0.282745 7.87229e-20)
(1.24922 0.279207 -4.24191e-20)
(1.24425 0.273154 3.28462e-19)
(1.2377 0.265645 -7.22448e-19)
(0.0559616 -0.00198134 -5.47373e-20)
(0.195795 0.00523619 6.76513e-19)
(0.361566 0.0330153 1.91342e-19)
(0.541994 0.0736269 -1.02928e-18)
(0.722176 0.121971 6.95056e-19)
(0.886268 0.1715 2.28183e-19)
(1.02175 0.215839 -6.05756e-19)
(1.12254 0.250659 -2.89922e-19)
(1.1893 0.274321 -8.61333e-19)
(1.22764 0.287512 1.45412e-19)
(1.24525 0.292299 -9.96644e-19)
(1.24964 0.291151 -6.87335e-19)
(1.24677 0.286324 1.77135e-19)
(1.2406 0.2793 1.73507e-19)
(1.23343 0.271231 -2.99011e-19)
(0.0631701 -0.000787062 -3.27194e-19)