/*--------------------------------*- C++ -*----------------------------------*\
  =========                 |
  \\      /  F ield         | OpenFOAM: The Open Source CFD Toolbox
   \\    /   O peration     | Website:  https://openfoam.org
    \\  /    A nd           | Version:  7
     \\/     M anipulation  |
\*---------------------------------------------------------------------------*/
FoamFile
{
    version     2.0;
    format      ascii;
    class       volScalarField;
    location    "0.21875";
    object      p;
}
// * * * * * * * * * * * * * * * * * * * * * * * * * * * * * * * * * * * * * //

dimensions      [0 2 -2 0 0 0 0];

internalField   nonuniform List<scalar> 
10000
(
1.76361e-09
2.85459e-05
5.89997e-05
7.53958e-05
7.50968e-05
6.47902e-05
4.87107e-05
3.00217e-05
1.11057e-05
-6.42619e-06
-2.1389e-05
-3.28239e-05
-3.9936e-05
-4.21577e-05
-3.91166e-05
-3.05213e-05
-1.61482e-05
4.09777e-06
3.01998e-05
6.21517e-05
0.000100023
0.000143868
0.00019363
0.000249186
0.00031045
0.000377399
0.000450015
0.000528231
0.000611947
0.000701089
0.000795617
0.000895496
0.00100064
0.00111094
0.00122628
0.00134658
0.00147178
0.00160183
0.00173658
0.00187587
0.00201949
0.00216728
0.00231908
0.00247474
0.00263407
0.00279682
0.00296268
0.00313136
0.00330256
0.00347601
0.00365143
0.00382851
0.00400689
0.00418616
0.00436589
0.00454565
0.00472503
0.00490361
0.00508095
0.0052566
0.00543005
0.00560075
0.00576815
0.00593169
0.00609085
0.00624511
0.006394
0.00653706
0.00667379
0.00680374
0.00692644
0.00704145
0.00714836
0.00724683
0.00733655
0.00741729
0.00748888
0.00755117
0.00760407
0.00764754
0.00768161
0.00770636
0.00772195
0.00772859
0.00772659
0.00771636
0.00769842
0.00767337
0.00764195
0.00760502
0.00756358
0.0075188
0.00747201
0.00742479
0.007379
0.00733685
0.00730086
0.00727391
0.00725926
0.00725773
3.54407e-05
6.18925e-05
8.50102e-05
9.76524e-05
9.96769e-05
9.38761e-05
8.31983e-05
7.016e-05
5.66555e-05
4.41915e-05
3.39134e-05
2.67271e-05
2.33399e-05
2.42683e-05
2.992e-05
4.06555e-05
5.67449e-05
7.83085e-05
0.000105376
0.000138003
0.000176273
0.000220212
0.000269769
0.000324882
0.000385534
0.000451733
0.000523443
0.000600561
0.00068299
0.000770692
0.000863674
0.000961906
0.00106529
0.00117368
0.00128696
0.00140508
0.00152798
0.00165561
0.00178783
0.00192444
0.00206524
0.00221007
0.00235878
0.00251124
0.00266724
0.00282651
0.00298874
0.00315365
0.00332095
0.00349039
0.0036617
0.00383456
0.00400861
0.00418344
0.00435863
0.00453378
0.00470848
0.00488234
0.00505495
0.00522585
0.00539454
0.0055605
0.00572318
0.00588208
0.00603667
0.00618649
0.00633109
0.00647002
0.00660283
0.00672909
0.00684836
0.00696023
0.00706432
0.0071603
0.00724791
0.00732695
0.00739727
0.00745876
0.00751137
0.00755507
0.0075899
0.00761597
0.00763344
0.00764256
0.00764364
0.00763711
0.00762349
0.00760339
0.00757752
0.00754671
0.00751194
0.0074743
0.00743505
0.00739557
0.00735749
0.00732261
0.00729286
0.00727034
0.00725763
0.00725614
9.73804e-05
0.00011173
0.000122861
0.000129062
0.000129183
0.000124199
0.000115863
0.000105816
9.55307e-05
8.62832e-05
7.91105e-05
7.48568e-05
7.41318e-05
7.73841e-05
8.50322e-05
9.74566e-05
0.000114902
0.000137483
0.000165302
0.00019849
0.000237125
0.000281177
0.000330585
0.000385349
0.000445524
0.00051113
0.0005821
0.000658312
0.000739684
0.000826221
0.000917945
0.00101482
0.00111672
0.0012235
0.00133508
0.00145139
0.00157241
0.00169806
0.00182818
0.00196256
0.00210103
0.00224343
0.00238963
0.0025395
0.00269279
0.00284925
0.00300855
0.00317043
0.00333461
0.00350088
0.00366895
0.0038385
0.00400915
0.0041805
0.00435215
0.00452369
0.00469476
0.00486499
0.00503394
0.00520119
0.00536622
0.00552853
0.00568758
0.00584288
0.00599396
0.00614037
0.00628168
0.00641746
0.00654728
0.00667073
0.00678738
0.00689684
0.00699876
0.00709286
0.00717887
0.00725661
0.00732596
0.00738683
0.0074392
0.00748306
0.00751845
0.00754548
0.00756434
0.00757527
0.00757862
0.0075748
0.00756433
0.00754781
0.00752594
0.00749951
0.00746943
0.00743673
0.00740254
0.00736814
0.00733488
0.00730428
0.0072779
0.00725736
0.00724472
0.00724141
0.000166036
0.000167066
0.000167817
0.000166831
0.000162928
0.000156436
0.000148179
0.000139199
0.00013056
0.000123193
0.000117985
0.000115668
0.000116759
0.000121683
0.000130867
0.00014464
0.000163164
0.000186554
0.00021499
0.000248644
0.000287566
0.000331695
0.000380991
0.000435503
0.000495304
0.000560398
0.000630699
0.000706102
0.000786571
0.000872135
0.000962799
0.00105849
0.00115907
0.00126442
0.0013745
0.00148927
0.00160868
0.00173261
0.00186089
0.00199334
0.00212978
0.0022701
0.00241417
0.00256184
0.00271285
0.00286692
0.00302377
0.00318311
0.00334473
0.00350839
0.00367381
0.00384067
0.00400857
0.00417712
0.00434591
0.00451458
0.00468276
0.00485009
0.00501616
0.00518051
0.00534264
0.00550205
0.00565822
0.00581068
0.00595899
0.00610271
0.00624142
0.00637473
0.00650222
0.00662346
0.00673806
0.00684563
0.00694585
0.00703845
0.0071232
0.00719993
0.00726852
0.0073289
0.00738105
0.00742499
0.00746076
0.00748849
0.00750836
0.00752063
0.00752564
0.0075238
0.00751562
0.00750168
0.00748266
0.00745932
0.0074325
0.00740313
0.00737224
0.00734095
0.00731045
0.00728199
0.00725688
0.00723643
0.00722201
0.00721452
0.000231673
0.000222549
0.000214891
0.000207603
0.000199515
0.000190595
0.000181329
0.000172382
0.000164447
0.000158216
0.000154356
0.000153409
0.000155832
0.000162064
0.000172483
0.000187323
0.000206719
0.000230827
0.000259845
0.000293906
0.000333023
0.000377163
0.000426348
0.000480659
0.000540137
0.000604739
0.000674376
0.000748997
0.00082862
0.000913281
0.00100295
0.00109751
0.00119682
0.00130083
0.00140949
0.00152281
0.00164069
0.001763
0.00188954
0.00202016
0.00215472
0.00229311
0.00243521
0.00258084
0.00272974
0.00288162
0.00303622
0.00319328
0.0033526
0.00351394
0.00367701
0.00384148
0.00400695
0.00417303
0.00433934
0.00450551
0.0046712
0.00483603
0.0049996
0.00516145
0.00532108
0.00547798
0.00563167
0.00578169
0.00592761
0.00606902
0.00620553
0.00633672
0.0064622
0.00658156
0.0066944
0.00680036
0.00689913
0.00699044
0.0070741
0.00714995
0.00721788
0.00727782
0.00732975
0.00737371
0.00740976
0.00743801
0.00745867
0.00747199
0.0074783
0.00747802
0.00747163
0.0074597
0.00744287
0.00742187
0.00739748
0.00737053
0.00734193
0.00731266
0.00728374
0.00725621
0.00723114
0.0072096
0.00719209
0.00717876
0.000295336
0.000276783
0.000261808
0.000249033
0.000236793
0.000225091
0.000214219
0.000204563
0.000196605
0.000190854
0.000187741
0.000187665
0.000191051
0.000198282
0.00020962
0.00022523
0.000245287
0.000269999
0.000299522
0.000333907
0.000373141
0.000417249
0.000466322
0.000520442
0.0005796
0.000643715
0.000712721
0.000786622
0.000865469
0.000949278
0.00103798
0.00113146
0.00122959
0.00133233
0.0014397
0.00155166
0.00166811
0.00178888
0.00191379
0.00204272
0.00217554
0.00231218
0.00245248
0.00259625
0.00274322
0.00289312
0.0030457
0.00320075
0.00335805
0.00351736
0.0036784
0.0038408
0.00400417
0.00416813
0.00433231
0.00449637
0.00465996
0.0048227
0.00498418
0.00514392
0.00530144
0.00545624
0.00560786
0.00575584
0.00589978
0.00603927
0.00617394
0.00630339
0.0064272
0.00654499
0.00665637
0.00676099
0.00685855
0.0069488
0.00703154
0.00710663
0.00717398
0.00723353
0.00728525
0.00732918
0.00736538
0.007394
0.00741522
0.0074293
0.00743657
0.00743743
0.00743237
0.00742191
0.00740667
0.00738732
0.00736458
0.00733922
0.00731203
0.00728385
0.00725553
0.00722793
0.00720194
0.00717842
0.00715699
0.00713699
0.000356411
0.00032904
0.000307429
0.000289547
0.000273235
0.000258563
0.000245712
0.000234877
0.000226373
0.000220524
0.000217616
0.000217986
0.000221991
0.00022989
0.000241836
0.000257981
0.000278543
0.000303719
0.000333598
0.00036818
0.000407468
0.000451542
0.000500513
0.000554427
0.000613229
0.000676845
0.00074526
0.00081852
0.000896667
0.000979677
0.00106746
0.00115989
0.00125691
0.00135851
0.0014647
0.00157541
0.00169052
0.00180986
0.00193327
0.00206065
0.00219192
0.00232698
0.00246567
0.00260776
0.00275301
0.00290116
0.00305198
0.00320528
0.00336086
0.00351846
0.00367777
0.00383842
0.00400004
0.00416225
0.00432469
0.00448702
0.00464891
0.00480997
0.00496977
0.00512782
0.00528365
0.00543676
0.00558671
0.00573307
0.00587543
0.00601342
0.00614665
0.00627472
0.00639722
0.00651377
0.00662399
0.00672754
0.00682413
0.00691352
0.00699552
0.00707
0.00713686
0.00719606
0.00724756
0.00729141
0.00732767
0.00735649
0.00737806
0.00739263
0.00740052
0.00740214
0.00739794
0.00738845
0.00737423
0.0073559
0.00733412
0.00730959
0.00728302
0.00725511
0.00722658
0.00719812
0.00717047
0.00714432
0.00711849
0.00709156
0.000414068
0.000378524
0.0003507
0.000328018
0.00030776
0.000290003
0.00027494
0.000262624
0.000253189
0.000246815
0.000243736
0.000244227
0.000248513
0.000256732
0.00026901
0.000285524
0.000306466
0.000331957
0.000362022
0.000396668
0.000435958
0.000479997
0.00052886
0.000582531
0.000640941
0.00070406
0.000771928
0.000844606
0.000922102
0.00100435
0.00109124
0.0011827
0.00127869
0.00137926
0.00148437
0.00159393
0.00170779
0.0018258
0.00194785
0.00207385
0.00220374
0.00233739
0.00247464
0.00261525
0.00275898
0.0029056
0.00305493
0.00320676
0.0033609
0.00351708
0.00367497
0.0038342
0.0039944
0.00415521
0.00431627
0.00447727
0.00463785
0.00479761
0.00495611
0.00511287
0.0052674
0.00541923
0.00556792
0.00571307
0.00585426
0.00599113
0.00612329
0.00625034
0.00637188
0.00648751
0.00659686
0.0066996
0.00679546
0.0068842
0.00696563
0.00703962
0.00710608
0.00716496
0.00721625
0.00725997
0.0072962
0.00732507
0.00734679
0.0073616
0.00736983
0.00737185
0.00736812
0.00735913
0.00734542
0.00732756
0.00730615
0.00728182
0.0072552
0.00722691
0.00719753
0.00716761
0.00713779
0.00710861
0.00707818
0.00704443
0.000467586
0.000424349
0.000390683
0.000363495
0.00033943
0.000318588
0.000301177
0.000287142
0.000276474
0.000269297
0.000265804
0.00026614
0.000270387
0.000278638
0.000291046
0.00030778
0.000328952
0.00035459
0.000384694
0.00041932
0.000458576
0.000502551
0.000551253
0.000604627
0.000662626
0.000725276
0.000792649
0.000864785
0.000941648
0.00102315
0.00110919
0.00119975
0.00129483
0.00139446
0.00149857
0.00160706
0.00171977
0.00183658
0.0019574
0.00208218
0.00221086
0.00234328
0.00247925
0.00261856
0.00276099
0.00290633
0.00305441
0.00320506
0.00335804
0.00351308
0.00366984
0.00382796
0.00398707
0.00414681
0.00430687
0.0044669
0.00462653
0.00478537
0.00494295
0.0050988
0.00525242
0.00540337
0.0055512
0.00569552
0.00583595
0.00597208
0.00610354
0.00622992
0.00635082
0.00646584
0.00657461
0.00667681
0.00677216
0.00686043
0.00694145
0.00701508
0.00708123
0.00713985
0.00719091
0.00723446
0.00727057
0.00729937
0.00732106
0.00733589
0.00734418
0.0073463
0.00734268
0.00733379
0.00732014
0.00730227
0.00728073
0.00725608
0.00722888
0.00719967
0.00716894
0.00713713
0.00710479
0.00707238
0.00703735
0.0069971
0.000516198
0.000465779
0.000426609
0.000395125
0.000367428
0.000343581
0.000323736
0.000307799
0.00029572
0.000287576
0.000283448
0.000283351
0.000287305
0.00029541
0.000307808
0.000324601
0.000345811
0.000371425
0.000401468
0.000436034
0.000475224
0.000519069
0.000567528
0.000620551
0.000678142
0.000740366
0.000807286
0.000878898
0.00095513
0.0010359
0.00112115
0.0012109
0.00130517
0.00140394
0.00150713
0.00161463
0.00172628
0.00184201
0.00196176
0.00208549
0.00221311
0.00234446
0.00247934
0.00261755
0.00275888
0.00290318
0.00305028
0.0032
0.0033521
0.00350628
0.00366221
0.00381951
0.00397785
0.00413687
0.00429626
0.00445567
0.00461473
0.00477301
0.00493005
0.00508535
0.00523845
0.0053889
0.00553627
0.00568017
0.0058202
0.00595598
0.00608711
0.00621317
0.00633374
0.00644845
0.00655692
0.00665882
0.00675389
0.00684189
0.00692265
0.00699605
0.00706197
0.00712037
0.00717122
0.00721456
0.00725047
0.00727909
0.00730059
0.00731524
0.00732336
0.00732529
0.00732146
0.00731232
0.00729834
0.00728005
0.00725794
0.00723253
0.00720432
0.00717379
0.00714134
0.00710733
0.00707226
0.00703652
0.00699704
0.00695072
0.000559176
0.000502134
0.000457811
0.000422246
0.00039107
0.000364263
0.000341952
0.000324049
0.000310489
0.000301238
0.000296248
0.000295486
0.000298989
0.000306835
0.000319092
0.000335765
0.000356827
0.000382285
0.000412206
0.000446678
0.000485742
0.000529369
0.000577509
0.000630156
0.000687359
0.000749187
0.000815668
0.000886753
0.000962356
0.00104242
0.00112696
0.00121598
0.00130951
0.0014075
0.00150985
0.00161643
0.00172714
0.00184192
0.00196076
0.0020836
0.00221032
0.00234076
0.00247472
0.00261202
0.00275249
0.002896
0.00304237
0.00319143
0.00334291
0.0034965
0.00365187
0.00380867
0.00396655
0.00412518
0.00428425
0.00444339
0.00460222
0.0047603
0.00491715
0.00507229
0.00522525
0.00537559
0.00552288
0.00566674
0.00580677
0.00594257
0.00607371
0.00619979
0.00632037
0.00643506
0.0065435
0.00664535
0.00674035
0.00682828
0.00690894
0.00698222
0.007048
0.00710623
0.00715688
0.00719999
0.00723564
0.00726396
0.00728514
0.00729944
0.00730715
0.00730865
0.00730433
0.00729462
0.00727999
0.00726091
0.00723787
0.00721134
0.00718177
0.00714958
0.00711513
0.00707872
0.00704081
0.00700175
0.00695802
0.00690613
0.000595921
0.000532805
0.000483707
0.000444274
0.000409711
0.000379996
0.000355272
0.000335426
0.000320321
0.000309809
0.000303787
0.000302237
0.000305193
0.000312666
0.00032462
0.000341
0.000361784
0.000387016
0.000416769
0.00045108
0.000489923
0.000533244
0.000581022
0.000633297
0.000690135
0.000751577
0.000817604
0.000888144
0.000963131
0.00104255
0.00112644
0.00121482
0.00130768
0.00140494
0.00150651
0.00161226
0.00172215
0.00183614
0.00195422
0.00207631
0.00220229
0.00233197
0.0024652
0.0026018
0.00274164
0.0028846
0.00303051
0.00317915
0.00333027
0.00348355
0.00363865
0.00379523
0.00395297
0.00411154
0.00427062
0.00442984
0.00458878
0.00474701
0.00490403
0.00505937
0.00521257
0.00536318
0.0055108
0.00565501
0.00579541
0.00593158
0.0060631
0.00618953
0.00631043
0.0064254
0.00653408
0.00663613
0.00673128
0.00681931
0.00690004
0.00697332
0.00703904
0.00709716
0.00714763
0.00719049
0.00722582
0.00725376
0.00727449
0.00728827
0.00729539
0.00729622
0.00729115
0.0072806
0.00726502
0.00724485
0.00722056
0.0071926
0.00716139
0.0071273
0.00709066
0.00705171
0.00701091
0.00696861
0.00692089
0.00686392
0.000625975
0.000557247
0.000503709
0.000460605
0.000422776
0.00039028
0.00036324
0.000341455
0.000324708
0.000312824
0.000305704
0.000303322
0.000305645
0.000312597
0.000324081
0.00034004
0.000360481
0.000385449
0.000414973
0.000449025
0.000487545
0.000530495
0.000577898
0.000629818
0.0006863
0.000747339
0.000812884
0.000882869
0.000957265
0.0010361
0.00111942
0.00120722
0.00129946
0.00139605
0.0014969
0.00160193
0.00171112
0.00182446
0.00194193
0.00206342
0.0021888
0.00231791
0.00245058
0.0025867
0.00272616
0.00286881
0.0030145
0.00316299
0.003314
0.00346723
0.00362234
0.00377901
0.00393692
0.00409575
0.00425517
0.0044148
0.0045742
0.00473292
0.00489047
0.00504639
0.0052002
0.00535147
0.00549979
0.00564473
0.00578588
0.0059228
0.00605504
0.00618215
0.00630368
0.00641923
0.00652841
0.0066309
0.00672642
0.00681475
0.0068957
0.0069691
0.00703487
0.00709292
0.00714323
0.00718583
0.0072208
0.00724827
0.00726843
0.00728154
0.0072879
0.00728786
0.00728181
0.00727017
0.00725337
0.00723186
0.00720606
0.00717642
0.00714332
0.00710714
0.00706816
0.00702659
0.00698292
0.00693748
0.00688603
0.00682448
0.000648917
0.000574943
0.000517246
0.000470704
0.000429811
0.00039468
0.000365384
0.00034163
0.000323184
0.000309903
0.000301685
0.000298426
0.000300005
0.00030629
0.000317185
0.000332659
0.000352721
0.000377374
0.000406578
0.000440265
0.000478384
0.000520937
0.000567971
0.00061954
0.000675647
0.00073625
0.000801288
0.000870726
0.000944577
0.00102289
0.00110569
0.00119296
0.00128462
0.00138059
0.00148081
0.00158523
0.00169386
0.0018067
0.00192368
0.00204471
0.00216965
0.00229835
0.00243068
0.00256654
0.00270584
0.00284843
0.00299414
0.00314273
0.00329389
0.00344734
0.00360274
0.00375979
0.00391819
0.00407761
0.00423769
0.00439806
0.00455826
0.00471782
0.00487627
0.00503313
0.00518793
0.00534025
0.00548965
0.00563571
0.00577798
0.005916
0.00604931
0.00617742
0.00629989
0.0064163
0.00652625
0.00662943
0.00672555
0.00681436
0.00689568
0.00696935
0.00703525
0.0070933
0.00714348
0.00718581
0.00722037
0.0072473
0.00726679
0.00727909
0.00728452
0.00728343
0.0072762
0.00726324
0.007245
0.0072219
0.00719437
0.00716283
0.00712766
0.00708923
0.0070478
0.00700359
0.00695708
0.00690863
0.00685373
0.00678804
0.000664355
0.000585471
0.000523885
0.000474166
0.000430418
0.000392737
0.000361198
0.000335487
0.00031538
0.000300737
0.000291403
0.000287185
0.000287902
0.000293423
0.00030368
0.000318643
0.000338283
0.000362535
0.000391315
0.000424554
0.000462236
0.00050439
0.00055106
0.000602259
0.000657951
0.000718077
0.000782599
0.00085152
0.000924881
0.00100273
0.00108506
0.00117182
0.00126294
0.00135835
0.00145802
0.00156196
0.00167016
0.00178262
0.00189925
0.00201996
0.00214462
0.00227309
0.00240528
0.00254111
0.00268049
0.00282326
0.00296924
0.00311815
0.00326972
0.00342365
0.00357963
0.00373737
0.00389657
0.00405689
0.00421797
0.00437941
0.00454074
0.00470151
0.00486121
0.00501938
0.00517557
0.00532932
0.00548019
0.00562774
0.0057715
0.00591098
0.00604569
0.00617513
0.00629885
0.0064164
0.00652741
0.00663152
0.00672845
0.00681794
0.00689981
0.00697386
0.00703999
0.00709811
0.00714819
0.00719024
0.00722436
0.00725068
0.00726939
0.00728077
0.00728512
0.0072828
0.0072742
0.00725973
0.00723983
0.00721494
0.00718547
0.00715185
0.00711446
0.00707366
0.00702971
0.00698284
0.00693354
0.00688221
0.00682412
0.00675472
0.000671981
0.000588526
0.000523316
0.000470624
0.000424152
0.000383979
0.000350249
0.000322668
0.000300985
0.000285
0.000274487
0.000269214
0.000268998
0.000273728
0.000283337
0.000297759
0.0003169
0.00034065
0.00036892
0.000401669
0.000438909
0.000480668
0.000526957
0.000577745
0.000632972
0.000692595
0.000756611
0.000825058
0.000897978
0.000975392
0.00105727
0.00114355
0.00123417
0.0013291
0.00142833
0.0015319
0.0016398
0.001752
0.00186841
0.00198894
0.00211347
0.0022419
0.00237417
0.00251019
0.00264988
0.00279307
0.00293954
0.00308903
0.00324126
0.00339594
0.00355279
0.00371152
0.00387183
0.00403338
0.00419579
0.00435863
0.00452144
0.00468376
0.00484509
0.00500496
0.00516291
0.00531847
0.0054712
0.00562062
0.00576623
0.00590752
0.00604397
0.00617508
0.00630035
0.00641935
0.00653167
0.00663697
0.00673493
0.00682531
0.00690788
0.00698246
0.00704893
0.00710718
0.00715719
0.00719897
0.00723261
0.00725825
0.00727611
0.00728644
0.00728957
0.00728586
0.00727571
0.00725955
0.00723781
0.00721093
0.00717935
0.00714349
0.00710374
0.00706047
0.00701395
0.00696441
0.00691239
0.00685831
0.00679726
0.00672452
0.000671537
0.000583829
0.000515205
0.000459665
0.000410571
0.000368023
0.000332222
0.000302875
0.000279664
0.000262308
0.00025055
0.000244172
0.000243016
0.000246966
0.000255913
0.000269729
0.000288276
0.000311441
0.000339156
0.00037141
0.000408211
0.00044956
0.000495425
0.000545747
0.000600473
0.00065959
0.000723132
0.000791144
0.000863656
0.000940656
0.0010221
0.00110792
0.00119809
0.00129262
0.00139152
0.00149483
0.00160254
0.00171459
0.00183091
0.0019514
0.00207597
0.00220456
0.00233711
0.00247356
0.00261378
0.00275761
0.0029048
0.00305511
0.00320825
0.00336396
0.00352198
0.00368201
0.00384375
0.00400684
0.0041709
0.00433548
0.00450013
0.00466436
0.00482769
0.00498964
0.00514974
0.00530751
0.00546248
0.00561414
0.00576197
0.00590542
0.00604396
0.00617705
0.00630419
0.00642493
0.00653885
0.00664559
0.00674483
0.00683629
0.00691975
0.006995
0.0070619
0.00712036
0.00717034
0.00721185
0.00724499
0.0072699
0.00728681
0.00729598
0.00729776
0.00729252
0.00728066
0.00726263
0.00723887
0.00720983
0.00717597
0.00713773
0.0070955
0.00704966
0.00700052
0.00694832
0.00689363
0.00683692
0.00677313
0.00669737
0.000662735
0.000571054
0.000499182
0.000440906
0.000389339
0.000344591
0.000306849
0.000275785
0.000251032
0.00023227
0.000219252
0.000211789
0.00020972
0.000212887
0.000221119
0.000234245
0.000252122
0.000274659
0.000301815
0.000333579
0.000369931
0.00041083
0.000456211
0.000506019
0.000560228
0.000618861
0.000681964
0.000749571
0.000821685
0.000898271
0.000979282
0.00106468
0.00115447
0.00124869
0.00134737
0.00145053
0.00155814
0.00167015
0.00178649
0.00190709
0.00203188
0.00216082
0.00229387
0.00243095
0.00257192
0.0027166
0.00286475
0.00301611
0.00317043
0.00332745
0.00348692
0.00364856
0.00381204
0.00397701
0.00414305
0.00430971
0.00447655
0.00464306
0.00480877
0.00497319
0.00513583
0.00529621
0.0054538
0.00560808
0.0057585
0.00590447
0.00604544
0.00618085
0.00631018
0.00643297
0.00654878
0.00665723
0.00675798
0.00685074
0.00693526
0.00701132
0.00707878
0.00713752
0.00718751
0.00722876
0.00726138
0.00728551
0.00730139
0.0073093
0.00730961
0.00730269
0.00728897
0.0072689
0.00724295
0.0072116
0.00717531
0.00713453
0.00708971
0.00704123
0.00698942
0.00693456
0.00687725
0.00681801
0.00675164
0.00667315
0.000645268
0.000549873
0.000474948
0.000414097
0.000360226
0.000313418
0.000273808
0.000241028
0.000214711
0.000194558
0.000180333
0.000171835
0.000168863
0.0001712
0.00017864
0.000191008
0.000208182
0.000230093
0.0002567
0.000287965
0.000323829
0.000364216
0.00040906
0.000458329
0.000512033
0.00057021
0.000632899
0.000700109
0.000771817
0.000847984
0.00092858
0.0010136
0.00110309
0.00119708
0.00129563
0.00139873
0.00150634
0.00161842
0.0017349
0.00185576
0.00198095
0.00211044
0.00224418
0.00238209
0.00252402
0.00266975
0.00281907
0.00297173
0.00312748
0.0032861
0.00344733
0.00361087
0.00377642
0.00394358
0.00411194
0.00428104
0.00445042
0.00461959
0.00478807
0.00495535
0.00512094
0.00528431
0.00544493
0.00560221
0.00575559
0.00590445
0.0060482
0.00618627
0.00631813
0.00644328
0.00656128
0.00667171
0.00677422
0.0068685
0.00695427
0.0070313
0.00709943
0.00715855
0.00720859
0.0072496
0.00728167
0.00730498
0.00731976
0.00732633
0.00732504
0.00731631
0.00730057
0.00727831
0.00725002
0.00721618
0.0071773
0.00713387
0.00708633
0.00703513
0.0069806
0.00692306
0.00686316
0.00680148
0.00673269
0.00665169
0.000618908
0.000520049
0.000442304
0.000379059
0.000322993
0.00027418
0.000232727
0.000198249
0.000170408
0.000148933
0.000133568
0.000124056
0.000120144
0.000121587
0.000128178
0.000139764
0.000156243
0.000177544
0.000203598
0.000234327
0.000269641
0.000309458
0.000353735
0.000402469
0.000455689
0.000513431
0.00057571
0.000642509
0.000713795
0.000789542
0.000869752
0.000954457
0.00104371
0.00113757
0.00123606
0.00133917
0.00144687
0.00155911
0.00167587
0.00179714
0.0019229
0.00205312
0.00218775
0.00232668
0.00246974
0.00261674
0.00276745
0.00292164
0.0030791
0.00323959
0.00340286
0.00356863
0.00373655
0.00390623
0.00407724
0.00424914
0.00442143
0.00459365
0.00476529
0.00493584
0.00510478
0.00527155
0.00543558
0.00559626
0.00575297
0.00590509
0.006052
0.00619309
0.00632783
0.00645567
0.00657617
0.00668888
0.00679341
0.00688944
0.00697666
0.00705482
0.00712375
0.00718332
0.00723349
0.00727428
0.0073058
0.00732825
0.00734187
0.00734699
0.00734399
0.00733331
0.00731542
0.00729081
0.00726
0.00722353
0.00718191
0.00713568
0.00708531
0.00703128
0.00697398
0.00691374
0.00685127
0.00678719
0.00671609
0.00663277
0.000583543
0.000481435
0.000401055
0.000335543
0.000277333
0.000226535
0.000183281
0.000147185
0.000117915
9.51901e-05
7.8704e-05
6.8148e-05
6.32412e-05
6.37466e-05
6.94795e-05
8.03026e-05
9.61087e-05
0.000116799
0.000142265
0.000172397
0.000207099
0.000246312
0.000290019
0.000338237
0.000390993
0.0004483
0.000510148
0.00057651
0.000647359
0.000722698
0.000802564
0.000887015
0.000976111
0.0010699
0.00116839
0.00127158
0.00137944
0.00149195
0.00160912
0.00173095
0.00185744
0.00198857
0.00212425
0.00226436
0.00240875
0.0025572
0.00270951
0.00286548
0.0030249
0.00318754
0.00335316
0.00352145
0.00369206
0.00386459
0.0040386
0.00421364
0.00438924
0.00456489
0.00474009
0.00491432
0.00508702
0.00525759
0.00542544
0.00558992
0.00575037
0.00590614
0.00605659
0.00620109
0.00633905
0.00646995
0.00659327
0.00670856
0.0068154
0.00691341
0.00700229
0.00708176
0.00715163
0.00721176
0.00726212
0.00730272
0.0073337
0.00735525
0.00736764
0.00737123
0.00736642
0.00735366
0.00733345
0.00730633
0.00727285
0.00723358
0.00718907
0.00713989
0.00708657
0.00702961
0.00696945
0.00690647
0.00684142
0.00677498
0.00670165
0.00661613
0.00053908
0.000433859
0.000350938
0.000283234
0.00022294
0.000170218
0.00012525
8.76444e-05
5.70291e-05
3.30732e-05
1.54349e-05
3.78778e-06
-2.14102e-06
-2.56649e-06
2.33884e-06
1.24276e-05
2.75624e-05
4.76061e-05
7.24234e-05
0.000101899
0.000135954
0.000174557
0.000217709
0.000265427
0.000317716
0.000374564
0.000435947
0.000501842
0.000572251
0.00064721
0.00072678
0.000811033
0.000900026
0.000993791
0.00109234
0.00119566
0.00130376
0.00141664
0.00153435
0.00165688
0.00178426
0.00191643
0.00205332
0.00219477
0.00234064
0.00249074
0.00264487
0.00280285
0.00296449
0.00312956
0.00329781
0.00346892
0.00364253
0.00381823
0.00399559
0.00417415
0.00435342
0.00453291
0.00471209
0.00489041
0.00506729
0.00524209
0.00541417
0.00558286
0.00574747
0.0059073
0.00606169
0.00620999
0.00635158
0.00648589
0.00661239
0.00673058
0.00684001
0.00694028
0.00703104
0.007112
0.00718296
0.00724377
0.00729439
0.00733486
0.0073653
0.00738593
0.00739704
0.00739901
0.00739227
0.0073773
0.00735463
0.00732484
0.00728852
0.00724627
0.0071987
0.00714642
0.00709
0.00703
0.00696688
0.00690109
0.00683343
0.00676462
0.0066891
0.00660148
0.000485353
0.000377099
0.000291688
0.000221857
0.000159588
0.000105055
5.84727e-05
1.9425e-05
-1.25198e-05
-3.77334e-05
-5.65601e-05
-6.9309e-05
-7.62363e-05
-7.75516e-05
-7.34406e-05
-6.40829e-05
-4.96537e-05
-3.03158e-05
-6.20627e-06
2.25771e-05
5.59811e-05
9.39882e-05
0.000136599
0.000183811
0.000235605
0.000291952
0.000352831
0.000418243
0.000488224
0.000562836
0.000642157
0.000726256
0.000815178
0.000908951
0.00100759
0.0011111
0.00121952
0.00133288
0.00145123
0.00157461
0.001703
0.00183635
0.00197456
0.0021175
0.00226501
0.00241693
0.00257309
0.00273332
0.00289743
0.00306519
0.00323634
0.00341056
0.00358749
0.0037667
0.00394776
0.0041302
0.00431354
0.00449728
0.00468085
0.00486369
0.00504516
0.00522462
0.00540137
0.00557471
0.0057439
0.00590823
0.006067
0.00621952
0.00636515
0.00650328
0.00663332
0.00675475
0.00686708
0.00696988
0.00706277
0.00714543
0.00721765
0.00727927
0.00733024
0.00737062
0.00740054
0.00742023
0.00743002
0.00743028
0.00742149
0.00740417
0.00737889
0.00734625
0.00730691
0.0072615
0.0072107
0.00715514
0.00709546
0.00703226
0.00696608
0.00689739
0.00682705
0.00675584
0.00667814
0.00658845
0.000422146
0.000310952
0.000223124
0.000151255
8.71284e-05
3.08924e-05
-1.72527e-05
-5.77458e-05
-9.10481e-05
-0.00011754
-0.000137548
-0.00015136
-0.000159235
-0.000161403
-0.000158086
-0.000149496
-0.000135831
-0.000117253
-9.38838e-05
-6.57957e-05
-3.30286e-05
4.39561e-06
4.64577e-05
9.31301e-05
0.000144379
0.000200177
0.000260525
0.000325454
0.000395029
0.000469329
0.000548432
0.000632396
0.000721263
0.000815061
0.000913817
0.00101757
0.00112639
0.00124032
0.00135944
0.00148376
0.00161327
0.00174789
0.00188754
0.00203209
0.00218139
0.00233531
0.0024937
0.0026564
0.00282321
0.00299392
0.00316825
0.00334588
0.00352642
0.00370947
0.00389458
0.00408129
0.00426909
0.00445748
0.00464587
0.00483366
0.00502018
0.00520473
0.0053866
0.00556503
0.00573927
0.00590857
0.00607217
0.00622937
0.00637948
0.00652184
0.00665582
0.00678087
0.00689643
0.00700206
0.00709734
0.00718193
0.00725559
0.00731817
0.0073696
0.00740996
0.00743938
0.00745812
0.00746651
0.00746499
0.00745403
0.00743421
0.00740615
0.00737049
0.00732792
0.00727916
0.00722491
0.00716588
0.00710276
0.00703621
0.00696682
0.0068951
0.00682199
0.00674831
0.00666838
0.00657664
0.000349287
0.000235282
0.000145145
7.13233e-05
5.40543e-06
-5.2495e-05
-0.000102206
-0.000144173
-0.000178845
-0.000206588
-0.000227723
-0.000242543
-0.000251331
-0.000254357
-0.000251873
-0.000244108
-0.000231257
-0.000213466
-0.000190835
-0.000163427
-0.000131288
-9.44575e-05
-5.29812e-05
-6.9026e-06
4.37459e-05
9.89579e-05
0.000158762
0.00022322
0.000292411
0.000366417
0.00044531
0.00052914
0.00061795
0.000711781
0.000810687
0.00091474
0.00102402
0.00113862
0.00125857
0.00138392
0.00151462
0.00165061
0.00179179
0.00193806
0.00208929
0.00224538
0.00240619
0.00257156
0.00274131
0.00291521
0.00309298
0.00327428
0.00345875
0.00364596
0.00383548
0.00402683
0.0042195
0.00441296
0.0046066
0.00479977
0.00499178
0.0051819
0.00536936
0.00555337
0.00573315
0.0059079
0.00607683
0.00623919
0.00639424
0.00654128
0.00667964
0.00680869
0.00692786
0.00703664
0.0071346
0.00722136
0.00729668
0.00736037
0.00741239
0.0074528
0.00748176
0.00749953
0.00750648
0.00750307
0.00748983
0.00746736
0.00743632
0.00739744
0.00735144
0.00729909
0.00724118
0.00717846
0.00711169
0.00704159
0.0069688
0.0068939
0.00681789
0.00674164
0.00665942
0.00656559
0.000266673
0.000149977
5.76278e-05
-1.81042e-05
-8.58156e-05
-0.000145395
-0.000196684
-0.000240118
-0.00027612
-0.000305052
-0.000327257
-0.000343059
-0.000352773
-0.000356698
-0.000355101
-0.000348206
-0.000336189
-0.000319178
-0.000297268
-0.000270531
-0.000239034
-0.000202841
-0.00016201
-0.000116585
-6.65813e-05
-1.19763e-05
4.72852e-05
0.000111282
0.000180097
0.000253806
0.000332473
0.000416149
0.000504889
0.000598759
0.000697843
0.00080224
0.000912053
0.00102736
0.00114823
0.00127465
0.00140659
0.001544
0.00168679
0.00183488
0.00198818
0.00214658
0.00230998
0.00247822
0.00265111
0.00282843
0.00300988
0.00319515
0.00338384
0.00357554
0.00376982
0.00396619
0.00416413
0.00436308
0.0045624
0.00476141
0.00495938
0.00515554
0.00534908
0.00553919
0.00572502
0.00590574
0.00608053
0.00624856
0.00640906
0.00656127
0.00670445
0.00683794
0.00696111
0.00707341
0.00717436
0.00726358
0.00734078
0.00740578
0.00745852
0.00749908
0.00752761
0.00754441
0.00754987
0.00754448
0.00752881
0.00750352
0.00746932
0.00742699
0.00737732
0.00732115
0.00725932
0.00719266
0.00712199
0.0070481
0.00697171
0.00689344
0.00681435
0.0067354
0.00665079
0.0065548
0.000174205
5.48788e-05
-3.96378e-05
-0.000117278
-0.000186806
-0.000248076
-0.000300914
-0.000345758
-0.000383027
-0.000413101
-0.000436359