/*--------------------------------*- C++ -*----------------------------------*\
  =========                 |
  \\      /  F ield         | OpenFOAM: The Open Source CFD Toolbox
   \\    /   O peration     | Website:  https://openfoam.org
    \\  /    A nd           | Version:  7
     \\/     M anipulation  |
\*---------------------------------------------------------------------------*/
FoamFile
{
    version     2.0;
    format      ascii;
    class       surfaceScalarField;
    location    "0.21875";
    object      phi;
}
// * * * * * * * * * * * * * * * * * * * * * * * * * * * * * * * * * * * * * //

dimensions      [0 3 -1 0 0 0 0];

internalField   nonuniform List<scalar> 
19800
(
5.98489e-11
-5.98463e-11
1.17996e-10
-5.81506e-11
1.53028e-10
-3.50357e-11
1.21626e-10
3.14092e-11
1.59183e-11
1.05707e-10
-1.66558e-10
1.82472e-10
-4.23312e-10
2.56753e-10
-7.48806e-10
3.25494e-10
-1.13651e-09
3.87709e-10
-1.57952e-09
4.42993e-10
-2.07088e-09
4.9137e-10
-2.60423e-09
5.33346e-10
-3.1734e-09
5.69168e-10
-3.77253e-09
5.99131e-10
-4.39639e-09
6.23858e-10
-5.04037e-09
6.43982e-10
-5.70022e-09
6.59849e-10
-6.372e-09
6.71782e-10
-7.05228e-09
6.80283e-10
-7.73811e-09
6.85822e-10
-8.42679e-09
6.88672e-10
-9.11581e-09
6.89016e-10
-9.80292e-09
6.87106e-10
-1.04862e-08
6.83268e-10
-1.11639e-08
6.77761e-10
-1.18346e-08
6.70704e-10
-1.24968e-08
6.62152e-10
-1.3149e-08
6.52204e-10
-1.379e-08
6.41004e-10
-1.44186e-08
6.28655e-10
-1.50338e-08
6.15185e-10
-1.56344e-08
6.00594e-10
-1.62193e-08
5.84883e-10
-1.67874e-08
5.68073e-10
-1.73376e-08
5.50183e-10
-1.78688e-08
5.31216e-10
-1.83799e-08
5.11136e-10
-1.88698e-08
4.89891e-10
-1.93373e-08
4.67445e-10
-1.9781e-08
4.43793e-10
-2.02e-08
4.1894e-10
-2.05929e-08
3.92871e-10
-2.09584e-08
3.65553e-10
-2.12954e-08
3.36948e-10
-2.16024e-08
3.07027e-10
-2.18782e-08
2.75791e-10
-2.21214e-08
2.43262e-10
-2.23309e-08
2.09473e-10
-2.25054e-08
1.74451e-10
-2.26436e-08
1.38209e-10
-2.27443e-08
1.00767e-10
-2.28065e-08
6.21637e-11
-2.2829e-08
2.24681e-11
-2.28107e-08
-1.82276e-11
-2.27509e-08
-5.98169e-11
-2.26487e-08
-1.02189e-10
-2.25035e-08
-1.4523e-10
-2.23147e-08
-1.88815e-10
-2.20819e-08
-2.3281e-10
-2.18048e-08
-2.77062e-10
-2.14834e-08
-3.21392e-10
-2.11178e-08
-3.65598e-10
-2.07084e-08
-4.09457e-10
-2.02556e-08
-4.52737e-10
-1.97604e-08
-4.95205e-10
-1.92238e-08
-5.36631e-10
-1.8647e-08
-5.76771e-10
-1.80316e-08
-6.15368e-10
-1.73795e-08
-6.52151e-10
-1.66926e-08
-6.86839e-10
-1.59735e-08
-7.19144e-10
-1.52247e-08
-7.48771e-10
-1.44493e-08
-7.75419e-10
-1.36505e-08
-7.98796e-10
-1.28319e-08
-8.18624e-10
-1.19973e-08
-8.34635e-10
-1.11507e-08
-8.4656e-10
-1.02966e-08
-8.54128e-10
-9.43949e-09
-8.57081e-10
-8.58431e-09
-8.55178e-10
-7.73612e-09
-8.48194e-10
-6.90021e-09
-8.35912e-10
-6.08208e-09
-8.18123e-10
-5.28743e-09
-7.94642e-10
-4.52212e-09
-7.65313e-10
-3.79211e-09
-7.30006e-10
-3.1035e-09
-6.88613e-10
-2.46245e-09
-6.41053e-10
-1.87516e-09
-5.87293e-10
-1.3478e-09
-5.27367e-10
-8.86401e-10
-4.61403e-10
-4.96744e-10
-3.89657e-10
-1.8413e-10
-3.12613e-10
4.70489e-11
-2.31177e-10
1.94088e-10
-1.47038e-10
2.57291e-10
-6.32045e-11
2.4244e-10
1.485e-11
1.65628e-10
7.68248e-11
6.24149e-11
1.03245e-10
6.24457e-11
1.0505e-10
-1.649e-10
1.70408e-10
-1.23505e-10
1.11835e-10
2.35302e-11
-1.03552e-10
2.46788e-10
-5.02232e-10
5.04393e-10
-1.09134e-09
7.71582e-10
-1.86665e-09
1.03206e-09
-2.81806e-09
1.27691e-09
-3.93171e-09
1.50135e-09
-5.19181e-09
1.70311e-09
-6.58221e-09
1.88177e-09
-8.08672e-09
2.03786e-09
-9.6897e-09
2.17215e-09
-1.13764e-08
2.28587e-09
-1.31332e-08
2.38065e-09
-1.49473e-08
2.45811e-09
-1.68071e-08
2.51964e-09
-1.8702e-08
2.56668e-09
-2.06224e-08
2.60073e-09
-2.25597e-08
2.62314e-09
-2.45061e-08
2.63504e-09
-2.64545e-08
2.63741e-09
-2.83986e-08
2.63122e-09
-3.03328e-08
2.61742e-09
-3.22518e-08
2.59676e-09
-3.41509e-08
2.56982e-09
-3.60258e-08
2.53707e-09
-3.78726e-08
2.49894e-09
-3.96874e-08
2.45582e-09
-4.14667e-08
2.40799e-09
-4.32072e-08
2.35565e-09
-4.49055e-08
2.2989e-09
-4.65584e-08
2.23781e-09
-4.81628e-08
2.17244e-09
-4.97154e-08
2.10283e-09
-5.12132e-08
2.02896e-09
-5.26528e-08
1.95076e-09
-5.4031e-08
1.86814e-09
-5.53446e-08
1.78103e-09
-5.65902e-08
1.68937e-09
-5.77643e-08
1.5931e-09
-5.88637e-08
1.49217e-09
-5.98846e-08
1.3865e-09
-6.08237e-08
1.27603e-09
-6.16774e-08
1.16072e-09
-6.24422e-08
1.04057e-09
-6.31145e-08
9.15623e-10
-6.3691e-08
7.85952e-10
-6.41682e-08
6.51644e-10
-6.45428e-08
5.12812e-10
-6.48116e-08
3.69603e-10
-6.49717e-08
2.22215e-10
-6.50201e-08
7.09038e-11
-6.49543e-08
-8.4018e-11
-6.47719e-08
-2.42188e-10
-6.44709e-08
-4.032e-10
-6.40495e-08
-5.66608e-10
-6.35064e-08
-7.3192e-10
-6.28407e-08
-8.98586e-10
-6.20517e-08
-1.066e-09
-6.11396e-08
-1.23349e-09
-6.01049e-08
-1.40033e-09
-5.89486e-08
-1.56574e-09
-5.76724e-08
-1.7289e-09
-5.62787e-08
-1.88893e-09
-5.47704e-08
-2.04494e-09
-5.31512e-08
-2.196e-09
-5.14254e-08
-2.34113e-09
-4.95982e-08
-2.47932e-09
-4.76756e-08
-2.60952e-09
-4.5664e-08
-2.73067e-09
-4.35711e-08
-2.8417e-09
-4.1405e-08
-2.94154e-09
-3.91747e-08
-3.02912e-09
-3.68899e-08
-3.10337e-09
-3.45613e-08
-3.16326e-09
-3.22001e-08
-3.2078e-09
-2.98182e-08
-3.23598e-09
-2.74284e-08
-3.24687e-09
-2.5044e-08
-3.23957e-09
-2.2679e-08
-3.21324e-09
-2.03477e-08
-3.16712e-09
-1.80654e-08
-3.1005e-09
-1.58472e-08
-3.01276e-09
-1.37092e-08
-2.90337e-09
-1.16672e-08
-2.77195e-09
-9.73765e-09
-2.61822e-09
-7.93663e-09
-2.44208e-09
-6.28025e-09
-2.24368e-09
-4.78418e-09
-2.02344e-09
-3.46331e-09
-1.78227e-09
-2.33124e-09
-1.52173e-09
-1.39944e-09
-1.24441e-09
-6.76094e-10
-9.54515e-10
-1.64203e-10
-6.5892e-10
1.41407e-10
-3.68813e-10
2.58637e-10
-1.02405e-10
2.24396e-10
1.11003e-10
1.02888e-10
2.24668e-10
1.65353e-10
4.75637e-11
-2.12468e-10
1.46895e-11
-9.0639e-11
-2.15266e-10
2.53488e-10
-6.88866e-10
7.20384e-10
-1.43328e-09
1.2488e-09
-2.45663e-09
1.79493e-09
-3.75451e-09
2.32994e-09
-5.31373e-09
2.83613e-09
-7.11589e-09
3.30352e-09
-9.13958e-09
3.72679e-09
-1.1362e-08
4.10416e-09
-1.37598e-08
4.43566e-09
-1.63102e-08
4.72261e-09
-1.89916e-08
4.9672e-09
-2.17831e-08
5.17217e-09
-2.46654e-08
5.34041e-09
-2.76206e-08
5.47485e-09
-3.06324e-08
5.57842e-09
-3.36856e-08
5.65399e-09
-3.67667e-08
5.70422e-09
-3.98632e-08
5.73151e-09
-4.29638e-08
5.73802e-09
-4.60584e-08
5.72581e-09
-4.91377e-08
5.69674e-09
-5.21933e-08
5.65236e-09
-5.52174e-08
5.59398e-09
-5.8203e-08
5.52269e-09
-6.11435e-08
5.43944e-09
-6.40327e-08
5.34503e-09
-6.68648e-08
5.24007e-09
-6.96342e-08
5.12502e-09
-7.23355e-08
5.00017e-09
-7.49634e-08
4.86574e-09
-7.75128e-08
4.72185e-09
-7.99785e-08
4.56858e-09
-8.23555e-08
4.40592e-09
-8.46385e-08
4.23378e-09
-8.68224e-08
4.05203e-09
-8.89019e-08
3.86056e-09
-9.08718e-08
3.65924e-09
-9.27267e-08
3.44796e-09
-9.44611e-08
3.2266e-09
-9.60697e-08
2.99505e-09
-9.75469e-08
2.75323e-09
-9.88872e-08
2.5011e-09
-1.00085e-07
2.23867e-09
-1.01136e-07
1.96604e-09
-1.02033e-07
1.68336e-09
-1.02772e-07
1.39084e-09
-1.03348e-07
1.08876e-09
-1.03756e-07
7.77472e-10
-1.03991e-07
4.57435e-10
-1.0405e-07
1.29205e-10
-1.03927e-07
-2.06555e-10
-1.0362e-07
-5.49077e-10
-1.03126e-07
-8.97486e-10
-1.02442e-07
-1.25081e-09
-1.01566e-07
-1.60796e-09
-1.00497e-07
-1.96776e-09
-9.92336e-08
-2.32889e-09
-9.77772e-08
-2.68992e-09
-9.61282e-08
-3.04931e-09
-9.42886e-08
-3.40541e-09
-9.2261e-08
-3.75646e-09
-9.00493e-08
-4.10063e-09
-8.76583e-08
-4.43597e-09
-8.50938e-08
-4.76049e-09
-8.23628e-08
-5.07209e-09
-7.94735e-08
-5.36861e-09
-7.64352e-08
-5.64786e-09
-7.32582e-08
-5.90758e-09
-6.99544e-08
-6.1455e-09
-6.65366e-08
-6.35934e-09
-6.30189e-08
-6.54684e-09
-5.94165e-08
-6.70575e-09
-5.57459e-08
-6.83387e-09
-5.20247e-08
-6.92905e-09
-4.82714e-08
-6.98922e-09
-4.45059e-08
-7.01239e-09
-4.07488e-08
-6.9967e-09
-3.70216e-08
-6.94039e-09
-3.33469e-08
-6.84189e-09
-2.97476e-08
-6.69978e-09
-2.62475e-08
-6.51284e-09
-2.28708e-08
-6.2801e-09
-1.96419e-08
-6.00086e-09
-1.65853e-08
-5.67478e-09
-1.37254e-08
-5.30196e-09
-1.10861e-08
-4.88304e-09
-8.69009e-09
-4.41944e-09
-6.55871e-09
-3.91365e-09
-4.71076e-09
-3.36967e-09
-3.16143e-09
-2.79375e-09
-1.92052e-09
-2.19543e-09
-9.9011e-10
-1.58932e-09
-3.61199e-10
-9.97704e-10
-9.1267e-12
-4.54442e-10
1.12263e-10
-1.03666e-11
7.6675e-11
2.60214e-10
2.4203e-10
-2.27524e-11
-1.89706e-10
-2.23037e-10
1.09637e-10
-6.93141e-10
7.23589e-10
-1.48106e-09
1.50831e-09
-2.61219e-09
2.37993e-09
-4.09408e-09
3.27682e-09
-5.92087e-09
4.15673e-09
-8.07736e-09
4.99262e-09
-1.05419e-08
5.76806e-09
-1.32891e-08
6.47399e-09
-1.62913e-08
7.10638e-09
-1.95202e-08
7.66451e-09
-2.29475e-08
8.14991e-09
-2.65458e-08
8.5656e-09
-3.02891e-08
8.91543e-09
-3.41524e-08
9.20374e-09
-3.81127e-08
9.43514e-09
-4.21486e-08
9.61427e-09
-4.62402e-08
9.74568e-09
-5.03697e-08
9.83365e-09
-5.45203e-08
9.88213e-09
-5.86771e-08
9.8948e-09
-6.28263e-08
9.87503e-09
-6.69554e-08
9.82586e-09
-7.10529e-08
9.74988e-09
-7.51083e-08
9.64933e-09
-7.91117e-08
9.52615e-09
-8.30543e-08
9.38198e-09
-8.69274e-08
9.21816e-09
-9.07231e-08
9.03577e-09
-9.44337e-08
8.8356e-09
-9.80517e-08
8.61823e-09
-1.0157e-07
8.38408e-09
-1.04982e-07
8.13343e-09
-1.0828e-07
7.86644e-09
-1.11457e-07
7.5831e-09
-1.14506e-07
7.28334e-09
-1.17421e-07
6.967e-09
-1.20195e-07
6.63393e-09
-1.22819e-07
6.28395e-09
-1.25288e-07
5.9169e-09
-1.27594e-07
5.53262e-09
-1.2973e-07
5.13097e-09
-1.31689e-07
4.71185e-09
-1.33463e-07
4.27524e-09
-1.35045e-07
3.82121e-09
-1.36429e-07
3.34993e-09
-1.37608e-07
2.86169e-09
-1.38574e-07
2.35688e-09
-1.39321e-07
1.83599e-09
-1.39843e-07
1.29969e-09
-1.40135e-07
7.48777e-10
-1.4019e-07
1.84214e-10
-1.40003e-07
-3.92857e-10
-1.39571e-07
-9.81117e-10
-1.3889e-07
-1.57907e-09
-1.37955e-07
-2.18505e-09
-1.36766e-07
-2.79719e-09
-1.3532e-07
-3.41345e-09
-1.33618e-07
-4.0316e-09
-1.31658e-07
-4.6492e-09
-1.29444e-07
-5.26365e-09
-1.26977e-07
-5.87213e-09
-1.24262e-07
-6.47169e-09
-1.21304e-07
-7.0592e-09
-1.18108e-07
-7.63137e-09
-1.14684e-07
-8.1848e-09
-1.1104e-07
-8.71594e-09
-1.07187e-07
-9.22117e-09
-1.03139e-07
-9.69675e-09
-9.89073e-08
-1.01389e-08
-9.4509e-08
-1.05438e-08
-8.99608e-08
-1.09076e-08
-8.52812e-08
-1.12264e-08
-8.04904e-08
-1.14965e-08
-7.561e-08
-1.17143e-08
-7.06631e-08
-1.1876e-08
-6.56741e-08
-1.19782e-08
-6.06689e-08
-1.20176e-08
-5.56744e-08
-1.19912e-08
-5.07188e-08
-1.18959e-08
-4.58314e-08
-1.17294e-08
-4.1042e-08
-1.14891e-08
-3.63814e-08
-1.11734e-08
-3.18807e-08
-1.07808e-08
-2.75714e-08
-1.03102e-08
-2.34846e-08
-9.76157e-09
-1.96512e-08
-9.13536e-09
-1.6101e-08
-8.43319e-09
-1.28624e-08
-7.65805e-09
-9.96127e-09
-6.81481e-09
-7.42003e-09
-5.91092e-09
-5.25633e-09
-4.95744e-09
-3.48109e-09
-3.97067e-09
-2.09614e-09
-2.9743e-09
-1.09106e-09
-2.00281e-09
-4.39376e-10
-1.10613e-09
-9.43244e-11
-3.55393e-10
1.64358e-11
1.49442e-10
2.58464e-10
-1.05018e-10
-8.46872e-11
-4.97177e-10
5.01806e-10
-1.24208e-09
1.46849e-09
-2.37768e-09
2.64391e-09
-3.92227e-09
3.92453e-09
-5.87904e-09
5.23359e-09
-8.23911e-09
6.5168e-09
-1.09846e-08
7.73808e-09
-1.4091e-08
8.87449e-09
-1.75298e-08
9.91282e-09
-2.12699e-08
1.08464e-08
-2.52788e-08
1.16734e-08
-2.95242e-08
1.23954e-08
-3.39744e-08
1.30158e-08
-3.85987e-08
1.35397e-08
-4.33679e-08
1.3973e-08
-4.82546e-08
1.43219e-08
-5.32333e-08
1.4593e-08
-5.82802e-08
1.47926e-08
-6.33734e-08
1.49268e-08
-6.84926e-08
1.50014e-08
-7.36195e-08
1.50217e-08
-7.87371e-08
1.49927e-08
-8.383e-08
1.49187e-08
-8.88837e-08
1.48036e-08
-9.38852e-08
1.46508e-08
-9.88223e-08
1.44632e-08
-1.03684e-07
1.42433e-08
-1.08458e-07
1.3993e-08
-1.13137e-07
1.37141e-08
-1.17709e-07
1.34077e-08
-1.22165e-07
1.30748e-08
-1.26497e-07
1.27162e-08
-1.30696e-07
1.23322e-08
-1.34753e-07
1.19232e-08
-1.38659e-07
1.14892e-08
-1.42406e-07
1.10302e-08
-1.45985e-07
1.0546e-08
-1.49388e-07
1.00365e-08
-1.52605e-07
9.50143e-09
-1.55629e-07
8.9406e-09
-1.5845e-07
8.35382e-09
-1.6106e-07
7.74094e-09
-1.6345e-07
7.10187e-09
-1.65611e-07
6.43665e-09
-1.67536e-07
5.74542e-09
-1.69214e-07
5.0285e-09
-1.70639e-07
4.28633e-09
-1.71801e-07
3.51954e-09
-1.72694e-07
2.72893e-09
-1.7331e-07
1.91552e-09
-1.73642e-07
1.08055e-09
-1.73683e-07
2.25508e-10
-1.73428e-07
-6.47879e-10
-1.72872e-07
-1.53761e-09
-1.72009e-07
-2.44143e-09
-1.70838e-07
-3.35681e-09
-1.69354e-07
-4.28096e-09
-1.67556e-07
-5.21078e-09
-1.65445e-07
-6.14293e-09
-1.63021e-07
-7.07375e-09
-1.60285e-07
-7.99932e-09
-1.57242e-07
-8.91546e-09
-1.53896e-07
-9.81773e-09
-1.50253e-07
-1.07014e-08
-1.46323e-07
-1.15617e-08
-1.42114e-07
-1.23935e-08
-1.37639e-07
-1.31914e-08
-1.3291e-07
-1.395e-08
-1.27943e-07
-1.46639e-08
-1.22754e-07
-1.53274e-08
-1.17363e-07
-1.59347e-08
-1.11791e-07
-1.64802e-08
-1.06059e-07
-1.69582e-08
-1.00192e-07
-1.73631e-08
-9.42173e-08
-1.76894e-08
-8.81616e-08
-1.79318e-08
-8.20547e-08
-1.80851e-08
-7.59277e-08
-1.81446e-08
-6.98132e-08
-1.81057e-08
-6.3745e-08
-1.79642e-08
-5.7758e-08
-1.77164e-08
-5.1888e-08
-1.73591e-08
-4.61717e-08
-1.68898e-08
-4.06458e-08
-1.63066e-08
-3.53475e-08
-1.56085e-08
-3.03135e-08
-1.47955e-08
-2.55799e-08
-1.3869e-08
-2.11811e-08
-1.2832e-08
-1.71497e-08
-1.16895e-08
-1.35151e-08
-1.04494e-08
-1.03027e-08
-9.12335e-09
-7.53206e-09
-7.72808e-09
-5.21548e-09
-6.28724e-09
-3.35571e-09
-4.83407e-09
-1.94342e-09
-3.4151e-09
-9.54422e-10
-2.09515e-09
-3.46723e-10
-9.63083e-10
-5.77044e-11
-1.39577e-10
2.00759e-10
-1.87779e-10
1.03087e-10
-7.80832e-10
1.09486e-09
-1.81629e-09
2.50394e-09
-3.31562e-09
4.14325e-09
-5.28667e-09
5.89557e-09
-7.7255e-09
7.67241e-09
-1.06184e-08
9.40966e-09
-1.39436e-08
1.10633e-08
-1.76736e-08
1.26046e-08
-2.17769e-08
1.40161e-08
-2.62192e-08
1.52887e-08
-3.0965e-08
1.64193e-08
-3.59787e-08
1.7409e-08
-4.12248e-08
1.82619e-08
-4.66693e-08
1.89842e-08
-5.22793e-08
1.9583e-08
-5.8024e-08
2.00665e-08
-6.38741e-08
2.04431e-08
-6.98027e-08
2.07211e-08
-7.57843e-08
2.09085e-08
-8.17959e-08
2.10129e-08
-8.78158e-08
2.10417e-08
-9.38245e-08
2.10013e-08
-9.98035e-08
2.08978e-08
-1.05736e-07
2.07363e-08
-1.11607e-07
2.05216e-08
-1.17401e-07
2.02576e-08
-1.23106e-07
1.99478e-08
-1.28708e-07
1.9595e-08
-1.34195e-07
1.92015e-08
-1.39557e-07
1.87691e-08
-1.44781e-07
1.82991e-08
-1.49858e-07
1.77927e-08
-1.54776e-07
1.72505e-08
-1.59526e-07
1.66729e-08
-1.64097e-07
1.60602e-08
-1.68479e-07
1.54123e-08
-1.72662e-07
1.47292e-08
-1.76636e-07
1.40107e-08
-1.80391e-07
1.32565e-08
-1.83917e-07
1.24665e-08
-1.87204e-07
1.16404e-08
-1.90241e-07
1.07781e-08
-1.93018e-07
9.87953e-09
-1.95527e-07
8.94485e-09
-1.97756e-07
7.97431e-09
-1.99695e-07
6.96838e-09
-2.01337e-07
5.92774e-09
-2.02671e-07
4.85329e-09
-2.03688e-07
3.74622e-09
-2.0438e-07
2.60798e-09
-2.0474e-07
1.44032e-09
-2.0476e-07
2.45348e-10
-2.04433e-07
-9.74506e-10
-2.03754e-07
-2.21645e-09
-2.02719e-07
-3.47733e-09
-2.01322e-07
-4.75363e-09
-1.99561e-07
-6.04145e-09
-1.97436e-07
-7.33651e-09
-1.94944e-07
-8.63414e-09
-1.92089e-07
-9.92929e-09
-1.88872e-07
-1.12165e-08
-1.85297e-07
-1.24901e-08
-1.81371e-07
-1.37438e-08
-1.77101e-07
-1.49712e-08
-1.72497e-07
-1.61656e-08
-1.67571e-07
-1.73199e-08
-1.62335e-07
-1.84268e-08
-1.56807e-07
-1.94789e-08
-1.51002e-07
-2.04686e-08
-1.44941e-07
-2.1388e-08
-1.38647e-07
-2.22294e-08
-1.32142e-07
-2.2985e-08
-1.25453e-07
-2.36469e-08
-1.18609e-07
-2.42076e-08
-1.11638e-07
-2.46595e-08
-1.04575e-07
-2.49953e-08
-9.7452e-08
-2.52081e-08
-9.03053e-08
-2.52913e-08
-8.3172e-08
-2.52389e-08
-7.60909e-08
-2.50453e-08
-6.91018e-08
-2.47055e-08
-6.22454e-08
-2.42155e-08
-5.55632e-08
-2.3572e-08
-4.9097e-08
-2.27728e-08
-4.28885e-08
-2.1817e-08
-3.69789e-08
-2.07051e-08
-3.14084e-08
-1.94395e-08
-2.62154e-08
-1.8025e-08
-2.14357e-08
-1.64692e-08
-1.71017e-08
-1.47834e-08
-1.32411e-08
-1.29839e-08
-9.87585e-09
-1.10934e-08
-7.02005e-09
-9.14304e-09
-4.67873e-09
-7.17538e-09
-2.8458e-09
-5.24803e-09
-1.50229e-09
-3.43867e-09
-6.14899e-10
-1.85048e-09
-1.35217e-10
-6.19257e-10
6.55433e-11
-2.66968e-10
3.70056e-10
-1.06043e-09
1.88832e-09
-2.38878e-09
3.83229e-09
-4.25535e-09
6.00982e-09
-6.65504e-09
8.29527e-09
-9.57484e-09
1.05922e-08
-1.29946e-08
1.28294e-08
-1.68878e-08
1.49565e-08
-2.12233e-08
1.694e-08
-2.59662e-08
1.87589e-08
-3.10793e-08
2.04018e-08
-3.65244e-08
2.18644e-08
-4.22628e-08
2.31474e-08
-4.82564e-08
2.42555e-08
-5.4468e-08
2.51958e-08
-6.08619e-08
2.59769e-08
-6.74043e-08
2.66089e-08
-7.4063e-08
2.71019e-08
-8.08081e-08
2.74662e-08
-8.76115e-08
2.77119e-08
-9.44473e-08
2.78487e-08
-1.01291e-07
2.78858e-08
-1.08122e-07
2.78315e-08
-1.14917e-07
2.76934e-08
-1.21659e-07
2.74783e-08
-1.2833e-07
2.71923e-08
-1.34913e-07
2.68406e-08
-1.41393e-07
2.64275e-08
-1.47755e-07
2.5957e-08
-1.53985e-07
2.54319e-08
-1.60071e-07
2.48547e-08
-1.65999e-07
2.42273e-08
-1.71757e-07
2.35513e-08
-1.77334e-07
2.28274e-08
-1.82718e-07
2.20565e-08
-1.87896e-07
2.12388e-08
-1.92859e-07
2.03744e-08
-1.97593e-07
1.94634e-08
-2.02087e-07
1.85054e-08
-2.06331e-07
1.75005e-08
-2.10313e-07
1.64483e-08
-2.14022e-07
1.53487e-08
-2.17445e-07
1.42016e-08
-2.20572e-07
1.30069e-08
-2.23393e-07
1.1765e-08
-2.25895e-07
1.04762e-08
-2.28067e-07
9.1413e-09
-2.29901e-07
7.76115e-09
-2.31385e-07
6.33703e-09
-2.32509e-07
4.87055e-09
-2.33265e-07
3.36367e-09
-2.33643e-07
1.81875e-09
-2.33636e-07
2.38584e-10
-2.33237e-07
-1.37359e-09
-2.3244e-07
-3.01408e-09
-2.31238e-07
-4.67873e-09
-2.29629e-07
-6.36289e-09
-2.27609e-07
-8.06143e-09
-2.25177e-07
-9.7687e-09
-2.22332e-07
-1.14786e-08
-2.19077e-07
-1.31844e-08
-2.15415e-07
-1.48792e-08
-2.11349e-07
-1.65552e-08
-2.06889e-07
-1.82044e-08
-2.02042e-07
-1.98184e-08
-1.96819e-07
-2.13884e-08
-1.91233e-07
-2.29052e-08
-1.85301e-07
-2.43593e-08
-1.79039e-07
-2.57409e-08
-1.72467e-07
-2.70401e-08
-1.65609e-07
-2.82468e-08
-1.58487e-07
-2.93508e-08
-1.5113e-07
-3.0342e-08
-1.43567e-07
-3.12103e-08
-1.35829e-07
-3.19457e-08
-1.2795e-07
-3.25385e-08
-1.19966e-07
-3.29794e-08
-1.11914e-07
-3.32595e-08
-1.03835e-07
-3.33703e-08
-9.57699e-08
-3.33041e-08
-8.77614e-08
-3.30538e-08
-7.98535e-08
-3.26134e-08
-7.20914e-08
-3.19777e-08
-6.45206e-08
-3.11429e-08
-5.71869e-08
-3.01065e-08
-5.01359e-08
-2.88679e-08
-4.34127e-08
-2.74283e-08
-3.70608e-08
-2.57914e-08
-3.11217e-08
-2.39641e-08
-2.56343e-08
-2.19566e-08
-2.06335e-08
-1.97842e-08
-1.61495e-08
-1.74679e-08
-1.22066e-08
-1.50364e-08
-8.82159e-09
-1.2528e-08
-6.00303e-09
-9.99394e-09
-3.74966e-09
-7.50139e-09
-2.04976e-09
-5.13857e-09
-8.80877e-10
-3.01936e-09
-2.10666e-10
-1.28947e-09
-1.45122e-10
-3.41526e-10
7.11582e-10
-1.32863e-09
2.87544e-09
-2.94422e-09
5.44787e-09
-5.17265e-09
8.23825e-09
-7.99501e-09
1.11176e-08
-1.13881e-08
1.39853e-08
-1.53239e-08
1.67653e-08
-1.97706e-08
1.94032e-08
-2.46923e-08
2.18618e-08
-3.00508e-08
2.41174e-08
-3.58057e-08
2.61568e-08
-4.19161e-08
2.79748e-08
-4.83407e-08
2.9572e-08
-5.50388e-08
3.09536e-08
-6.19707e-08
3.21277e-08
-6.90983e-08
3.31046e-08
-7.63851e-08
3.38957e-08
-8.37967e-08
3.45134e-08
-9.13005e-08
3.497e-08
-9.88662e-08
3.52776e-08
-1.06466e-07
3.54481e-08
-1.14072e-07
3.54924e-08
-1.21662e-07
3.5421e-08
-1.29211e-07
3.52431e-08
-1.367e-07
3.49672e-08
-1.44109e-07
3.46007e-08
-1.51418e-07
3.41501e-08
-1.58612e-07
3.36211e-08
-1.65673e-07
3.30183e-08
-1.72587e-07
3.23456e-08
-1.79338e-07
3.16061e-08
-1.85913e-07
3.08024e-08
-1.92298e-07
2.99361e-08
-1.9848e-07
2.90088e-08
-2.04444e-07
2.80213e-08
-2.1018e-07
2.69741e-08
-2.15673e-07
2.58674e-08
-2.20911e-07
2.47014e-08
-2.25881e-07
2.34759e-08
-2.30571e-07
2.21908e-08
-2.34969e-07
2.08459e-08
-2.39061e-07
1.9441e-08
-2.42836e-07
1.79762e-08
-2.46281e-07
1.64516e-08
-2.49383e-07
1.48675e-08
-2.52132e-07
1.32246e-08
-2.54514e-07
1.15238e-08
-2.56519e-07
9.76627e-09
-2.58136e-07
7.95379e-09
-2.59354e-07
6.08838e-09
-2.60163e-07
4.17259e-09
-2.60553e-07
2.20945e-09
-2.60517e-07
2.02548e-10
-2.60047e-07
-1.84401e-09
-2.59135e-07
-3.92553e-09
-2.57778e-07
-6.03673e-09
-2.55969e-07
-8.17172e-09
-2.53706e-07
-1.0324e-08
-2.50988e-07
-1.24865e-08
-2.47816e-07
-1.46513e-08
-2.4419e-07
-1.68103e-08
-2.40115e-07
-1.89543e-08
-2.35596e-07
-2.10739e-08
-2.30641e-07
-2.31589e-08
-2.25261e-07
-2.51987e-08
-2.19467e-07
-2.71822e-08
-2.13275e-07
-2.90978e-08
-2.067e-07
-3.09337e-08
-1.99764e-07
-3.26777e-08
-1.92487e-07
-3.43171e-08
-1.84894e-07
-3.58395e-08
-1.77012e-07
-3.72321e-08
-1.68872e-07
-3.84822e-08
-1.60505e-07
-3.95773e-08
-1.51946e-07
-4.05048e-08
-1.43232e-07
-4.12529e-08
-1.34401e-07
-4.18098e-08
-1.25496e-07
-4.21646e-08
-1.1656e-07
-4.23069e-08
-1.07637e-07
-4.22271e-08
-9.87736e-08
-4.19169e-08
-9.00183e-08
-4.13687e-08
-8.14193e-08
-4.05767e-08
-7.30257e-08
-3.95364e-08
-6.4887e-08
-3.82452e-08
-5.70521e-08
-3.67028e-08
-4.95691e-08
-3.49113e-08
-4.24845e-08
-3.2876e-08
-3.58428e-08
-3.06058e-08
-2.96852e-08
-2.81141e-08
-2.40495e-08
-2.542e-08
-1.89682e-08
-2.25491e-08
-1.44686e-08
-1.9536e-08
-1.05708e-08
-1.64258e-08
-7.28772e-09
-1.3277e-08
-4.62412e-09
-1.0165e-08
-2.57662e-09
-7.18607e-09
-1.13444e-09
-4.46154e-09
-2.81314e-10
-2.14259e-09
-4.26435e-10
-4.1099e-10
1.12257e-09
-1.58224e-09
4.04669e-09
-3.47424e-09
7.33987e-09
-6.05336e-09
1.08174e-08
-9.28666e-09
1.43509e-08
-1.314e-08
1.78386e-08
-1.75773e-08
2.12025e-08
-2.256e-08
2.43859e-08
-2.80477e-08
2.73494e-08
-3.39978e-08
3.00675e-08
-4.03669e-08
3.2526e-08
-4.71112e-08
3.47191e-08
-5.41869e-08
3.66477e-08
-6.15509e-08
3.83176e-08
-6.91613e-08
3.97381e-08
-7.69777e-08
4.0921e-08
-8.49617e-08
4.18797e-08
-9.30765e-08
4.26282e-08
-1.01288e-07
4.31811e-08
-1.09563e-07
4.35527e-08
-1.17871e-07
4.37568e-08
-1.26186e-07
4.38066e-08
-1.34479e-07
4.37142e-08
-1.42727e-07
4.34909e-08
-1.50906e-07
4.31468e-08
-1.58996e-07
4.26908e-08
-1.66977e-07
4.21308e-08
-1.7483e-07
4.14737e-08
-1.82536e-07
4.0725e-08
-1.9008e-07
3.98895e-08
-1.97445e-07
3.89713e-08
-2.04616e-07
3.79732e-08
-2.11578e-07
3.68977e-08
-2.18315e-07
3.57465e-08
-2.24815e-07
3.45207e-08
-2.31062e-07
3.32212e-08
-2.37043e-07
3.18483e-08
-2.42744e-07
3.04022e-08
-2.48151e-07
2.88829e-08
-2.5325e-07
2.72904e-08
-2.58029e-07
2.56245e-08
-2.62473e-07
2.38851e-08
-2.66569e-07
2.20723e-08
-2.70304e-07
2.01863e-08
-2.73664e-07
1.82278e-08
-2.76637e-07
1.61976e-08
-2.7921e-07
1.40968e-08
-2.81371e-07
1.1927e-08
-2.83107e-07
9.6905e-09
-2.84409e-07
7.38974e-09
-2.85264e-07
5.02793e-09
-2.85663e-07
2.60886e-09
-2.85598e-07
1.36945e-10
-2.85059e-07
-2.38273e-09
-2.8404e-07
-4.94439e-09
-2.82535e-07
-7.54153e-09
-2.8054e-07
-1.01669e-08
-2.78052e-07
-1.28126e-08
-2.75068e-07
-1.54698e-08
-2.71591e-07
-1.8129e-08
-2.67621e-07
-2.078e-08
-2.63163e-07
-2.34119e-08
-2.58224e-07
-2.60129e-08
-2.52812e-07
-2.85707e-08
-2.46939e-07
-3.10723e-08
-2.40617e-07
-3.35041e-08
-2.33863e-07
-3.58522e-08
-2.26694e-07
-3.81019e-08
-2.19134e-07
-4.02384e-08
-2.11204e-07
-4.22465e-08
-2.02933e-07
-4.41109e-08
-1.94349e-07
-4.5816e-08
-1.85485e-07
-4.73466e-08
-1.76375e-07
-4.86873e-08
-1.67056e-07
-4.98233e-08
-1.57569e-07
-5.07399e-08
-1.47956e-07
-5.14232e-08
-1.3826e-07
-5.18599e-08
-1.2853e-07
-5.20377e-08
-1.18811e-07
-5.19454e-08
-1.09155e-07
-5.15727e-08
-9.96129e-08
-5.09113e-08
-9.02355e-08
-4.99541e-08
-8.10754e-08
-4.86964e-08
-7.21852e-08
-4.71354e-08
-6.36167e-08
-4.52713e-08
-5.54208e-08
-4.31073e-08
-4.76467e-08
-4.06501e-08
-4.03414e-08
-3.79111e-08
-3.35489e-08
-3.49066e-08
-2.73094e-08
-3.16595e-08
-2.16582e-08
-2.82002e-08
-1.66258e-08
-2.45685e-08
-1.22362e-08
-2.08154e-08
-8.50743e-09
-1.70058e-08
-5.45068e-09
-1.32217e-08
-3.07136e-09
-9.56538e-09
-1.37024e-09
-6.16266e-09
-3.45924e-10
-3.1669e-09
-7.72359e-10
-4.75454e-10
1.59802e-09
-1.82014e-09
5.39139e-09
-3.97498e-09
9.49471e-09
-6.88984e-09
1.37322e-08
-1.05183e-08
1.79794e-08
-1.48154e-08
2.21357e-08
-1.97363e-08
2.61235e-08
-2.52357e-08
2.98854e-08
-3.12676e-08
3.33813e-08
-3.77854e-08
3.65852e-08
-4.4742e-08
3.94826e-08
-5.20906e-08
4.20677e-08
-5.9785e-08
4.4342e-08
-6.77797e-08
4.63123e-08
-7.60308e-08
4.79892e-08
-8.44959e-08
4.93861e-08
-9.31345e-08
5.05183e-08
-1.01908e-07
5.14019e-08
-1.10781e-07
5.20536e-08
-1.19718e-07
5.24898e-08
-1.28688e-07
5.27266e-08
-1.3766e-07
5.27791e-08
-1.46607e-07
5.26615e-08
-1.55503e-07
5.2387e-08
-1.64324e-07
5.19673e-08
-1.73046e-07
5.1413e-08
-1.81649e-07
5.07333e-08
-1.90111e-07
4.99363e-08
-1.98415e-07
4.90287e-08
-2.06542e-07
4.80163e-08
-2.14474e-07
4.69037e-08
-2.22196e-07
4.56947e-08
-2.2969e-07
4.4392e-08
-2.36941e-07
4.29979e-08
-2.43935e-07
4.15138e-08
-2.50654e-07
3.99408e-08
-2.57085e-07
3.82795e-08
-2.63213e-07
3.65302e-08
-2.69023e-07
3.46929e-08
-2.74501e-07
3.27677e-08
-2.79631e-07
3.07546e-08
-2.84399e-07
2.86535e-08
-2.88792e-07
2.64647e-08
-2.92794e-07
2.41886e-08
-2.96392e-07
2.18259e-08
-2.99572e-07
1.93777e-08
-3.02321e-07
1.68455e-08
-3.04625e-07
1.42313e-08
-3.06473e-07
1.15378e-08
-3.07851e-07
8.76803e-09
-3.08749e-07
5.92593e-09
-3.09156e-07
3.01606e-09
-3.09063e-07
4.37451e-11
-3.08461e-07
-2.98488e-09
-3.07342e-07
-6.06288e-09
-3.05701e-07
-9.18244e-09
-3.03533e-07
-1.23349e-08
-3.00835e-07
-1.55107e-08
-2.97606e-07
-1.86993e-08
-2.93845e-07
-2.18894e-08
-2.89557e-07
-2.50688e-08
-2.84744e-07
-2.82243e-08
-2.79415e-07
-3.13419e-08
-2.73579e-07
-3.4407e-08
-2.67247e-07
-3.7404e-08
-2.60435e-07
-4.03167e-08
-2.53158e-07
-4.31284e-08
-2.45439e-07
-4.58218e-08
-2.37298e-07
-4.83792e-08
-2.28762e-07
-5.07825e-08
-2.19859e-07
-5.30134e-08
-2.10622e-07
-5.50536e-08
-2.01083e-07
-5.68849e-08
-1.91282e-07
-5.84892e-08
-1.81256e-07
-5.98489e-08
-1.71049e-07
-6.09467e-08
-1.60706e-07
-6.17664e-08
-1.50274e-07
-6.22922e-08
-1.39801e-07
-6.25099e-08
-1.29341e-07
-6.24062e-08
-1.18944e-07
-6.19697e-08
-1.08664e-07
-6.11904e-08
-9.85578e-08
-6.00608e-08
-8.86789e-08
-5.85754e-08
-7.90827e-08
-5.67316e-08
-6.98238e-08
-5.45302e-08
-6.09558e-08
-5.19753e-08
-5.25305e-08
-4.90754e-08
-4.45973e-08
-4.58443e-08
-3.72027e-08
-4.23012e-08
-3.03896e-08
-3.84727e-08
-2.41964e-08
-3.43934e-08
-1.8657e-08
-3.01079e-08
-1.37998e-08
-2.56726e-08
-9.6479e-09
-2.11577e-08
-6.21939e-09
-1.66503e-08
-3.52822e-09
-1.22565e-08
-1.58587e-09
-8.10501e-09
-4.04113e-10
-4.34866e-09
-1.17647e-09
-5.35089e-10
2.13312e-09
-2.0419e-09
6.89819e-09
-4.44472e-09
1.18975e-08
-7.67855e-09
1.69661e-08
-1.16842e-08
2.1985e-08
-1.64061e-08
2.68576e-08
-2.17907e-08
3.15081e-08
-2.77858e-08
3.58804e-08
-3.43395e-08
3.9935e-08
-4.14007e-08
4.36465e-08
-4.89187e-08
4.70006e-08
-5.68436e-08
4.99925e-08
-6.51263e-08
5.26248e-08
-7.37193e-08
5.49053e-08
-8.25766e-08
5.68465e-08
-9.1654e-08
5.84635e-08
-1.00909e-07
5.97735e-08
-1.10302e-07
6.07948e-08
-1.19795e-07
6.15463e-08
-1.29352e-07
6.20468e-08
-1.38939e-07
6.23143e-08
-1.48526e-07
6.23661e-08
-1.58084e-07
6.22187e-08
-1.67583e-07
6.18868e-08
-1.77e-07
6.13841e-08
-1.8631e-07
6.07228e-08
-1.9549e-07
5.99135e-08
-2.0452e-07
5.89656e-08
-2.13378e-07
5.78869e-08
-2.22046e-07
5.66841e-08
-2.30505e-07
5.53627e-08
-2.38737e-07
5.39272e-08
-2.46726e-07
5.23808e-08
-2.54454e-07
5.07262e-08
-2.61905e-07
4.89652e-08
-2.69064e-07
4.70992e-08
-2.75913e-07
4.51289e-08
-2.82438e-07
4.30549e-08
-2.88622e-07
4.08773e-08
-2.94451e-07
3.85963e-08
-2.99908e-07
3.62118e-08
-3.04979e-07
3.37241e-08
-3.09647e-07
3.11335e-08
-3.13899e-07
2.84405e-08
-3.1772e-07
2.56461e-08
-3.21094e-07
2.27517e-08
-3.24007e-07
1.97591e-08
-3.26447e-07
1.66707e-08
-3.28398e-07
1.34897e-08
-3.2985e-07
1.02198e-08
-3.3079e-07
6.86565e-09
-3.31206e-07
3.43264e-09
-3.3109e-07
-7.29182e-11
-3.30431e-07
-3.64381e-09
-3.29222e-07
-7.27184e-09
-3.27457e-07
-1.09478e-08
-3.2513e-07
-1.46616e-08
-3.22239e-07
-1.84018e-08
-3.18782e-07
-2.21562e-08
-3.1476e-07
-2.59115e-08
-3.10175e-07
-2.96532e-08
-3.05034e-07
-3.3366e-08
-2.99342e-07
-3.70334e-08
-2.93111e-07
-4.06383e-08
-2.86353e-07
-4.41623e-08
-2.79083e-07
-4.75867e-08
-2.71319e-07
-5.08917e-08
-2.63084e-07
-5.40571e-08
-2.54401e-07
-5.70622e-08
-2.45298e-07
-5.98858e-08
-2.35804e-07
-6.25067e-08
-2.25954e-07
-6.49035e-08
-2.15784e-07
-6.70549e-08
-2.05334e-07
-6.894e-08
-1.94644e-07
-7.05382e-08
-1.83761e-07
-7.18297e-08
-1.72732e-07
-7.27954e-08
-1.61607e-07
-7.34176e-08
-1.50437e-07
-7.36795e-08
-1.39277e-07
-7.35663e-08
-1.28182e-07
-7.30649e-08
-1.17208e-07
-7.21641e-08
-1.06414e-07
-7.08556e-08
-9.58556e-08
-6.91335e-08
-8.55919e-08
-6.69953e-08
-7.56797e-08
-6.44423e-08
-6.6175e-08
-6.14799e-08
-5.71322e-08
-5.81183e-08
-4.86031e-08
-5.43733e-08
-4.06369e-08
-5.02674e-08
-3.32793e-08
-4.58303e-08
-2.65719e-08
-4.11008e-08
-2.05522e-08
-3.61276e-08
-1.5253e-08
-3.09718e-08
-1.07027e-08
-2.57079e-08
-6.92616e-09
-2.04268e-08
-3.94517e-09
-1.52375e-08
-1.78082e-09
-1.02694e-08
-4.55972e-10
-5.67351e-09
-1.63245e-09
-5.89952e-10
2.72306e-09
-2.24785e-09
8.5561e-09
-4.88356e-09
1.45332e-08
-8.41874e-09
2.05013e-08
-1.27823e-08
2.63486e-08
-1.79087e-08
3.1984e-08
-2.3736e-08
3.73353e-08
-3.02047e-08
4.23491e-08
-3.72573e-08
4.69877e-08
-4.48379e-08
5.1227e-08
-5.28918e-08
5.50545e-08
-6.13659e-08
5.84667e-08
-7.02086e-08
6.14674e-08
-7.93699e-08
6.40666e-08
-8.88018e-08
6.62784e-08
-9.84583e-08
6.81199e-08
-1.08295e-07
6.96107e-08
-1.18272e-07
7.07712e-08
-1.28348e-07
7.16226e-08
-1.38487e-07
7.21858e-08
-1.48654e-07
7.24814e-08
-1.58817e-07
7.25288e-08
-1.68945e-07
7.23463e-08
-1.79009e-07
7.19509e-08
-1.88983e-07
7.13579e-08
-1.98841e-07
7.05812e-08
-2.0856e-07
6.96327e-08
-2.18118e-07
6.85233e-08
-2.27493e-07
6.7262e-08
-2.36665e-07
6.58563e-08
-2.45615e-07
6.43126e-08
-2.54324e-07
6.26361e-08
-2.62774e-07
6.08306e-08
-2.70947e-07
5.88993e-08
-2.78826e-07
5.68443e-08
-2.86394e-07
5.46673e-08
-2.93634e-07
5.23693e-08
-3.0053e-07
4.99508e-08
-3.07066e-07
4.74124e-08
-3.13223e-07
4.47541e-08
-3.18988e-07
4.19762e-08
-3.24343e-07
3.90789e-08
-3.29272e-07
3.60627e-08
-3.3376e-07
3.29283e-08
-3.3779e-07
2.96769e-08
-3.41349e-07
2.63102e-08
-3.4442e-07
2.28304e-08
-3.4699e-07
1.92403e-08
-3.49044e-07
1.55435e-08
-3.50568e-07
1.17446e-08
-3.51552e-07
7.84889e-09
-3.51982e-07
3.86263e-09
-3.51848e-07
-2.06838e-10
-3.5114e-07
-4.35114e-09
-3.49851e-07
-8.56079e-09
-3.47974e-07
-1.28251e-08
-3.45503e-07
-1.71323e-08
-3.42436e-07
-2.14694e-08
-3.3877e-07
-2.58221e-08
-3.34506e-07
-3.01749e-08
-3.29648e-07
-3.45113e-08
-3.24201e-07
-3.88134e-08
-3.18172e-07
-4.30622e-08
-3.11572e-07
-4.72379e-08
-3.04415e-07
-5.13194e-08
-2.96717e-07
-5.52849e-08
-2.88497e-07
-5.91117e-08