/*--------------------------------*- C++ -*----------------------------------*\
  =========                 |
  \\      /  F ield         | OpenFOAM: The Open Source CFD Toolbox
   \\    /   O peration     | Website:  https://openfoam.org
    \\  /    A nd           | Version:  7
     \\/     M anipulation  |
\*---------------------------------------------------------------------------*/
FoamFile
{
    version     2.0;
    format      ascii;
    class       volVectorField;
    location    "0.21875";
    object      U;
}
// * * * * * * * * * * * * * * * * * * * * * * * * * * * * * * * * * * * * * //

dimensions      [0 1 -1 0 0 0 0];

internalField   nonuniform List<vector> 
10000
(
(5.84066e-06 -3.92818e-07 0)
(9.80227e-06 -1.0021e-06 0)
(1.59176e-05 -2.00739e-06 0)
(1.48495e-05 -3.15252e-07 0)
(8.37127e-06 2.05311e-06 0)
(-5.92035e-06 4.58466e-06 0)
(-2.79508e-05 7.00438e-06 0)
(-5.71415e-05 9.20376e-06 0)
(-9.29134e-05 1.11705e-05 0)
(-0.000134604 1.28895e-05 0)
(-0.000181473 1.43766e-05 0)
(-0.000232848 1.56693e-05 0)
(-0.000288103 1.67588e-05 0)
(-0.000346644 1.76348e-05 0)
(-0.000407911 1.83316e-05 0)
(-0.000471405 1.88948e-05 0)
(-0.000536686 1.93394e-05 0)
(-0.000603354 1.96671e-05 0)
(-0.000671042 1.98942e-05 0)
(-0.000739422 2.00403e-05 0)
(-0.000808205 2.01116e-05 0)
(-0.00087714 2.01066e-05 0)
(-0.000945998 2.00308e-05 0)
(-0.00101457 1.99006e-05 0)
(-0.00108266 1.97321e-05 0)
(-0.00115012 1.95293e-05 0)
(-0.00121679 1.92859e-05 0)
(-0.00128254 1.89979e-05 0)
(-0.00134724 1.86696e-05 0)
(-0.00141075 1.83096e-05 0)
(-0.00147297 1.79239e-05 0)
(-0.00153378 1.75131e-05 0)
(-0.00159308 1.70733e-05 0)
(-0.00165076 1.66003e-05 0)
(-0.0017067 1.60926e-05 0)
(-0.0017608 1.55521e-05 0)
(-0.00181294 1.49809e-05 0)
(-0.00186302 1.43789e-05 0)
(-0.00191091 1.37437e-05 0)
(-0.0019565 1.30724e-05 0)
(-0.00199967 1.23637e-05 0)
(-0.00204029 1.16176e-05 0)
(-0.00207824 1.08344e-05 0)
(-0.0021134 1.00134e-05 0)
(-0.00214562 9.15284e-06 0)
(-0.0021748 8.25132e-06 0)
(-0.00220078 7.30895e-06 0)
(-0.00222345 6.32727e-06 0)
(-0.00224268 5.30791e-06 0)
(-0.00225834 4.25138e-06 0)
(-0.00227031 3.15745e-06 0)
(-0.00227848 2.02648e-06 0)
(-0.00228274 8.60107e-07 0)
(-0.00228297 -3.38799e-07 0)
(-0.00227909 -1.56674e-06 0)
(-0.00227101 -2.82e-06 0)
(-0.00225865 -4.09471e-06 0)
(-0.00224196 -5.38699e-06 0)
(-0.00222088 -6.69317e-06 0)
(-0.00219539 -8.00949e-06 0)
(-0.00216546 -9.33114e-06 0)
(-0.00213111 -1.06516e-05 0)
(-0.00209234 -1.19632e-05 0)
(-0.00204922 -1.32581e-05 0)
(-0.0020018 -1.45299e-05 0)
(-0.00195018 -1.57721e-05 0)
(-0.00189448 -1.69777e-05 0)
(-0.00183483 -1.81384e-05 0)
(-0.00177141 -1.92455e-05 0)
(-0.0017044 -2.02903e-05 0)
(-0.00163404 -2.12642e-05 0)
(-0.00156058 -2.21578e-05 0)
(-0.0014843 -2.29616e-05 0)
(-0.00140551 -2.36673e-05 0)
(-0.00132455 -2.42674e-05 0)
(-0.00124179 -2.47541e-05 0)
(-0.00115763 -2.51176e-05 0)
(-0.00107249 -2.53476e-05 0)
(-0.000986817 -2.54362e-05 0)
(-0.000901086 -2.53777e-05 0)
(-0.000815794 -2.51668e-05 0)
(-0.00073146 -2.47961e-05 0)
(-0.000648626 -2.42573e-05 0)
(-0.000567852 -2.35435e-05 0)
(-0.000489716 -2.26495e-05 0)
(-0.000414809 -2.15703e-05 0)
(-0.000343735 -2.03001e-05 0)
(-0.000277109 -1.8834e-05 0)
(-0.000215552 -1.71686e-05 0)
(-0.000159681 -1.53019e-05 0)
(-0.000110111 -1.3231e-05 0)
(-6.7438e-05 -1.09529e-05 0)
(-3.22259e-05 -8.47006e-06 0)
(-4.97198e-06 -5.79961e-06 0)
(1.3946e-05 -2.98665e-06 0)
(2.43692e-05 -1.24169e-07 0)
(2.65122e-05 2.58753e-06 0)
(2.13265e-05 4.72465e-06 0)
(1.16291e-05 5.39159e-06 0)
(3.08298e-06 3.08822e-06 0)
(8.29168e-06 -1.13713e-05 0)
(1.74189e-05 -9.14076e-06 0)
(1.76635e-05 -3.45756e-06 0)
(4.49908e-06 8.46641e-06 0)
(-2.58393e-05 2.25574e-05 0)
(-7.52448e-05 3.72163e-05 0)
(-0.000143578 5.14871e-05 0)
(-0.000230178 6.48032e-05 0)
(-0.000333774 7.68835e-05 0)
(-0.000452826 8.7669e-05 0)
(-0.00058574 9.71583e-05 0)
(-0.000730864 0.000105409 0)
(-0.0008866 0.000112468 0)
(-0.00105143 0.000118401 0)
(-0.00122393 0.000123311 0)
(-0.00140277 0.000127305 0)
(-0.00158672 0.000130459 0)
(-0.00177471 0.000132849 0)
(-0.0019657 0.000134562 0)
(-0.0021588 0.000135681 0)
(-0.00235315 0.000136263 0)
(-0.00254805 0.000136352 0)
(-0.00274283 0.000135996 0)
(-0.00293688 0.000135251 0)
(-0.00312967 0.000134166 0)
(-0.00332068 0.00013277 0)
(-0.00350948 0.000131081 0)
(-0.00369566 0.000129117 0)
(-0.00387884 0.000126899 0)
(-0.00405863 0.000124445 0)
(-0.0042347 0.000121765 0)
(-0.00440671 0.000118865 0)
(-0.00457435 0.000115745 0)
(-0.0047373 0.000112407 0)
(-0.00489523 0.000108852 0)
(-0.00504783 0.000105079 0)
(-0.00519478 0.000101084 0)
(-0.00533575 9.68604e-05 0)
(-0.00547042 9.24038e-05 0)
(-0.00559846 8.77108e-05 0)
(-0.00571954 8.27784e-05 0)
(-0.0058333 7.7603e-05 0)
(-0.00593939 7.21801e-05 0)
(-0.00603748 6.65052e-05 0)
(-0.0061272 6.05747e-05 0)
(-0.00620821 5.43878e-05 0)
(-0.00628015 4.79467e-05 0)
(-0.00634268 4.12556e-05 0)
(-0.00639545 3.43195e-05 0)
(-0.00643812 2.71435e-05 0)
(-0.00647036 1.97339e-05 0)
(-0.00649187 1.20998e-05 0)
(-0.00650236 4.25421e-06 0)
(-0.00650156 -3.7864e-06 0)
(-0.0064892 -1.20025e-05 0)
(-0.00646508 -2.03724e-05 0)
(-0.006429 -2.88727e-05 0)
(-0.0063808 -3.74779e-05 0)
(-0.00632037 -4.61599e-05 0)
(-0.00624764 -5.48876e-05 0)
(-0.00616258 -6.36263e-05 0)
(-0.00606522 -7.23373e-05 0)
(-0.00595563 -8.09787e-05 0)
(-0.00583396 -8.95059e-05 0)
(-0.00570041 -9.78732e-05 0)
(-0.00555522 -0.000106034 0)
(-0.00539875 -0.00011394 0)
(-0.00523138 -0.00012154 0)
(-0.00505359 -0.000128781 0)
(-0.00486595 -0.000135606 0)
(-0.00466906 -0.00014196 0)
(-0.00446365 -0.000147787 0)
(-0.00425049 -0.000153027 0)
(-0.00403044 -0.000157624 0)
(-0.00380444 -0.000161524 0)
(-0.00357351 -0.000164672 0)
(-0.00333873 -0.000167015 0)
(-0.00310127 -0.0001685 0)
(-0.00286237 -0.000169076 0)
(-0.00262333 -0.000168694 0)
(-0.00238551 -0.000167313 0)
(-0.00215033 -0.000164889 0)
(-0.00191928 -0.000161383 0)
(-0.00169387 -0.000156761 0)
(-0.00147568 -0.000150991 0)
(-0.00126629 -0.000144049 0)
(-0.00106732 -0.000135915 0)
(-0.000880393 -0.000126578 0)
(-0.00070714 -0.000116034 0)
(-0.00054915 -0.000104296 0)
(-0.000407961 -9.1396e-05 0)
(-0.000285013 -7.73966e-05 0)
(-0.000181587 -6.2409e-05 0)
(-9.87019e-05 -4.6632e-05 0)
(-3.69683e-05 -3.0417e-05 0)
(3.64244e-06 -1.43742e-05 0)
(2.41212e-05 4.3049e-07 0)
(2.69602e-05 1.21519e-05 0)
(1.75643e-05 1.75916e-05 0)
(5.36419e-06 1.16166e-05 0)
(4.78937e-06 -1.87453e-05 0)
(7.43643e-06 -1.36267e-05 0)
(-4.31743e-06 9.03554e-06 0)
(-3.87123e-05 4.13968e-05 0)
(-9.93626e-05 7.84107e-05 0)
(-0.000187711 0.000116891 0)
(-0.000303995 0.000154531 0)
(-0.000447245 0.000190014 0)
(-0.000615794 0.000222673 0)
(-0.000807622 0.000252114 0)
(-0.00102049 0.000278252 0)
(-0.00125205 0.00030114 0)
(-0.00150001 0.000320886 0)
(-0.00176213 0.000337653 0)
(-0.00203627 0.000351659 0)
(-0.00232041 0.000363128 0)
(-0.0026127 0.00037226 0)
(-0.00291144 0.000379258 0)
(-0.00321505 0.000384337 0)
(-0.00352209 0.000387695 0)
(-0.00383125 0.000389501 0)
(-0.00414137 0.000389897 0)
(-0.00445138 0.000389021 0)
(-0.0047603 0.000387008 0)
(-0.00506724 0.00038397 0)
(-0.0053714 0.000379997 0)
(-0.00567206 0.000375158 0)
(-0.00596853 0.000369518 0)
(-0.00626017 0.000363131 0)
(-0.00654638 0.000356041 0)
(-0.00682658 0.000348275 0)
(-0.00710024 0.000339854 0)
(-0.00736683 0.000330786 0)
(-0.00762583 0.000321082 0)
(-0.00787672 0.000310747 0)
(-0.00811898 0.000299779 0)
(-0.0083521 0.00028817 0)
(-0.00857557 0.000275909 0)
(-0.00878887 0.000262985 0)
(-0.00899147 0.000249388 0)
(-0.00918285 0.000235111 0)
(-0.00936245 0.000220145 0)
(-0.00952973 0.000204483 0)
(-0.00968415 0.000188116 0)
(-0.00982516 0.00017104 0)
(-0.00995222 0.000153254 0)
(-0.0100648 0.000134763 0)
(-0.0101623 0.000115579 0)
(-0.0102443 9.57142e-05 0)
(-0.0103101 7.5188e-05 0)
(-0.0103594 5.40237e-05 0)
(-0.0103917 3.2251e-05 0)
(-0.0104065 9.90716e-06 0)
(-0.0104034 -1.29629e-05 0)
(-0.010382 -3.63064e-05 0)
(-0.010342 -6.00636e-05 0)
(-0.0102831 -8.41678e-05 0)
(-0.0102051 -0.000108545 0)
(-0.0101079 -0.000133115 0)
(-0.00999129 -0.000157786 0)
(-0.00985531 -0.000182463 0)
(-0.0097 -0.000207038 0)
(-0.00952552 -0.000231398 0)
(-0.00933208 -0.000255422 0)
(-0.00912001 -0.000278982 0)
(-0.00888974 -0.000301947 0)
(-0.0086418 -0.000324177 0)
(-0.00837684 -0.00034553 0)
(-0.00809561 -0.000365857 0)
(-0.00779899 -0.000385005 0)
(-0.00748795 -0.00040282 0)
(-0.00716361 -0.000419145 0)
(-0.0068272 -0.000433822 0)
(-0.00648007 -0.000446693 0)
(-0.00612367 -0.000457604 0)
(-0.0057596 -0.000466404 0)
(-0.00538956 -0.000472943 0)
(-0.00501536 -0.000477079 0)
(-0.00463893 -0.000478673 0)
(-0.00426227 -0.000477594 0)
(-0.00388752 -0.000473719 0)
(-0.00351686 -0.000466939 0)
(-0.00315258 -0.00045715 0)
(-0.00279702 -0.000444266 0)
(-0.00245258 -0.000428212 0)
(-0.0021217 -0.000408934 0)
(-0.00180682 -0.000386399 0)
(-0.00151041 -0.000360599 0)
(-0.00123488 -0.000331563 0)
(-0.000982567 -0.00029937 0)
(-0.000755706 -0.000264169 0)
(-0.000556321 -0.000226212 0)
(-0.000386147 -0.000185904 0)
(-0.000246485 -0.000143888 0)
(-0.000137995 -0.000101187 0)
(-6.04203e-05 -5.94187e-05 0)
(-1.22249e-05 -2.11375e-05 0)
(9.90663e-06 9.68669e-06 0)
(1.219e-05 2.69761e-05 0)
(4.69112e-06 2.12632e-05 0)
(1.69324e-06 -2.21791e-05 0)
(-6.29044e-06 -3.41749e-06 0)
(-3.8144e-05 4.26411e-05 0)
(-0.000100386 0.000103321 0)
(-0.000196006 0.000171579 0)
(-0.000326675 0.000242018 0)
(-0.000492402 0.000311117 0)
(-0.000692027 0.000376665 0)
(-0.000923667 0.000437334 0)
(-0.00118492 0.000492407 0)
(-0.00147307 0.000541615 0)
(-0.00178531 0.000584925 0)
(-0.00211882 0.000622484 0)
(-0.00247077 0.000654568 0)
(-0.00283848 0.000681513 0)
(-0.00321939 0.000703673 0)
(-0.00361112 0.00072141 0)
(-0.00401145 0.000735099 0)
(-0.00441829 0.000745112 0)
(-0.00482977 0.000751793 0)
(-0.00524416 0.000755447 0)
(-0.00565989 0.000756361 0)
(-0.00607553 0.000754802 0)
(-0.00648974 0.000751011 0)
(-0.00690134 0.000745187 0)
(-0.00730923 0.000737501 0)
(-0.0077124 0.000728099 0)
(-0.00810993 0.000717108 0)
(-0.00850092 0.000704636 0)
(-0.00888456 0.000690764 0)
(-0.00926005 0.00067555 0)
(-0.00962666 0.000659032 0)
(-0.00998366 0.000641241 0)
(-0.0103303 0.000622196 0)
(-0.010666 0.000601911 0)
(-0.0109899 0.000580385 0)
(-0.0113014 0.000557607 0)
(-0.0115998 0.000533563 0)
(-0.0118844 0.000508237 0)
(-0.0121545 0.000481613 0)
(-0.0124093 0.000453679 0)
(-0.0126483 0.000424422 0)
(-0.0128705 0.000393828 0)
(-0.0130754 0.000361888 0)
(-0.0132623 0.000328597 0)
(-0.0134303 0.000293959 0)
(-0.0135788 0.000257987 0)
(-0.013707 0.000220701 0)
(-0.0138144 0.000182129 0)
(-0.0139002 0.00014231 0)
(-0.0139639 0.000101292 0)
(-0.0140047 5.91353e-05 0)
(-0.0140221 1.59133e-05 0)
(-0.0140157 -2.82867e-05 0)
(-0.0139849 -7.33638e-05 0)
(-0.0139293 -0.000119203 0)
(-0.0138486 -0.000165677 0)
(-0.0137424 -0.000212642 0)
(-0.0136107 -0.000259942 0)
(-0.0134533 -0.000307406 0)
(-0.0132702 -0.000354844 0)
(-0.0130614 -0.000402056 0)
(-0.0128273 -0.000448827 0)
(-0.0125681 -0.000494926 0)
(-0.0122842 -0.000540112 0)
(-0.0119764 -0.000584132 0)
(-0.0116452 -0.000626722 0)
(-0.0112915 -0.000667608 0)
(-0.0109164 -0.00070651 0)
(-0.010521 -0.000743139 0)
(-0.0101066 -0.0007772 0)
(-0.00967475 -0.000808398 0)
(-0.00922698 -0.000836435 0)
(-0.00876512 -0.000861015 0)
(-0.00829108 -0.000881843 0)
(-0.00780697 -0.000898632 0)
(-0.00731502 -0.000911101 0)
(-0.0068176 -0.000918982 0)
(-0.00631723 -0.000922016 0)
(-0.00581656 -0.00091996 0)
(-0.00531835 -0.000912587 0)
(-0.00482547 -0.000899692 0)
(-0.00434087 -0.000881094 0)
(-0.00386761 -0.00085664 0)
(-0.00340877 -0.000826207 0)
(-0.0029675 -0.000789713 0)
(-0.00254692 -0.000747124 0)
(-0.00215016 -0.000698465 0)
(-0.00178026 -0.000643838 0)
(-0.00144015 -0.000583446 0)
(-0.00113257 -0.000517641 0)
(-0.000859946 -0.000446975 0)
(-0.000624339 -0.000372291 0)
(-0.000427225 -0.000294854 0)
(-0.000269309 -0.00021656 0)
(-0.000150245 -0.000140235 0)
(-6.82988e-05 -7.00847e-05 0)
(-1.99155e-05 -1.22519e-05 0)
(8.27503e-07 2.4418e-05 0)
(2.60119e-06 2.64809e-05 0)
(-1.46196e-06 -1.57442e-05 0)
(-2.19013e-05 2.5753e-05 0)
(-7.73423e-05 0.000102587 0)
(-0.0001709 0.000198831 0)
(-0.000304722 0.00030485 0)
(-0.000479902 0.000413673 0)
(-0.000696093 0.000520456 0)
(-0.000951908 0.000622026 0)
(-0.00124518 0.000716402 0)
(-0.00157319 0.000802498 0)
(-0.00193291 0.000879765 0)
(-0.00232117 0.000948066 0)
(-0.00273469 0.00100757 0)
(-0.00317024 0.00105861 0)
(-0.0036247 0.00110163 0)
(-0.00409507 0.00113714 0)
(-0.00457854 0.00116569 0)
(-0.00507243 0.00118783 0)
(-0.00557427 0.0012041 0)
(-0.00608178 0.00121503 0)
(-0.00659288 0.00122107 0)
(-0.00710564 0.00122268 0)
(-0.00761827 0.00122029 0)
(-0.00812916 0.00121425 0)
(-0.00863682 0.00120489 0)
(-0.0091399 0.00119247 0)
(-0.00963713 0.00117723 0)
(-0.0101273 0.00115938 0)
(-0.0106094 0.00113909 0)
(-0.0110823 0.00111649 0)
(-0.011545 0.00109167 0)
(-0.0119967 0.00106472 0)
(-0.0124364 0.00103567 0)
(-0.0128631 0.00100458 0)
(-0.0132761 0.000971466 0)
(-0.0136745 0.000936323 0)
(-0.0140573 0.000899147 0)
(-0.0144238 0.000859923 0)
(-0.0147731 0.000818632 0)
(-0.0151044 0.000775256 0)
(-0.0154166 0.000729775 0)
(-0.0157091 0.000682172 0)
(-0.0159809 0.000632432 0)
(-0.0162311 0.000580545 0)
(-0.0164589 0.00052651 0)
(-0.0166633 0.000470337 0)
(-0.0168437 0.000412051 0)
(-0.0169991 0.000351685 0)
(-0.0171286 0.00028929 0)
(-0.0172316 0.00022493 0)
(-0.0173072 0.000158685 0)
(-0.0173547 9.06562e-05 0)
(-0.0173736 2.09629e-05 0)
(-0.017363 -5.02537e-05 0)
(-0.0173225 -0.000122831 0)
(-0.0172517 -0.000196584 0)
(-0.0171501 -0.000271306 0)
(-0.0170173 -0.00034677 0)
(-0.0168533 -0.000422723 0)
(-0.0166579 -0.000498891 0)
(-0.016431 -0.000574975 0)
(-0.016173 -0.000650653 0)
(-0.0158839 -0.000725581 0)
(-0.0155643 -0.000799395 0)
(-0.0152147 -0.000871712 0)
(-0.0148359 -0.000942128 0)
(-0.0144286 -0.00101023 0)
(-0.0139941 -0.00107557 0)
(-0.0135336 -0.00113771 0)
(-0.0130484 -0.0011962 0)
(-0.0125401 -0.00125057 0)
(-0.0120107 -0.00130035 0)
(-0.011462 -0.00134506 0)
(-0.0108962 -0.00138425 0)
(-0.0103156 -0.00141745 0)
(-0.00972285 -0.00144421 0)
(-0.0091206 -0.00146408 0)
(-0.00851171 -0.00147664 0)
(-0.00789923 -0.0014815 0)
(-0.00728633 -0.00147826 0)
(-0.00667635 -0.00146659 0)
(-0.00607271 -0.00144617 0)
(-0.00547896 -0.00141672 0)
(-0.00489873 -0.00137804 0)
(-0.0043357 -0.00132994 0)
(-0.00379358 -0.00127233 0)
(-0.00327606 -0.00120519 0)
(-0.00278681 -0.00112862 0)
(-0.00232935 -0.00104282 0)
(-0.00190707 -0.000948202 0)
(-0.00152308 -0.000845376 0)
(-0.00118017 -0.000735285 0)
(-0.000880614 -0.000619304 0)
(-0.000626054 -0.000499425 0)
(-0.000417303 -0.000378494 0)
(-0.000254108 -0.000260579 0)
(-0.000134843 -0.000151458 0)
(-5.61669e-05 -5.92151e-05 0)
(-1.3211e-05 4.96772e-06 0)
(1.25306e-08 2.46439e-05 0)
(-4.42593e-06 -9.757e-07 0)
(-3.77721e-05 7.48889e-05 0)
(-0.000118091 0.000191415 0)
(-0.000244825 0.000330308 0)
(-0.000418366 0.00048039 0)
(-0.000639088 0.000633339 0)
(-0.000906136 0.00078315 0)
(-0.00121767 0.000925777 0)
(-0.00157117 0.00105864 0)
(-0.00196366 0.00118019 0)
(-0.00239182 0.00128964 0)
(-0.00285212 0.00138673 0)
(-0.00334098 0.0014716 0)
(-0.00385482 0.00154465 0)
(-0.00439018 0.00160641 0)
(-0.00494371 0.00165754 0)
(-0.0055122 0.00169877 0)
(-0.00609263 0.00173085 0)
(-0.00668221 0.00175451 0)
(-0.00727832 0.00177044 0)
(-0.00787855 0.00177931 0)
(-0.00848064 0.00178176 0)
(-0.00908254 0.00177835 0)
(-0.00968235 0.0017696 0)
(-0.0102783 0.00175595 0)
(-0.0108689 0.00173782 0)
(-0.0114525 0.00171553 0)
(-0.0120278 0.00168938 0)
(-0.0125934 0.00165962 0)
(-0.0131482 0.00162644 0)
(-0.0136909 0.00158998 0)
(-0.0142204 0.00155036 0)
(-0.0147358 0.00150767 0)
(-0.0152358 0.00146196 0)
(-0.0157194 0.00141328 0)
(-0.0161857 0.00136162 0)
(-0.0166336 0.001307 0)
(-0.0170621 0.00124938 0)
(-0.0174702 0.00118876 0)
(-0.017857 0.00112512 0)
(-0.0182213 0.00105843 0)
(-0.0185621 0.000988674 0)
(-0.0188786 0.000915834 0)
(-0.0191695 0.000839905 0)
(-0.0194341 0.000760891 0)
(-0.0196712 0.000678814 0)
(-0.0198799 0.000593711 0)
(-0.0200592 0.000505638 0)
(-0.0202081 0.000414671 0)
(-0.0203259 0.000320907 0)
(-0.0204116 0.000224467 0)
(-0.0204644 0.000125499 0)
(-0.0204835 2.41801e-05 0)
(-0.0204684 -7.92842e-05 0)
(-0.0204182 -0.000184657 0)
(-0.0203326 -0.000291671 0)
(-0.020211 -0.000400027 0)
(-0.0200532 -0.000509393 0)
(-0.0198589 -0.000619406 0)
(-0.0196281 -0.000729669 0)
(-0.0193607 -0.000839752 0)
(-0.019057 -0.000949192 0)
(-0.0187172 -0.00105749 0)
(-0.018342 -0.00116414 0)
(-0.017932 -0.00126857 0)
(-0.0174881 -0.00137021 0)
(-0.0170113 -0.00146846 0)
(-0.0165028 -0.0015627 0)
(-0.0159642 -0.00165229 0)
(-0.015397 -0.00173658 0)
(-0.0148033 -0.00181491 0)
(-0.0141849 -0.0018866 0)
(-0.0135443 -0.00195098 0)
(-0.012884 -0.00200739 0)
(-0.0122066 -0.00205517 0)
(-0.0115151 -0.00209367 0)
(-0.0108126 -0.00212228 0)
(-0.0101024 -0.00214038 0)
(-0.00938801 -0.00214743 0)
(-0.00867307 -0.00214288 0)
(-0.00796137 -0.00212625 0)
(-0.00725686 -0.00209712 0)
(-0.00656356 -0.00205511 0)
(-0.0058856 -0.00199994 0)
(-0.00522714 -0.0019314 0)
(-0.00459237 -0.00184939 0)
(-0.00398546 -0.00175394 0)
(-0.00341048 -0.00164522 0)
(-0.00287137 -0.00152361 0)
(-0.00237188 -0.00138975 0)
(-0.00191544 -0.00124457 0)
(-0.00150509 -0.00108948 0)
(-0.00114334 -0.000926431 0)
(-0.000832039 -0.000758173 0)
(-0.000572185 -0.00058851 0)
(-0.000363788 -0.00042268 0)
(-0.000205585 -0.000267865 0)
(-9.47823e-05 -0.00013376 0)
(-2.80302e-05 -3.33307e-05 0)
(-2.636e-06 1.50361e-05 0)
(-7.12584e-06 2.18299e-05 0)
(-5.31153e-05 0.000144356 0)
(-0.000158489 0.000309666 0)
(-0.000318773 0.000498623 0)
(-0.000532362 0.000698975 0)
(-0.000798731 0.000901369 0)
(-0.00111631 0.00109897 0)
(-0.0014827 0.00128703 0)
(-0.00189496 0.00146239 0)
(-0.00234978 0.00162311 0)
(-0.00284354 0.00176816 0)
(-0.00337241 0.00189716 0)
(-0.00393253 0.00201023 0)
(-0.00452007 0.00210777 0)
(-0.00513124 0.00219044 0)
(-0.0057624 0.00225907 0)
(-0.00641003 0.00231454 0)
(-0.00707085 0.00235778 0)
(-0.00774176 0.00238972 0)
(-0.00841986 0.00241126 0)
(-0.00910245 0.00242328 0)
(-0.00978703 0.00242658 0)
(-0.0104713 0.00242193 0)
(-0.011153 0.00240998 0)
(-0.0118304 0.00239133 0)
(-0.0125015 0.00236652 0)
(-0.0131645 0.00233602 0)
(-0.013818 0.0023002 0)
(-0.0144605 0.00225941 0)
(-0.0150904 0.00221389 0)
(-0.0157065 0.00216387 0)
(-0.0163075 0.00210949 0)
(-0.0168922 0.00205089 0)
(-0.0174593 0.00198816 0)
(-0.0180076 0.00192133 0)
(-0.018536 0.00185045 0)
(-0.0190433 0.00177551 0)
(-0.0195284 0.0016965 0)
(-0.0199901 0.00161341 0)
(-0.0204273 0.00152621 0)
(-0.0208389 0.00143489 0)
(-0.0212237 0.00133943 0)
(-0.0215806 0.00123981 0)
(-0.0219084 0.00113603 0)
(-0.022206 0.00102811 0)
(-0.0224724 0.000916079 0)
(-0.0227064 0.000799995 0)
(-0.022907 0.00067994 0)
(-0.0230731 0.00055602 0)
(-0.0232037 0.000428373 0)
(-0.023298 0.000297166 0)
(-0.0233549 0.000162605 0)
(-0.0233736 2.4932e-05 0)
(-0.0233535 -0.000115572 0)
(-0.0232938 -0.000258585 0)
(-0.023194 -0.000403745 0)
(-0.0230535 -0.000550645 0)
(-0.0228721 -0.000698839 0)
(-0.0226495 -0.000847833 0)
(-0.0223857 -0.000997092 0)
(-0.0220807 -0.00114603 0)
(-0.0217347 -0.00129404 0)
(-0.0213481 -0.00144044 0)
(-0.0209217 -0.00158454 0)
(-0.020456 -0.00172559 0)
(-0.0199522 -0.00186282 0)
(-0.0194114 -0.00199542 0)
(-0.0188351 -0.00212256 0)
(-0.0182249 -0.00224339 0)
(-0.0175827 -0.00235703 0)
(-0.0169106 -0.00246259 0)
(-0.016211 -0.00255919 0)
(-0.0154864 -0.00264592 0)
(-0.0147396 -0.0027219 0)
(-0.0139737 -0.00278624 0)
(-0.013192 -0.00283811 0)
(-0.0123979 -0.00287667 0)
(-0.0115952 -0.00290112 0)
(-0.0107876 -0.00291073 0)
(-0.00997939 -0.0029048 0)
(-0.00917462 -0.0028827 0)
(-0.0083777 -0.00284389 0)
(-0.00759307 -0.00278789 0)
(-0.00682529 -0.00271437 0)
(-0.00607892 -0.00262308 0)
(-0.00535856 -0.00251393 0)
(-0.00466875 -0.00238701 0)
(-0.00401393 -0.00224263 0)
(-0.00339838 -0.00208135 0)
(-0.00282613 -0.00190407 0)
(-0.0023009 -0.00171212 0)
(-0.00182598 -0.00150734 0)
(-0.00140411 -0.00129232 0)
(-0.00103738 -0.00107055 0)
(-0.000727107 -0.000846724 0)
(-0.000473689 -0.000627134 0)
(-0.000276412 -0.000420132 0)
(-0.000133246 -0.000236659 0)
(-4.25753e-05 -9.09142e-05 0)
(-5.14382e-06 -2.31224e-06 0)
(-9.56664e-06 5.23717e-05 0)
(-6.7631e-05 0.000233577 0)
(-0.000197465 0.000457057 0)
(-0.000390729 0.00070359 0)
(-0.000643853 0.000960307 0)
(-0.000955225 0.00121727 0)
(-0.00132243 0.00146707 0)
(-0.00174241 0.00170443 0)
(-0.00221176 0.00192575 0)
(-0.00272677 0.00212877 0)
(-0.00328346 0.00231227 0)
(-0.00387775 0.00247577 0)
(-0.00450551 0.00261931 0)
(-0.00516266 0.00274337 0)
(-0.00584514 0.00284873 0)
(-0.00654905 0.00293634 0)
(-0.00727065 0.00300726 0)
(-0.00800639 0.00306262 0)
(-0.00875295 0.00310353 0)
(-0.00950716 0.00313113 0)
(-0.0102661 0.00314647 0)
(-0.011027 0.00315059 0)
(-0.0117874 0.00314439 0)
(-0.0125449 0.00312873 0)
(-0.0132974 0.00310436 0)
(-0.0140427 0.00307196 0)
(-0.014779 0.00303211 0)
(-0.0155046 0.00298533 0)
(-0.0162177 0.00293201 0)
(-0.0169169 0.00287251 0)
(-0.0176005 0.00280711 0)
(-0.0182672 0.00273601 0)
(-0.0189155 0.00265939 0)
(-0.0195441 0.00257736 0)
(-0.0201518 0.00249 0)
(-0.0207371 0.00239734 0)
(-0.0212988 0.00229941 0)
(-0.0218357 0.00219621 0)
(-0.0223464 0.00208772 0)
(-0.0228298 0.00197392 0)
(-0.0232845 0.00185481 0)
(-0.0237093 0.00173035 0)
(-0.0241029 0.00160054 0)
(-0.0244642 0.00146539 0)
(-0.0247919 0.00132492 0)
(-0.0250847 0.0011792 0)
(-0.0253416 0.0010283 0)
(-0.0255612 0.000872324 0)
(-0.0257426 0.000711422 0)
(-0.0258845 0.000545776 0)
(-0.0259861 0.000375608 0)
(-0.0260463 0.000201187 0)
(-0.0260643 2.28294e-05 0)
(-0.0260391 -0.000159099 0)
(-0.0259702 -0.000344181 0)
(-0.0258568 -0.000531948 0)
(-0.0256986 -0.000721876 0)
(-0.0254951 -0.000913386 0)
(-0.025246 -0.00110584 0)
(-0.0249515 -0.00129856 0)
(-0.0246115 -0.00149078 0)
(-0.0242263 -0.00168172 0)
(-0.0237965 -0.00187051 0)
(-0.0233226 -0.00205626 0)
(-0.0228056 -0.00223802 0)
(-0.0222465 -0.00241479 0)
(-0.0216468 -0.00258554 0)
(-0.021008 -0.00274921 0)
(-0.0203319 -0.0029047 0)
(-0.0196207 -0.0030509 0)
(-0.0188765 -0.00318667 0)
(-0.0181021 -0.00331088 0)
(-0.0173003 -0.00342238 0)
(-0.0164741 -0.00352006 0)
(-0.0156269 -0.00360279 0)
(-0.0147623 -0.00366949 0)
(-0.013884 -0.00371912 0)
(-0.0129962 -0.00375068 0)
(-0.012103 -0.00376323 0)
(-0.0112089 -0.00375592 0)
(-0.0103184 -0.00372797 0)
(-0.00943633 -0.00367869 0)
(-0.00856739 -0.00360755 0)
(-0.00771654 -0.00351412 0)
(-0.0068887 -0.00339815 0)
(-0.00608881 -0.00325958 0)
(-0.00532174 -0.00309859 0)
(-0.00459222 -0.00291561 0)
(-0.00390483 -0.00271143 0)
(-0.00326388 -0.00248724 0)
(-0.00267333 -0.00224474 0)
(-0.00213672 -0.00198628 0)
(-0.00165708 -0.00171502 0)
(-0.00123678 -0.00143516 0)
(-0.000877513 -0.00115221 0)
(-0.000580193 -0.000873329 0)
(-0.000344768 -0.000607811 0)
(-0.000170081 -0.000367489 0)
(-5.62903e-05 -0.000167304 0)
(-7.4289e-06 -2.70142e-05 0)
(-1.17759e-05 9.01267e-05 0)
(-8.12445e-05 0.000341732 0)
(-0.000234439 0.000632735 0)
(-0.000459593 0.000944287 0)
(-0.000751128 0.00126343 0)
(-0.00110628 0.00157996 0)
(-0.00152173 0.00188614 0)
(-0.00199374 0.00217636 0)
(-0.00251831 0.00244673 0)
(-0.00309127 0.0026948 0)
(-0.00370832 0.00291917 0)
(-0.00436509 0.00311927 0)
(-0.00505718 0.00329516 0)
(-0.00578023 0.00344739 0)
(-0.00652998 0.00357684 0)
(-0.0073023 0.00368461 0)
(-0.00809326 0.00377193 0)
(-0.00889908 0.00384011 0)
(-0.00971622 0.00389049 0)
(-0.0105413 0.00392442 0)
(-0.0113712 0.00394316 0)
(-0.0122031 0.00394793 0)
(-0.013034 0.00393985 0)
(-0.0138617 0.00391993 0)
(-0.0146836 0.0038891 0)
(-0.0154976 0.0038482 0)
(-0.0163017 0.00379794 0)
(-0.0170938 0.00373893 0)
(-0.0178722 0.00367169 0)
(-0.0186351 0.00359665 0)
(-0.0193809 0.00351416 0)
(-0.0201081 0.0034245 0)
(-0.0208151 0.00332788 0)
(-0.0215004 0.00322444 0)
(-0.0221626 0.0031143 0)
(-0.0228003 0.00299751 0)
(-0.023412 0.00287411 0)
(-0.0239965 0.00274411 0)
(-0.0245522 0.0026075 0)
(-0.0250779 0.00246427 0)
(-0.0255721 0.00231441 0)
(-0.0260336 0.00215791 0)
(-0.0264609 0.00199476 0)
(-0.0268528 0.00182498 0)
(-0.0272079 0.00164862 0)
(-0.0275248 0.00146576 0)
(-0.0278025 0.00127649 0)
(-0.0280394 0.00108097 0)
(-0.0282346 0.000879377 0)
(-0.0283868 0.000671943 0)
(-0.0284949 0.000458954 0)
(-0.0285578 0.000240749 0)
(-0.0285747 1.77268e-05 0)
(-0.0285447 -0.000209655 0)
(-0.028467 -0.000440874 0)
(-0.0283409 -0.000675344 0)
(-0.028166 -0.000912412 0)
(-0.0279419 -0.00115136 0)
(-0.0276683 -0.00139139 0)
(-0.0273452 -0.00163165 0)
(-0.0269728 -0.00187121 0)
(-0.0265513 -0.00210908 0)
(-0.0260813 -0.00234419 0)
(-0.0255635 -0.00257544 0)
(-0.0249989 -0.00280165 0)
(-0.0243888 -0.00302157 0)
(-0.0237345 -0.00323395 0)
(-0.0230379 -0.00343746 0)
(-0.0223009 -0.00363076 0)
(-0.0215258 -0.00381245 0)
(-0.020715 -0.00398116 0)
(-0.0198715 -0.00413547 0)
(-0.0189982 -0.00427398 0)
(-0.0180986 -0.00439531 0)
(-0.0171762 -0.00449809 0)
(-0.016235 -0.004581 0)
(-0.0152789 -0.00464276 0)
(-0.0143123 -0.00468216 0)
(-0.0133398 -0.00469806 0)
(-0.0123661 -0.00468943 0)
(-0.0113962 -0.00465533 0)
(-0.010435 -0.00459498 0)
(-0.00948767 -0.00450772 0)
(-0.0085595 -0.00439309 0)
(-0.00765568 -0.00425083 0)
(-0.00678147 -0.00408093 0)
(-0.00594199 -0.00388363 0)
(-0.00514229 -0.00365956 0)
(-0.00438718 -0.00340972 0)
(-0.00368124 -0.00313559 0)
(-0.00302869 -0.00283927 0)
(-0.00243333 -0.00252359 0)
(-0.00189846 -0.00219225 0)
(-0.00142682 -0.0018501 0)
(-0.00102054 -0.00150332 0)
(-0.000681091 -0.00115983 0)
(-0.000409158 -0.000829595 0)
(-0.000204482 -0.000525044 0)
(-6.89083e-05 -0.000261472 0)
(-9.46516e-06 -5.85021e-05 0)
(-1.37963e-05 0.000134555 0)
(-9.39124e-05 0.000467805 0)
(-0.000269228 0.000835427 0)
(-0.000524809 0.00121937 0)
(-0.000853193 0.00160693 0)
(-0.00125053 0.00198794 0)
(-0.00171255 0.00235452 0)
(-0.00223472 0.00270096 0)
(-0.00281245 0.00302325 0)
(-0.0034411 0.0033188 0)
(-0.00411599 0.00358612 0)
(-0.00483242 0.00382463 0)
(-0.00558573 0.00403444 0)
(-0.0063713 0.00421617 0)
(-0.00718466 0.00437083 0)
(-0.0080215 0.00449965 0)
(-0.00887767 0.00460406 0)
(-0.00974923 0.00468558 0)
(-0.0106324 0.00474576 0)
(-0.0115237 0.00478615 0)
(-0.0124198 0.00480823 0)
(-0.0133177 0.00481343 0)
(-0.0142143 0.00480304 0)
(-0.0151071 0.0047783 0)
(-0.0159936 0.00474029 0)
(-0.0168712 0.00468999 0)
(-0.017738 0.00462827 0)
(-0.0185917 0.00455585 0)
(-0.0194305 0.00447335 0)
(-0.0202525 0.0043813 0)
(-0.0210559 0.00428013 0)
(-0.021839 0.00417018 0)
(-0.0226001 0.0040517 0)
(-0.0233378 0.00392489 0)
(-0.0240504 0.00378989 0)
(-0.0247364 0.00364677 0)
(-0.0253944 0.00349559 0)
(-0.0260227 0.00333637 0)
(-0.02662 0.00316913 0)
(-0.0271847 0.00299385 0)
(-0.0277154 0.00281052 0)
(-0.0282107 0.00261915 0)
(-0.0286691 0.00241974 0)
(-0.0290892 0.00221233 0)
(-0.0294696 0.00199699 0)
(-0.0298088 0.0017738 0)
(-0.0301056 0.0015429 0)
(-0.0303586 0.00130448 0)
(-0.0305664 0.00105877 0)
(-0.030728 0.00080605 0)
(-0.0308421 0.000546679 0)
(-0.0309076 0.000281071 0)
(-0.0309235 9.71054e-06 0)
(-0.030889 -0.000266842 0)
(-0.0308031 -0.000547953 0)
(-0.0306653 -0.000832908 0)
(-0.0304749 -0.00112092 0)
(-0.0302317 -0.0014111 0)
(-0.0299353 -0.00170251 0)
(-0.0295858 -0.00199409 0)
(-0.0291832 -0.00228474 0)
(-0.028728 -0.00257324 0)
(-0.0282207 -0.00285832 0)
(-0.0276622 -0.00313863 0)
(-0.0270535 -0.00341274 0)
(-0.0263959 -0.00367919 0)
(-0.025691 -0.00393642 0)
(-0.0249406 -0.00418285 0)
(-0.024147 -0.00441685 0)
(-0.0233125 -0.00463678 0)
(-0.0224398 -0.00484094 0)
(-0.021532 -0.00502767 0)
(-0.0205923 -0.00519527 0)
(-0.0196243 -0.00534208 0)
(-0.0186319 -0.00546649 0)
(-0.0176192 -0.0055669 0)
(-0.0165906 -0.0056418 0)
(-0.0155506 -0.00568975 0)
(-0.0145041 -0.00570942 0)
(-0.0134562 -0.00569958 0)
(-0.012412 -0.00565915 0)
(-0.0113768 -0.00558722 0)
(-0.0103561 -0.00548305 0)
(-0.00935549 -0.00534613 0)
(-0.00838037 -0.0051762 0)
(-0.00743627 -0.0049733 0)
(-0.00652861 -0.00473778 0)
(-0.00566268 -0.00447043 0)
(-0.00484355 -0.00417248 0)
(-0.00407604 -0.00384574 0)
(-0.00336463 -0.00349265 0)
(-0.00271341 -0.0031165 0)
(-0.002126 -0.0027215 0)
(-0.00160551 -0.00231306 0)
(-0.00115454 -0.00189795 0)
(-0.000775168 -0.00148465 0)
(-0.000468807 -0.00108364 0)
(-0.000236069 -0.000707667 0)
(-8.03309e-05 -0.000372106 0)
(-1.12544e-05 -9.61379e-05 0)
(-1.56335e-05 0.000185187 0)
(-0.000105646 0.000610646 0)
(-0.000301744 0.00106368 0)
(-0.000586119 0.00152724 0)
(-0.000949604 0.00198911 0)
(-0.00138728 0.00243937 0)
(-0.00189393 0.00287031 0)
(-0.00246422 0.00327622 0)
(-0.00309294 0.00365311 0)
(-0.00377496 0.00399836 0)
(-0.00450518 0.00431049 0)
(-0.00527857 0.00458898 0)
(-0.00609016 0.00483402 0)
(-0.00693512 0.00504634 0)
(-0.00780876 0.00522708 0)
(-0.00870657 0.00537764 0)
(-0.00962423 0.00549965 0)
(-0.0105576 0.00559485 0)
(-0.0115028 0.00566499 0)
(-0.0124562 0.00571185 0)
(-0.0134142 0.00573713 0)
(-0.0143737 0.00574244 0)
(-0.0153316 0.00572931 0)
(-0.0162851 0.00569914 0)
(-0.0172316 0.0056532 0)
(-0.0181685 0.00559264 0)
(-0.0190935 0.00551844 0)
(-0.0200045 0.00543146 0)
(-0.0208994 0.00533244 0)
(-0.0217762 0.00522201 0)
(-0.022633 0.00510066 0)
(-0.023468 0.0049688 0)
(-0.0242794 0.00482675 0)
(-0.0250657 0.00467474 0)
(-0.0258251 0.00451293 0)
(-0.026556 0.00434145 0)
(-0.0272568 0.00416036 0)
(-0.0279259 0.00396971 0)
(-0.0285617 0.0037695 0)
(-0.0291627 0.00355975 0)
(-0.0297274 0.00334045 0)
(-0.0302542 0.00311161 0)
(-0.0307415 0.00287325 0)
(-0.0311879 0.00262544 0)
(-0.0315919 0.00236824 0)
(-0.031952 0.00210178 0)
(-0.0322667 0.00182624 0)
(-0.0325347 0.00154183 0)
(-0.0327546 0.00124883 0)
(-0.032925 0.000947602 0)
(-0.0330449 0.000638554 0)
(-0.033113 0.000322189 0)
(-0.0331282 -9.12238e-07 0)
(-0.0330897 -0.000330084 0)
(-0.0329964 -0.000664571 0)
(-0.0328479 -0.00100353 0)
(-0.0326433 -0.00134601 0)
(-0.0323825 -0.00169097 0)
(-0.0320651 -0.00203729 0)
(-0.0316911 -0.00238373 0)
(-0.0312607 -0.00272896 0)
(-0.0307743 -0.00307155 0)
(-0.0302324 -0.00341 0)
(-0.029636 -0.00374271 0)
(-0.0289861 -0.00406799 0)