/*--------------------------------*- C++ -*----------------------------------*\
  =========                 |
  \\      /  F ield         | OpenFOAM: The Open Source CFD Toolbox
   \\    /   O peration     | Website:  https://openfoam.org
    \\  /    A nd           | Version:  7
     \\/     M anipulation  |
\*---------------------------------------------------------------------------*/
FoamFile
{
    version     2.0;
    format      ascii;
    class       volScalarField;
    location    "24.0009";
    object      p;
}
// * * * * * * * * * * * * * * * * * * * * * * * * * * * * * * * * * * * * * //

dimensions      [0 2 -2 0 0 0 0];

internalField   nonuniform List<scalar> 
18750
(
-0.0161928
-0.0259723
-0.0431026
-0.0684289
-0.100477
-0.138595
-0.18182
-0.229313
-0.280164
-0.333568
-0.388706
-0.444708
-0.500605
-0.555481
-0.608649
-0.0199348
-0.0294614
-0.0463588
-0.0714805
-0.103356
-0.14133
-0.184435
-0.231822
-0.282569
-0.335866
-0.3909
-0.44681
-0.502604
-0.55731
-0.610222
-0.0274022
-0.03643
-0.0528648
-0.0775802
-0.109112
-0.146797
-0.189659
-0.236829
-0.287362
-0.340438
-0.395251
-0.450958
-0.506536
-0.560919
-0.613359
-0.0382888
-0.0465993
-0.0623579
-0.0864778
-0.117502
-0.154755
-0.197246
-0.244081
-0.294283
-0.347008
-0.401464
-0.45683
-0.512064
-0.565996
-0.617813
-0.0521577
-0.0595676
-0.0744599
-0.0978164
-0.128182
-0.164865
-0.206855
-0.25323
-0.302973
-0.35521
-0.409154
-0.464019
-0.518768
-0.572148
-0.623254
-0.0684688
-0.0748257
-0.088697
-0.111155
-0.140731
-0.176714
-0.218076
-0.263863
-0.313018
-0.364626
-0.417898
-0.472089
-0.526207
-0.578952
-0.629323
-0.0866229
-0.0917697
-0.104526
-0.125994
-0.154677
-0.189847
-0.230461
-0.275536
-0.323976
-0.374822
-0.427271
-0.480623
-0.533964
-0.586011
-0.635669
-0.105953
-0.109758
-0.121371
-0.141806
-0.169522
-0.203789
-0.243549
-0.287798
-0.335408
-0.385376
-0.436873
-0.489242
-0.541673
-0.592969
-0.641971
-0.125742
-0.12815
-0.138661
-0.158062
-0.184771
-0.218068
-0.25689
-0.300217
-0.346898
-0.395893
-0.446343
-0.497618
-0.549028
-0.599524
-0.647942
-0.145271
-0.146321
-0.15585
-0.174253
-0.199946
-0.232236
-0.27006
-0.31239
-0.358064
-0.406017
-0.45536
-0.505472
-0.555778
-0.605424
-0.653327
-0.163864
-0.163698
-0.172439
-0.189908
-0.214606
-0.245883
-0.282676
-0.323957
-0.368569
-0.415435
-0.463642
-0.512565
-0.561714
-0.610458
-0.657897
-0.180903
-0.179805
-0.187986
-0.204604
-0.228359
-0.258646
-0.2944
-0.334605
-0.378121
-0.423874
-0.470942
-0.518688
-0.566668
-0.614451
-0.661436
-0.195875
-0.194317
-0.202101
-0.217973
-0.240873
-0.270217
-0.304945
-0.344069
-0.386474
-0.431106
-0.477047
-0.523654
-0.570494
-0.617262
-0.663734
-0.208397
-0.206998
-0.214442
-0.229723
-0.25188
-0.280346
-0.314077
-0.35213
-0.393425
-0.436938
-0.481769
-0.527288
-0.573062
-0.618795
-0.664565
-0.218459
-0.217498
-0.224749
-0.239638
-0.261179
-0.288838
-0.321611
-0.358616
-0.398811
-0.441217
-0.484955
-0.529425
-0.574231
-0.619
-0.663709
-0.22608
-0.225642
-0.232967
-0.247588
-0.26864
-0.295558
-0.327415
-0.363397
-0.402508
-0.443819
-0.486482
-0.529922
-0.57383
-0.617803
-0.661182
-0.231376
-0.231492
-0.23907
-0.25358
-0.2742
-0.30042
-0.331408
-0.366388
-0.404431
-0.444649
-0.486249
-0.528675
-0.571692
-0.615018
-0.657196
-0.234627
-0.235276
-0.243119
-0.257593
-0.277854
-0.303424
-0.333568
-0.367549
-0.404506
-0.443633
-0.484188
-0.52562
-0.567737
-0.610457
-0.651744
-0.236272
-0.237306
-0.245261
-0.259674
-0.279615
-0.304568
-0.333869
-0.366844
-0.40271
-0.440733
-0.480262
-0.520718
-0.561882
-0.604123
-0.64453
-0.236828
-0.23791
-0.245682
-0.259938
-0.279554
-0.30389
-0.332332
-0.364281
-0.399035
-0.435933
-0.474433
-0.513952
-0.554063
-0.595965
-0.635416
-0.236766
-0.237357
-0.244578
-0.258552
-0.277793
-0.301476
-0.32902
-0.359902
-0.393506
-0.429227
-0.46665
-0.505319
-0.54424
-0.585905
-0.624384
-0.236358
-0.235784
-0.242153
-0.255716
-0.274487
-0.297445
-0.324028
-0.353778
-0.386169
-0.42064
-0.456859
-0.494814
-0.532406
-0.573899
-0.611446
-0.235565
-0.233176
-0.238655
-0.251667
-0.269808
-0.291936
-0.317479
-0.345997
-0.377078
-0.410241
-0.445025
-0.48242
-0.518578
-0.55995
-0.596623
-0.2341
-0.229549
-0.234424
-0.24666
-0.263939
-0.285113
-0.30952
-0.336674
-0.366287
-0.398133
-0.431148
-0.468108
-0.50277
-0.54409
-0.58001
-0.231716
-0.225297
-0.229875
-0.240955
-0.257097
-0.277172
-0.30032
-0.325963
-0.353834
-0.384409
-0.415291
-0.451841
-0.484999
-0.526266
-0.561803
-0.228432
-0.221309
-0.225367
-0.234823
-0.24956
-0.268364
-0.290067
-0.314058
-0.339784
-0.369112
-0.397592
-0.43358
-0.465352
-0.506331
-0.542051
-0.224582
-0.218359
-0.221074
-0.228593
-0.241702
-0.259004
-0.278966
-0.301181
-0.32426
-0.352225
-0.378233
-0.413248
-0.444145
-0.484252
-0.520695
-0.220816
-0.216444
-0.217085
-0.222708
-0.233974
-0.249489
-0.267257
-0.287526
-0.307537
-0.333664
-0.357465
-0.390571
-0.421724
-0.460198
-0.497865
-0.217629
-0.214963
-0.213708
-0.21771
-0.226855
-0.240266
-0.255288
-0.273247
-0.28997
-0.31339
-0.335662
-0.365385
-0.398001
-0.434138
-0.474154
-0.215198
-0.213507
-0.211431
-0.213984
-0.220779
-0.231828
-0.243527
-0.258512
-0.272051
-0.291362
-0.313239
-0.337868
-0.373141
-0.404876
-0.450865
-0.213427
-0.212094
-0.210316
-0.211556
-0.216097
-0.224607
-0.232651
-0.243544
-0.25423
-0.268004
-0.290199
-0.309177
-0.346784
-0.37376
-0.42167
-0.212144
-0.210984
-0.209823
-0.210251
-0.213045
-0.218919
-0.223295
-0.229051
-0.236704
-0.244308
-0.26626
-0.281157
-0.3187
-0.344741
-0.391144
-0.211168
-0.2102
-0.209552
-0.209855
-0.211609
-0.214946
-0.215877
-0.215821
-0.219948
-0.221287
-0.241917
-0.254416
-0.293512
-0.317563
-0.366138
-0.21034
-0.209625
-0.20945
-0.210064
-0.211412
-0.212614
-0.210455
-0.204825
-0.204266
-0.200889
-0.216826
-0.230794
-0.266559
-0.295102
-0.346327
-0.209505
-0.209106
-0.209444
-0.210525
-0.211799
-0.211533
-0.206594
-0.196826
-0.190114
-0.184143
-0.19302
-0.210369
-0.241336
-0.277219
-0.32592
-0.208529
-0.208496
-0.209351
-0.210882
-0.212142
-0.211057
-0.203776
-0.191566
-0.178848
-0.170853
-0.175583
-0.193763
-0.222853
-0.264396
-0.305609
-0.207318
-0.207668
-0.208955
-0.210831
-0.212026
-0.210499
-0.201595
-0.188085
-0.171036
-0.160989
-0.164319
-0.182943
-0.210522
-0.252845
-0.290753
-0.205833
-0.206539
-0.2081
-0.210158
-0.211194
-0.209361
-0.199652
-0.185345
-0.166397
-0.154987
-0.157654
-0.177143
-0.203478
-0.24245
-0.279983
-0.204116
-0.205108
-0.206753
-0.208793
-0.209626
-0.207306
-0.197706
-0.182855
-0.164324
-0.153116
-0.155419
-0.174233
-0.200094
-0.234595
-0.270808
-0.202307
-0.203472
-0.205019
-0.206841
-0.207331
-0.204715
-0.195917
-0.181308
-0.164189
-0.154693
-0.157236
-0.173979
-0.198592
-0.229004
-0.262595
-0.200638
-0.201869
-0.203197
-0.204648
-0.204859
-0.202414
-0.195489
-0.18239
-0.166119
-0.158819
-0.161601
-0.175928
-0.198095
-0.224912
-0.255216
-0.199373
-0.200597
-0.201703
-0.202924
-0.203032
-0.201131
-0.196901
-0.185812
-0.170567
-0.164106
-0.166893
-0.178959
-0.198228
-0.221679
-0.248483
-0.198703
-0.199892
-0.200875
-0.202015
-0.202264
-0.201017
-0.199222
-0.189075
-0.176105
-0.169804
-0.172156
-0.182251
-0.198643
-0.218828
-0.242312
-0.198693
-0.199825
-0.20077
-0.201937
-0.202468
-0.201928
-0.199587
-0.192332
-0.181327
-0.175391
-0.177061
-0.185284
-0.199005
-0.216164
-0.236555
-0.199251
-0.20031
-0.201253
-0.202455
-0.203195
-0.203533
-0.198698
-0.194456
-0.185652
-0.180394
-0.181307
-0.187783
-0.199127
-0.213511
-0.231101
-0.200221
-0.201177
-0.202082
-0.203268
-0.204304
-0.204026
-0.199165
-0.195416
-0.188769
-0.184421
-0.184728
-0.189665
-0.198871
-0.210776
-0.225873
-0.201426
-0.20225
-0.203029
-0.204094
-0.205994
-0.202664
-0.200289
-0.196131
-0.190822
-0.18734
-0.187218
-0.190859
-0.198191
-0.207909
-0.220779
-0.20272
-0.203398
-0.203932
-0.204997
-0.207419
-0.202592
-0.20079
-0.196619
-0.192075
-0.189189
-0.188752
-0.191367
-0.197064
-0.204865
-0.215773
-0.204007
-0.204549
-0.204641
-0.206518
-0.205919
-0.204086
-0.201099
-0.196828
-0.19271
-0.190126
-0.18941
-0.191191
-0.195484
-0.201641
-0.210798
-0.205251
-0.205629
-0.205175
-0.20848
-0.203665
-0.204629
-0.201248
-0.196796
-0.192838
-0.190312
-0.189291
-0.190377
-0.193468
-0.19822
-0.205812
-0.206471
-0.206515
-0.206161
-0.208909
-0.204098
-0.204268
-0.200938
-0.196489
-0.192542
-0.189891
-0.188527
-0.188985
-0.191031
-0.194599
-0.200783
-0.207716
-0.207178
-0.208094
-0.206551
-0.206188
-0.204177
-0.200356
-0.195881
-0.191858
-0.18897
-0.187216
-0.187079
-0.188212
-0.19077
-0.195673
-0.209009
-0.207734
-0.210682
-0.20323
-0.206664
-0.204037
-0.199654
-0.195007
-0.19082
-0.187624
-0.185451
-0.184732
-0.185042
-0.186727
-0.190459
-0.210293
-0.208762
-0.212101
-0.203561
-0.205964
-0.203489
-0.198851
-0.193929
-0.189471
-0.185909
-0.183291
-0.181997
-0.181565
-0.182478
-0.185117
-0.21158
-0.210925
-0.211247
-0.207855
-0.206215
-0.202779
-0.197851
-0.192632
-0.187839
-0.183866
-0.180788
-0.178925
-0.177812
-0.178021
-0.179641
-0.212943
-0.21438
-0.208468
-0.211317
-0.207318
-0.202239
-0.196721
-0.191131
-0.185951
-0.181531
-0.177975
-0.175549
-0.173808
-0.173368
-0.174038
-0.214462
-0.2184
-0.206002
-0.21188
-0.207995
-0.201868
-0.195571
-0.189461
-0.183823
-0.178924
-0.174876
-0.171896
-0.169568
-0.168523
-0.168323
-0.216435
-0.221522
-0.207681
-0.211139
-0.207855
-0.201382
-0.194391
-0.18766
-0.181483
-0.176065
-0.171509
-0.16798
-0.165102
-0.163493
-0.162519
-0.219253
-0.222945
-0.213787
-0.211699
-0.207377
-0.200625
-0.193081
-0.18571
-0.178935
-0.172961
-0.167882
-0.163813
-0.160417
-0.158284
-0.156638
-0.223264
-0.222667
-0.220916
-0.214292
-0.207351
-0.199693
-0.191555
-0.183563
-0.176169
-0.169614
-0.163999
-0.159397
-0.155514
-0.152901
-0.150685
-0.228889
-0.221519
-0.226559
-0.217788
-0.208035
-0.198809
-0.189824
-0.181169
-0.173152
-0.166009
-0.159856
-0.154734
-0.150393
-0.147345
-0.144642
-0.236258
-0.222321
-0.23016
-0.221077
-0.209129
-0.198059
-0.187932
-0.178508
-0.169852
-0.162127
-0.155442
-0.149818
-0.14505
-0.141607
-0.138487
-0.245017
-0.227538
-0.232657
-0.223559
-0.210127
-0.197328
-0.185893
-0.175576
-0.166243
-0.157942
-0.150742
-0.144641
-0.139478
-0.135676
-0.132186
-0.254415
-0.237278
-0.235463
-0.22513
-0.210607
-0.196374
-0.183644
-0.17236
-0.162312
-0.153435
-0.145738
-0.139188
-0.133662
-0.129532
-0.125711
-0.263167
-0.249137
-0.239286
-0.226056
-0.210355
-0.194961
-0.181076
-0.168829
-0.158043
-0.148589
-0.140412
-0.133443
-0.127585
-0.12316
-0.119052
-0.269998
-0.259736
-0.243654
-0.226632
-0.209371
-0.192944
-0.178071
-0.164929
-0.153417
-0.143391
-0.134749
-0.127386
-0.121223
-0.11654
-0.112203
-0.274119
-0.267162
-0.247228
-0.226829
-0.20776
-0.190289
-0.174549
-0.160607
-0.148408
-0.137827
-0.128735
-0.120997
-0.114551
-0.109649
-0.105154
-0.275663
-0.271246
-0.249306
-0.226419
-0.205592
-0.187029
-0.170476
-0.155817
-0.142986
-0.131881
-0.122359
-0.114262
-0.107547
-0.102455
-0.097868
-0.275755
-0.272724
-0.249799
-0.225213
-0.202859
-0.1832
-0.165849
-0.150528
-0.137125
-0.125535
-0.115607
-0.107171
-0.100201
-0.0949309
-0.090266
-0.275413
-0.27251
-0.24889
-0.223125
-0.199513
-0.178809
-0.160669
-0.144726
-0.1308
-0.11877
-0.108469
-0.0997222
-0.0925192
-0.087073
-0.0822219
-0.275262
-0.271339
-0.246851
-0.220155
-0.1955
-0.173836
-0.154932
-0.138398
-0.123995
-0.111567
-0.100931
-0.0919126
-0.0845229
-0.0789236
-0.0736019
-0.275521
-0.269622
-0.243904
-0.216337
-0.19078
-0.168249
-0.148623
-0.131531
-0.116692
-0.103911
-0.0929815
-0.083741
-0.0762321
-0.0705528
-0.0643599
-0.276095
-0.267545
-0.240206
-0.211712
-0.185323
-0.162007
-0.141716
-0.124107
-0.108878
-0.0957909
-0.084617
-0.0752115
-0.0676616
-0.0619818
-0.0546527
-0.276687
-0.265155
-0.235838
-0.206295
-0.179097
-0.155069
-0.134175
-0.116105
-0.10054
-0.0872056
-0.075846
-0.0663421
-0.0588336
-0.0530896
-0.0448719
-0.276896
-0.262378
-0.230802
-0.200077
-0.17207
-0.147391
-0.125968
-0.107506
-0.0916729
-0.0781612
-0.0666878
-0.0571637
-0.049775
-0.0436781
-0.0352266
-0.276341
-0.258965
-0.225021
-0.19302
-0.164199
-0.138934
-0.11707
-0.0983008
-0.0822779
-0.0686691
-0.0571606
-0.0477132
-0.0404013
-0.0338432
-0.0256445
-0.274708
-0.254542
-0.218355
-0.185061
-0.155449
-0.129672
-0.107469
-0.0884958
-0.0723673
-0.0587357
-0.0472612
-0.037952
-0.0306591
-0.0237366
-0.0160297
-0.271699
-0.24883
-0.210645
-0.176128
-0.145785
-0.119597
-0.0971761
-0.0781039
-0.0619506
-0.0483351
-0.0369831
-0.0278475
-0.0205423
-0.0134545
-0.00632279
-0.267081
-0.241641
-0.201746
-0.166154
-0.135187
-0.108721
-0.0862072
-0.0671139
-0.0509937
-0.0374783
-0.0263222
-0.0173859
-0.0100861
-0.00302363
0.00349775
-0.260677
-0.232846
-0.191538
-0.155087
-0.123662
-0.0970675
-0.0745364
-0.0554979
-0.0394982
-0.0261755
-0.0152802
-0.00657269
0.000660252
0.00757116
0.0134374
-0.252371
-0.222388
-0.179923
-0.142899
-0.111239
-0.0846025
-0.0621388
-0.0432555
-0.027475
-0.0144372
-0.00386551
0.0045766
0.0116734
0.0183454
0.023498
-0.242102
-0.210278
-0.166828
-0.129587
-0.0978932
-0.0713003
-0.0490169
-0.030397
-0.0149392
-0.00227699
0.00790793
0.016045
0.0229457
0.0293085
0.0336705
-0.229856
-0.196581
-0.15224
-0.115129
-0.0835688
-0.0571695
-0.0351861
-0.0169401
-0.00190888
0.0102891
0.0200257
0.027818
0.0344675
0.0404493
0.0439219
-0.21565
-0.181339
-0.136262
-0.0994377
-0.0682574
-0.0422285
-0.0206706
-0.00290842
0.0115948
0.023245
0.0324776
0.0398851
0.0462138
0.051708
0.0541988
-0.199538
-0.164465
-0.119014
-0.0825571
-0.0519758
-0.0265017
-0.00550031
0.0116691
0.0255483
0.0365765
0.0452597
0.052239
0.0581409
0.0629666
0.064401
-0.181622
-0.145721
-0.100665
-0.0646137
-0.0347722
-0.0100206
0.0102906
0.0267598
0.0399262
0.0502713
0.0583705
0.0648685
0.0701928
0.0740707
0.074257
-0.16204
-0.125035
-0.0812551
-0.0457361
-0.0167204
0.0071716
0.0266639
0.042328
0.0547021
0.0643158
0.0718018
0.0777441
0.0822992
0.0848519
0.0832908
-0.140894
-0.102695
-0.0606838
-0.026006
0.00209598
0.0250191
0.0435757
0.0583362
0.0698484
0.0786906
0.0855247
0.0908031
0.0943601
0.0951699
0.0913427
-0.118162
-0.0791533
-0.0389732
-0.00546388
0.0216003
0.0434576
0.0609759
0.0747449
0.0853347
0.0933653
0.0994819
0.103947
0.106264
0.105111
0.0993656
-0.0938103
-0.0548166
-0.0162617
0.0158526
0.0417258
0.0624191
0.0788095
0.0915109
0.101125
0.108295
0.113595
0.117068
0.117966
0.115189
0.109294
-0.0680476
-0.0297299
0.00729029
0.0378742
0.062407
0.0818354
0.0970176
0.108587
0.117175
0.123423
0.127788
0.130115
0.129571
0.12569
0.122869
-0.0410935
-0.00389554
0.0315439
0.060503
0.0835705
0.101637
0.115539
0.125919
0.133431
0.138684
0.142007
0.143112
0.141294
0.136887
0.136131
-0.0131585
0.0226291
0.05638
0.083631
0.105134
0.121752
0.134308
0.143449
0.149832
0.154017
0.156222
0.156125
0.153274
0.14874
0.148735
0.0155715
0.0497453
0.0816861
0.107149
0.127007
0.142106
0.153259
0.161114
0.166317
0.16937
0.170421
0.169177
0.165452
0.160819
0.160754
0.044917
0.0773244
0.107348
0.130949
0.149097
0.162618
0.17232
0.178847
0.182824
0.184701
0.184592
0.182275
0.177793
0.172952
0.172338
0.0747085
0.105228
0.133248
0.154923
0.17131
0.183206
0.191419
0.196582
0.199295
0.199971
0.198708
0.195359
0.190139
0.184939
0.183631
0.104778
0.133314
0.159264
0.178965
0.193548
0.203786
0.21048
0.214251
0.215676
0.215138
0.21274
0.208398
0.202443
0.196747
0.194656
0.134963
0.161438
0.185272
0.202966
0.215717
0.224274
0.229429
0.231788
0.231911
0.230156
0.226631
0.221306
0.214593
0.208337
0.205448
0.165101
0.189462
0.21115
0.226818
0.237721
0.244583
0.248188
0.249128
0.247943
0.244978
0.240343
0.234048
0.22656
0.219677
0.215975
0.195037
0.217247
0.236777
0.250415
0.259466
0.264631
0.266685
0.266205
0.263716
0.259546
0.25381
0.246551
0.238287
0.230765
0.226232
0.224618
0.244659
0.262034
0.27365
0.280857
0.284334
0.284845
0.282954
0.279172
0.273814
0.266995
0.258784
0.249736
0.241542
0.236178
0.253693
0.271568
0.286804
0.296421
0.301803
0.30361
0.302595
0.299311
0.294252
0.287721
0.279836
0.270692
0.260877
0.252009
0.245793
0.282121
0.297849
0.310974
0.318627
0.322214
0.32238
0.319866
0.315214
0.308904
0.301225
0.292296
0.282237
0.27166
0.262109
0.255044
0.309761
0.323379
0.334438
0.340171
0.342004
0.340567
0.336588
0.330599
0.323066
0.314267
0.304324
0.293383
0.282068
0.271828
0.263906
0.336481
0.348042
0.357089
0.36096
0.36109
0.358095
0.352695
0.34541
0.336691
0.326805
0.315881
0.304083
0.292048
0.281127
0.272354
0.362156
0.371726
0.378828
0.380904
0.37939
0.374894
0.368123
0.359586
0.349722
0.338791
0.326926
0.314312
0.301582
0.28998
0.280363
0.386663
0.394326
0.399561
0.399918
0.39683
0.390894
0.38281
0.373075
0.362115
0.350182
0.337417
0.324025
0.310628
0.298361
0.287912
0.409889
0.415743
0.419198
0.417922
0.413336
0.406032
0.396699
0.385823
0.373821
0.360938
0.347324
0.333196
0.319161
0.306241
0.29498
0.431728
0.435882
0.437654
0.434839
0.428841
0.420247
0.409736
0.397784
0.384797
0.371018
0.356605
0.341789
0.327151
0.3136
0.301551
0.452081
0.454656
0.454853
0.450601
0.443282
0.433482
0.421869
0.408911
0.395004
0.380389
0.365233
0.349777
0.33457
0.320412
0.307609
0.470855
0.471985
0.470722
0.465141
0.456601
0.445684
0.433051
0.419161
0.404402
0.389014
0.373176
0.357132
0.341396
0.32666
0.313139
0.487965
0.487799
0.485197
0.478402
0.468744
0.456805
0.443239
0.428496
0.412959
0.396866
0.380406
0.363827
0.347604
0.332326
0.31813
0.503334
0.502034
0.49822
0.490328
0.479662
0.466801
0.452393
0.436882
0.420642
0.403914
0.386898
0.36984
0.353173
0.337392
0.322573
0.516898
0.514633
0.509738
0.500872
0.489311
0.475633
0.46048
0.444286
0.427424
0.410136
0.392629
0.37515
0.358086
0.341846
0.326461
0.528618
0.525531
0.519701
0.509988
0.497652
0.483266
0.467466
0.450682
0.43328
0.415508
0.397579
0.379737
0.362326
0.345677
0.329787
0.538457
0.534674
0.528064
0.517639
0.504651
0.48967
0.473327
0.456045
0.43819
0.420011
0.40173
0.383585
0.365879
0.348874
0.332551
0.546376
0.542026
0.534792
0.523794
0.510281
0.494821
0.478039
0.460357
0.442137
0.42363
0.405067
0.386679
0.368731
0.351431
0.334752
0.552342
0.547558
0.539856
0.528427
0.514519
0.498697
0.481585
0.463601
0.445105
0.426353
0.407578
0.389007
0.370875
0.353347
0.336395
0.556328
0.55125
0.543237
0.53152
0.517348
0.501284
0.483951
0.465766
0.447085
0.428169
0.409253
0.39056
0.372304
0.354619
0.337484
0.558315
0.55309
0.544922
0.533061
0.518757
0.502573
0.48513
0.466843
0.448071
0.429072
0.410086
0.391332
0.373013
0.355249
0.338021
0.558294
0.553071
0.544903
0.533044
0.518741
0.502557
0.485115
0.466829
0.448057
0.42906
0.410074
0.39132
0.373002
0.355238
0.338011
0.556265
0.551191
0.543182
0.531468
0.517299
0.501238
0.483907
0.465724
0.447046
0.428131
0.409217
0.390525
0.37227
0.354586
0.337454
0.552237
0.547458
0.539763
0.52834
0.514437
0.498619
0.481511
0.463531
0.445039
0.42629
0.407517
0.388948
0.370819
0.353293
0.336345
0.546229
0.541887
0.534662
0.523672
0.510166
0.494712
0.477936
0.46026
0.442044
0.423542
0.404982
0.386597
0.368652
0.351356
0.334682
0.538267
0.534496
0.527897
0.517483
0.504504
0.489531
0.473195
0.45592
0.438071
0.419897
0.401621
0.38348
0.365777
0.348777
0.33246
0.528386
0.525312
0.519497
0.509796
0.497472
0.483096
0.467305
0.450529
0.433134
0.415368
0.397446
0.379609
0.362202
0.345558
0.329677
0.516625
0.514374
0.509497
0.500646
0.489098
0.475432
0.460289
0.444105
0.427251
0.409971
0.392471
0.374998
0.35794
0.341707
0.32633
0.503018
0.501737
0.497942
0.490068
0.479416
0.46657
0.452174
0.436673
0.420443
0.403725
0.386716
0.369665
0.353004
0.337231
0.322422
0.487607
0.487462
0.484882
0.478107
0.468466
0.456543
0.44299
0.42826
0.412733
0.396651
0.3802
0.363629
0.347412
0.332143
0.317958
0.470454
0.471609
0.470371
0.464812
0.456291
0.445391
0.432773
0.418896
0.40415
0.388774
0.372946
0.35691
0.341182
0.326456
0.312947
0.451638
0.454241
0.454465
0.450237
0.442939
0.433158
0.421562
0.408619
0.394726
0.380123
0.364979
0.349532
0.334335
0.320186
0.307396
0.431243
0.435428
0.43723
0.434441
0.428466
0.419893
0.4094
0.397465
0.384493
0.370727
0.356327
0.341522
0.326893
0.313352
0.301318
0.409362
0.41525
0.418737
0.417489
0.412928
0.405647
0.396334
0.385476
0.373491
0.360622
0.347021
0.332905
0.31888
0.305972
0.294726
0.386094
0.393795
0.399064
0.399451
0.39639
0.390479
0.382417
0.372701
0.361758
0.349841
0.337091
0.323711
0.310326
0.298071
0.287637
0.361545
0.371156
0.378295
0.380403
0.378918
0.374448
0.3677
0.359184
0.349339
0.338425
0.326576
0.313976
0.301257
0.289668
0.280068
0.33583
0.347433
0.356519
0.360426
0.360586
0.357619
0.352244
0.344981
0.336282
0.326415
0.315507
0.303724
0.291702
0.280794
0.272039
0.309068
0.322732
0.333832
0.339603
0.341469
0.340061
0.336108
0.330143
0.322631
0.313851
0.303927
0.293001
0.281699
0.271474
0.26357
0.281387
0.297164
0.310333
0.318025
0.321647
0.321844
0.319358
0.31473
0.308443
0.300785
0.291875
0.281833
0.27127
0.261733
0.254688
0.25292
0.270846
0.286127
0.295786
0.301204
0.303045
0.302059
0.298801
0.293766
0.287257
0.279391
0.270265
0.260465
0.251613
0.245416
0.223804
0.243899
0.261322
0.272982
0.280227
0.283739
0.28428
0.282417
0.27866
0.273325
0.266527
0.258335
0.249303
0.241125
0.235781
0.194184
0.216449
0.236031
0.249714
0.258805
0.264007
0.266092
0.265641
0.263178
0.259033
0.253319
0.24608
0.237833
0.230326
0.225815
0.164209
0.188628
0.210369
0.226085
0.23703
0.24393
0.247568
0.248538
0.247381
0.24444
0.239829
0.233555
0.226085
0.219218
0.215538
0.134031
0.160568
0.184457
0.2022
0.214995
0.223591
0.228781
0.231172
0.231323
0.229595
0.226094
0.22079
0.214096
0.207858
0.204992
0.103808
0.132407
0.158414
0.178167
0.192796
0.203074
0.209805
0.213609
0.215064
0.214553
0.21218
0.207861
0.201924
0.196247
0.19418
0.0737012
0.104287
0.132365
0.154094
0.170528
0.182466
0.190717
0.195914
0.198658
0.199362
0.198125
0.1948
0.1896
0.184418
0.183136
0.0438726
0.0763477
0.106433
0.130088
0.148286
0.16185
0.171592
0.178153
0.182162
0.184069
0.183986
0.181693
0.177232
0.17241
0.171824
0.0144905
0.0487342
0.0807379
0.106258
0.126166
0.14131
0.152504
0.160395
0.165631
0.168714
0.169793
0.168574
0.164871
0.160256
0.160219
-0.0142752
0.0215844
0.0553997
0.0827095
0.104264
0.120929
0.133527
0.142705
0.149122
0.153338
0.155572
0.155501
0.152672
0.148156
0.148178
-0.0422452
-0.00497338
0.0305321
0.0595516
0.0826727
0.100787
0.114731
0.12515
0.132697
0.137982
0.141335
0.142468
0.140672
0.136281
0.135549
-0.0692334
-0.0308401
0.00624756
0.0368934
0.0614813
0.0809587
0.0961848
0.107793
0.116417
0.122698
0.127094
0.129449
0.128929
0.125064
0.122257
-0.0950291
-0.0559585
-0.0173348
0.0148431
0.0407728
0.0615163
0.0779516
0.0906935
0.100344
0.107548
0.112879
0.116382
0.117305
0.114543
0.108653
-0.119413
-0.0803262
-0.0400762
-0.00650135
0.0206205
0.0425291
0.0600934
0.0739037
0.0845309
0.0925956
0.0987439
0.103239
0.105582
0.104448
0.0987066
-0.142175
-0.103898
-0.0618159
-0.0270706
0.00109006
0.0240654
0.0426689
0.0574717
0.0690221
0.077899
0.0847652
0.0900739
0.0936584
0.0944895
0.0906734
-0.16335
-0.12627
-0.0824152
-0.0468271
-0.017752
0.00619319
0.0257334
0.0414405
0.0538536
0.0635026
0.0710212
0.0769942
0.0815779
0.0841552
0.0826117
-0.182959
-0.146985
-0.101851
-0.0657303
-0.0358288
-0.0110231
0.00933682
0.0258499
0.039056
0.049437
0.0575694
0.0640986
0.0694526
0.0733576
0.0735654
-0.200902
-0.165757
-0.120226
-0.0836989
-0.0530567
-0.0275277
-0.00647686
0.0107373
0.0246568
0.0357218
0.0444386
0.0514496
0.0573822
0.0622368
0.0636947
-0.217039
-0.182658
-0.137498
-0.100604
-0.069362
-0.0432774
-0.0216693
-0.00386185
0.0106825
0.0223701
0.031637
0.0390768
0.0454367
0.0509609
0.0534768
-0.231268
-0.197924
-0.1535
-0.116319
-0.0846963
-0.0582405
-0.0362064
-0.0179146
-0.00284163
0.00939444
0.019166
0.026991
0.0336722
0.0396845
0.0431839
-0.243536
-0.211643
-0.168111
-0.1308
-0.0990425
-0.0723928
-0.0500583
-0.0313921
-0.0158919
-0.00319105
0.00702941
0.0151996
0.0221322
0.0285261
0.0329162
-0.253823
-0.223774
-0.181229
-0.144133
-0.112409
-0.0857157
-0.0632008
-0.0442706
-0.0284474
-0.0153703
-0.00476256
0.00371305
0.0108419
0.0175454
0.0227273
-0.262147
-0.234251
-0.192864
-0.156341
-0.124853
-0.0982008
-0.0756182
-0.0565326
-0.0404897
-0.0271273
-0.0161955
-0.00745415
-0.000188877
0.00675387
0.0126504
-0.268566
-0.243064
-0.203091
-0.167427
-0.136396
-0.109874
-0.0873083
-0.0681677
-0.052004
-0.0384484
-0.0272554
-0.0182849
-0.0109526
-0.00385794
0.00269437
-0.273196
-0.25027
-0.212006
-0.177419
-0.147013
-0.120768
-0.0982957
-0.0791762
-0.0629792
-0.0493231
-0.0379339
-0.0287639
-0.0214259
-0.0143056
-0.00714235
-0.276215
-0.255995
-0.219732
-0.186369
-0.156695
-0.130862
-0.108607
-0.0895859
-0.0734138
-0.0597412
-0.0482294
-0.0388854
-0.0315595
-0.0246043
-0.0168652
-0.277855
-0.260429
-0.226412
-0.194344
-0.165463
-0.140141
-0.118225
-0.0994083
-0.0833417
-0.069692
-0.0581459
-0.0486633
-0.0413181
-0.0347276
-0.0264954
-0.278415
-0.263852
-0.232206
-0.201417
-0.17335
-0.148615
-0.127141
-0.10863
-0.0927535
-0.0792009
-0.0676895
-0.05813
-0.0507078
-0.0445793
-0.0360921
-0.278207
-0.266636
-0.237254
-0.20765
-0.180394
-0.15631
-0.135364
-0.117246
-0.101638
-0.0882619
-0.0768639
-0.0673241
-0.0597823
-0.0540077
-0.0457514
-0.277615
-0.269034
-0.241636
-0.213081
-0.186634
-0.163264
-0.142921
-0.125264
-0.109992
-0.0968634
-0.0856508
-0.0762093
-0.0686262
-0.0629163
-0.0555461
-0.27704
-0.271119
-0.245347
-0.217722
-0.192106
-0.16952
-0.149844
-0.132704
-0.117822
-0.104999
-0.0940311
-0.0847544
-0.0772122
-0.0715025
-0.0652698
-0.276782
-0.272848
-0.248309
-0.221554
-0.196841
-0.175122
-0.156168
-0.139586
-0.12514
-0.11267
-0.101996
-0.0929413
-0.0855179
-0.0798877
-0.0745293
-0.276935
-0.274033
-0.250365
-0.224539
-0.200868
-0.180109
-0.161918
-0.145929
-0.13196
-0.119888
-0.109549
-0.100766
-0.0935288
-0.0880513
-0.0831661
-0.277286
-0.274267
-0.25129
-0.226641
-0.204227
-0.184514
-0.167113
-0.151746
-0.138299
-0.126668
-0.116702
-0.108229
-0.101225
-0.0959232
-0.0912259
-0.27721
-0.272813
-0.250815
-0.227861
-0.206972
-0.188356
-0.171755
-0.157049
-0.144175
-0.133029
-0.123468
-0.115334
-0.108585
-0.103461
-0.0988423
-0.27569
-0.268757
-0.248753
-0.228282
-0.209152
-0.191629
-0.175841
-0.161853
-0.14961
-0.138989
-0.129858
-0.122083
-0.115602
-0.110669
-0.106141
-0.271594
-0.261355
-0.245188
-0.228093
-0.210776
-0.194298
-0.179376
-0.166188
-0.154632
-0.144566
-0.135885
-0.128486
-0.122288
-0.117573
-0.113203
-0.264778
-0.250763
-0.240818
-0.227524
-0.211772
-0.196328
-0.182393
-0.170099
-0.159271
-0.149777
-0.141561
-0.134556
-0.128663
-0.124205
-0.120064
-0.256027
-0.238883
-0.236985
-0.226607
-0.212037
-0.197752
-0.184972
-0.173642
-0.163552
-0.154636
-0.1469
-0.140314
-0.134753
-0.130589
-0.126735
-0.246617
-0.229093
-0.234173
-0.225047
-0.211567
-0.198715
-0.187231
-0.176869
-0.167496
-0.159155
-0.151917
-0.145779
-0.140581
-0.136745
-0.133222
-0.237836
-0.223826
-0.231682
-0.222575
-0.210575
-0.199452
-0.189279
-0.179813
-0.171116
-0.163353
-0.15663
-0.150969
-0.146166
-0.142688
-0.139535
-0.230444
-0.222995
-0.228097
-0.21929
-0.209482
-0.200207
-0.19118
-0.182485
-0.174428
-0.167247
-0.161056
-0.155897
-0.15152
-0.148437
-0.145701
-0.224795
-0.22415
-0.222468
-0.21579
-0.208796
-0.201097
-0.192921
-0.184889
-0.177457
-0.170863
-0.165211
-0.160572
-0.156653
-0.154006
-0.151754
-0.220768
-0.224444
-0.215337
-0.213182
-0.208821
-0.202037
-0.194456
-0.187047
-0.180233
-0.174221
-0.169105
-0.164999
-0.161568
-0.1594
-0.157718
-0.217938
-0.223037
-0.209189
-0.212606
-0.209305
-0.202803
-0.195775
-0.189007
-0.182792
-0.177337
-0.172744
-0.169179
-0.166265
-0.16462
-0.16361
-0.215957
-0.219926
-0.20746
-0.213351
-0.209457
-0.203298
-0.196964
-0.190818
-0.185143
-0.180208
-0.176123
-0.173106
-0.170742
-0.169661
-0.169425
-0.214435
-0.215902
-0.209905
-0.212817
-0.20879
-0.203674
-0.198122
-0.192498
-0.187282
-0.182826
-0.179233
-0.17677
-0.174993
-0.174518
-0.17515
-0.213069
-0.212429
-0.212703
-0.209374
-0.207686
-0.204217
-0.199261
-0.19401
-0.189182
-0.185173
-0.182057
-0.180158
-0.179008
-0.179182
-0.180765
-0.21178
-0.210249
-0.213582
-0.20505
-0.207424
-0.204935
-0.200272
-0.195319
-0.190826
-0.187227
-0.184572
-0.183241
-0.182773
-0.183649
-0.186252
-0.210495
-0.209211
-0.212181
-0.204671
-0.208128
-0.205494
-0.201087
-0.196409
-0.192188
-0.188954
-0.186743
-0.185988
-0.186261
-0.18791
-0.191605
-0.2092
-0.208654
-0.20959
-0.207983
-0.207676
-0.205645
-0.201799
-0.197295
-0.193238
-0.190313
-0.188521
-0.188346
-0.189442
-0.191963
-0.196831
-0.207953
-0.207992
-0.207646
-0.210373
-0.205593
-0.205739
-0.202391
-0.197916
-0.193935
-0.191245
-0.189843
-0.190263
-0.192272
-0.195803
-0.201952
-0.20673
-0.207107
-0.20665
-0.209975
-0.205125
-0.206108
-0.202716
-0.198236
-0.194244
-0.191678
-0.190618
-0.191667
-0.19472
-0.199435
-0.206992
-0.205484
-0.206026
-0.206115
-0.208012
-0.207371
-0.205584
-0.202581
-0.198282
-0.194127
-0.191504
-0.190748
-0.192491
-0.196747
-0.202867
-0.211989
-0.204194
-0.204873
-0.205407
-0.20648
-0.208908
-0.20409
-0.20228
-0.198084
-0.193503
-0.190578
-0.1901
-0.192677
-0.198337
-0.206101
-0.216976
-0.202896
-0.203721
-0.204502
-0.205572
-0.207501
-0.20414
-0.201794
-0.197606
-0.192259
-0.188739
-0.188575
-0.192178
-0.199474
-0.209156
-0.221993
-0.201686
-0.202643
-0.203552
-0.204743
-0.205799
-0.205505
-0.200674
-0.196892
-0.190214
-0.185826
-0.186091
-0.190991
-0.200163
-0.212034
-0.227099
-0.200708
-0.201769
-0.202716
-0.203925
-0.204678
-0.205048
-0.200178
-0.195937
-0.187102
-0.181801
-0.182672
-0.189114
-0.200428
-0.214779
-0.232338
-0.200142
-0.201276
-0.202224
-0.203398
-0.203942
-0.203421
-0.201046
-0.19382
-0.182775
-0.176791
-0.178424
-0.186617
-0.200313
-0.217443
-0.237804
-0.200144
-0.201334
-0.20232
-0.203465
-0.203723
-0.20249
-0.20072
-0.190549
-0.177536
-0.171187
-0.173511
-0.183585
-0.199956
-0.220116
-0.243573
-0.200806
-0.202033
-0.203139
-0.204363
-0.204475
-0.202582
-0.198376
-0.187255
-0.171967
-0.165464
-0.168236
-0.180288
-0.199545
-0.222977
-0.249757
-0.202068
-0.203302
-0.204629
-0.206081
-0.206292
-0.203846
-0.196923
-0.183791
-0.167463
-0.160145
-0.162927
-0.177245
-0.199412
-0.226219
-0.256504
-0.203737
-0.204907
-0.206454
-0.208278
-0.208765
-0.206138
-0.197318
-0.182653
-0.165478
-0.155981
-0.158531
-0.175273
-0.199909
-0.230314
-0.263899
-0.205551
-0.206549
-0.208197
-0.21024